Title
82279
    1SAPS     N    1   5.194   3.018  11.412  0.3925  0.5280 -0.7596
    1SAPS   HN1    2   5.274   2.977  11.466  0.7627 -1.5543 -2.7715
    1SAPS   HN2    3   5.231   3.088  11.344  3.0527  1.2806  1.3854
    1SAPS   HN3    4   5.134   3.060  11.485  0.6362  1.6056 -1.1817
    1SAPS   C12    5   5.130   2.904  11.340 -0.1287  0.2845  0.4781
    1SAPS  H12A    6   5.206   2.848  11.287 -2.4933 -1.0913 -1.6008
    1SAPS   C13    7   5.064   2.806  11.443 -0.4497 -0.7647  0.1120
    1SAPS  O13A    8   5.096   2.805  11.567 -0.4735 -0.4576 -0.3477
    1SAPS  O13B    9   4.993   2.716  11.396 -0.3672  0.1256 -0.7218
    1SAPS   C11   10   5.019   2.949  11.240 -0.3200 -0.5080 -0.2388
    1SAPS  H11A   11   4.940   3.002  11.296  1.0081 -0.4731  1.6841
    1SAPS  H11B   12   4.965   2.864  11.194 -0.9076  0.1499 -0.7508
    1SAPS     P   13   4.987   3.072  11.010  0.2683 -0.5232 -0.4285
    1SAPS   O13   14   4.879   3.158  11.063 -0.4871 -0.1098 -0.5804
    1SAPS   O14   15   5.064   3.142  10.901 -0.7202  0.5455  0.6277
    1SAPS   O12   16   5.071   3.028  11.135  0.6113 -0.1670  0.4018
    1SAPS   O11   17   4.924   2.936  10.954 -0.9589  0.2932  0.0009
    1SAPS    C1   18   4.808   2.938  10.863  0.9753 -0.0902  0.0729
    1SAPS    HA   19   4.748   2.844  10.861  2.3334 -0.9630 -0.1532
    1SAPS    HB   20   4.736   3.019  10.888  1.1697  0.1852 -0.2560
    1SAPS    C2   21   4.862   2.955  10.718 -0.2872 -0.1501 -0.1094
    1SAPS    HS   22   4.941   3.031  10.707 -0.8581  0.7190  1.6773
    1SAPS   O21   23   4.747   2.987  10.628  0.4623 -0.0224 -0.2168
    1SAPS   C21   24   4.698   3.116  10.627 -0.4016  0.0551 -0.1646
    1SAPS   O22   25   4.734   3.209  10.699  0.6060  0.8002 -0.0838
    1SAPS   C22   26   4.602   3.126  10.504 -0.0426  0.3442  0.0729
    1SAPS   H2R   27   4.560   3.024  10.492  0.5447  0.1807 -0.5925
    1SAPS   H2S   28   4.513   3.184  10.536  0.0824  0.9977 -0.7693
    1SAPS    C3   29   4.918   2.820  10.654  0.0322  0.0447 -0.2136
    1SAPS    HX   30   4.857   2.734  10.688  1.1563 -0.1161  1.4367
    1SAPS    HY   31   5.021   2.807  10.694  0.3736  2.2685 -0.3111
    1SAPS   O31   32   4.919   2.827  10.512 -0.0587  0.2506  0.0514
    1SAPS   C31   33   5.019   2.906  10.458 -0.5253  1.2621 -0.3347
    1SAPS   O32   34   5.097   2.969  10.519 -0.2466  0.0750 -0.6281
    1SAPS   C32   35   5.011   2.901  10.302  0.4360 -0.0610  0.0153
    1SAPS   H2X   36   4.922   2.964  10.280  0.6399 -0.6552 -2.7178
    1SAPS   H2Y   37   4.999   2.797  10.266  1.4744 -0.5859  1.1595
    1SAPS   C23   38   4.661   3.186  10.375  0.2856  0.2328 -0.4089
    1SAPS   H3R   39   4.589   3.191  10.290  0.0810  2.0710 -0.1569
    1SAPS   H3S   40   4.743   3.121  10.338  0.2184 -0.1129  0.0422
    1SAPS   C24   41   4.703   3.336  10.390  0.2366 -0.1845  0.6481
    1SAPS   H4R   42   4.622   3.387  10.446  1.6585  0.1607  2.4089
    1SAPS   H4S   43   4.691   3.377  10.287  0.9308 -0.4187  0.4685
    1SAPS   C25   44   4.850   3.349  10.441 -0.3923  0.4655  0.3511
    1SAPS   H5R   45   4.875   3.356  10.548  4.0062 -2.5316 -0.3405
    1SAPS   C26   46   4.958   3.347  10.359  0.2798  0.2207  0.2795
    1SAPS   H6R   47   5.049   3.377  10.413 -1.1055 -1.5639  3.7433
    1SAPS   C27   48   4.963   3.342  10.201  0.0204 -0.4809  0.2490
    1SAPS   H7R   49   4.881   3.277  10.166  1.0714 -1.4839 -0.4064
    1SAPS   H7S   50   5.056   3.289  10.169  1.6115  2.5185 -0.2705
    1SAPS   C28   51   4.951   3.474  10.144 -0.3090 -0.1000 -0.0238
    1SAPS   H8R   52   4.913   3.551  10.213 -0.8177 -1.2944  1.0433
    1SAPS   C29   53   4.984   3.506  10.012 -0.5266  0.6801  0.4504
    1SAPS   H9R   54   4.982   3.610   9.979  1.2665  0.3821 -0.6877
    1SAPS  C210   55   5.043   3.410   9.914 -0.3300 -0.1648 -0.3291
    1SAPS  H10R   56   4.958   3.348   9.879 -2.5654  1.7250  1.5678
    1SAPS  H10S   57   5.115   3.336   9.955 -0.9995  0.5571  2.2566
    1SAPS  C211   58   5.106   3.489   9.806  0.2876  0.3426 -0.6828
    1SAPS  H11R   59   5.161   3.579   9.836  0.4047  0.1398 -0.2806
    1SAPS  C212   60   5.114   3.463   9.677  0.8599 -0.5117  0.1747
    1SAPS  H12R   61   5.168   3.540   9.620 -2.8664  3.7141  1.9995
    1SAPS  C213   62   5.058   3.333   9.609  0.9862  0.0148  0.3826
    1SAPS  H13R   63   5.024   3.260   9.685 -0.2790  0.3725  0.1670
    1SAPS  H13S   64   5.144   3.282   9.559  0.5173 -0.5766  0.1674
    1SAPS  C214   65   4.944   3.342   9.510  0.1805  0.0197 -0.0919
    1SAPS  H14R   66   4.841   3.324   9.545  0.3420 -1.1817 -0.2120
    1SAPS  C215   67   4.963   3.353   9.372 -0.3893  1.3188  0.9865
    1SAPS  H15R   68   4.880   3.337   9.301  2.5606 -3.0223 -1.7454
    1SAPS  C216   69   5.096   3.366   9.310  0.0653  0.4421  0.2740
    1SAPS  H16R   70   5.172   3.402   9.382  1.1292  1.4445 -1.3182
    1SAPS  H16S   71   5.080   3.444   9.232  3.3884  1.8714  0.9545
    1SAPS  C217   72   5.141   3.239   9.228 -0.3609  0.0328 -0.1257
    1SAPS  H17R   73   5.063   3.213   9.154 -0.3809 -0.4931  0.0709
    1SAPS  H17S   74   5.146   3.149   9.294  0.8257  0.4730  0.3930
    1SAPS  C218   75   5.277   3.254   9.165 -0.1002 -0.2537  0.5975
    1SAPS  H18R   76   5.312   3.163   9.113 -0.1668  0.1583 -0.1782
    1SAPS  H18S   77   5.348   3.276   9.248 -0.8170 -0.7555  1.3608
    1SAPS  C219   78   5.295   3.370   9.060  0.0219 -0.1528  0.1721
    1SAPS  H19R   79   5.289   3.467   9.114 -0.5600 -0.6943  1.0843
    1SAPS  H19S   80   5.205   3.361   8.994 -2.4941  0.2664  3.4269
    1SAPS  C220   81   5.430   3.355   8.996 -0.9466  0.2774  0.3077
    1SAPS  H20R   82   5.424   3.431   8.915 -1.7656 -0.7028 -0.5708
    1SAPS  H20S   83   5.443   3.253   8.954  0.3873 -0.6201  2.8304
    1SAPS  H20T   84   5.527   3.375   9.046 -0.9333 -0.4153  0.5655
    1SAPS   C33   85   5.126   2.976  10.229  0.5495 -0.3727 -0.0825
    1SAPS   H3X   86   5.221   2.928  10.261  2.3808  3.4066  0.3580
    1SAPS   H3Y   87   5.130   3.077  10.275  0.3921  0.3570 -1.6437
    1SAPS   C34   88   5.109   2.955  10.081 -0.3743  0.6250  0.2675
    1SAPS   H4X   89   5.025   3.015  10.040 -0.5471  0.0243 -0.2832
    1SAPS   H4Y   90   5.080   2.851  10.052 -1.6527  0.5973  1.5867
    1SAPS   C35   91   5.238   2.985  10.000  0.8227 -0.1580  0.9701
    1SAPS   H5X   92   5.322   2.924  10.040  0.6548 -0.8214  0.3098
    1SAPS   H5Y   93   5.269   3.091  10.008  0.2383  0.1532 -0.8567
    1SAPS   C36   94   5.207   2.938   9.850  0.2540 -0.1974 -0.5896
    1SAPS   H6X   95   5.115   2.993   9.818  1.1008  0.9182 -1.1617
    1SAPS   H6Y   96   5.204   2.827   9.847  0.9057 -0.2505  0.5258
    1SAPS   C37   97   5.316   2.993   9.749  0.1277 -0.1632  0.1394
    1SAPS   H7X   98   5.422   2.967   9.769  0.3878 -0.0136 -0.9860
    1SAPS   H7Y   99   5.300   3.103   9.748 -1.3110 -0.3559 -0.5194
    1SAPS   C38  100   5.277   2.954   9.606  0.2993 -0.0992  0.3542
    1SAPS   H8X  101   5.356   2.991   9.537  0.6690 -1.4053  0.0621
    1SAPS   H8Y  102   5.183   2.999   9.568  1.3999  0.2739 -1.9935
    1SAPS   C39  103   5.266   2.802   9.579 -0.3537 -0.2322  0.0381
    1SAPS   H9X  104   5.163   2.766   9.601  0.0371 -1.6754 -0.4704
    1SAPS   H9Y  105   5.344   2.750   9.639 -0.7559 -0.1722  0.6195
    1SAPS  C310  106   5.284   2.766   9.434  0.5920 -0.0491  0.5929
    1SAPS  H10X  107   5.298   2.656   9.426  0.6250 -0.1064  1.3546
    1SAPS  H10Y  108   5.382   2.806   9.401 -0.3324  1.2923 -0.6080
    1SAPS  C311  109   5.174   2.813   9.340  0.0644  0.3141  0.0842
    1SAPS  H11X  110   5.151   2.918   9.371 -0.3925  0.1319  0.3572
    1SAPS  H11Y  111   5.077   2.758   9.342 -1.4611  2.6655 -3.6545
    1SAPS  C312  112   5.208   2.833   9.195 -0.3704 -0.0483  0.2839
    1SAPS  H12X  113   5.245   2.739   9.148 -0.2813 -0.3453  0.9508
    1SAPS  H12Y  114   5.292   2.905   9.185  0.8279 -1.6581 -1.5650
    1SAPS  C313  115   5.096   2.900   9.113 -0.3482  0.0653 -0.0510
    1SAPS  H13X  116   5.068   2.997   9.160  0.5651  0.3677 -0.1271
    1SAPS  H13Y  117   5.001   2.842   9.124 -0.0509 -0.8863 -2.2547
    1SAPS  C314  118   5.128   2.926   8.968 -0.7718 -0.3025 -0.3610
    1SAPS  H14X  119   5.222   2.984   8.973 -1.8913  1.4802  0.4639
    1SAPS  H14Y  120   5.046   2.983   8.920 -0.9018 -0.6292 -0.5291
    1SAPS  C315  121   5.158   2.798   8.892 -0.2953 -0.2905  0.3750
    1SAPS  H15X  122   5.085   2.716   8.913  1.7001 -2.2963 -0.2619
    1SAPS  H15Y  123   5.253   2.753   8.927 -0.1823 -1.0607 -0.8718
    1SAPS  C316  124   5.192   2.834   8.746  0.0775  0.1468 -0.1717
    1SAPS  H16X  125   5.098   2.878   8.706 -1.2932 -1.4901  1.1788
    1SAPS  H16Y  126   5.208   2.736   8.697 -0.9865 -0.1496  0.0596
    1SAPS  C317  127   5.307   2.938   8.725  0.1330 -0.0295  0.0445
    1SAPS  H17X  128   5.396   2.873   8.742  0.0084  0.3012  1.9784
    1SAPS  H17Y  129   5.313   3.029   8.789  4.3535  1.2672 -1.9915
    1SAPS  C318  130   5.327   2.978   8.573 -0.2524  0.0019  0.3337
    1SAPS  H18X  131   5.345   2.899   8.498 -1.3159  0.6210 -0.5815
    1SAPS  H18Y  132   5.407   3.053   8.553 -0.5310  0.0681 -0.5409
    1SAPS  H18Z  133   5.236   3.035   8.547  0.3391 -0.1929 -2.2934
    2SAPS     N  134   3.459   3.531  11.022 -0.2125  0.1987 -0.1980
    2SAPS   HN1  135   3.458   3.631  11.051  2.0367  0.5038 -1.0572
    2SAPS   HN2  136   3.557   3.497  11.019 -0.2040  0.0586  1.1161
    2SAPS   HN3  137   3.411   3.520  10.930  0.1641 -0.0899 -0.3608
    2SAPS   C12  138   3.373   3.446  11.099  0.0623 -0.0393  0.0568
    2SAPS  H12A  139   3.395   3.343  11.074 -0.4808 -0.9476  3.0718
    2SAPS   C13  140   3.414   3.470  11.251  0.3205 -0.0848  0.0013
    2SAPS  O13A  141   3.475   3.575  11.288 -0.4056 -0.4922  0.0463
    2SAPS  O13B  142   3.357   3.400  11.336 -0.3588  0.2843  0.6940
    2SAPS   C11  143   3.225   3.476  11.071  0.2647 -1.0046  0.0663
    2SAPS  H11A  144   3.210   3.577  11.116  0.2169  0.3775 -2.8999
    2SAPS  H11B  145   3.160   3.401  11.120 -0.8050  0.2976  0.6850
    2SAPS     P  146   3.177   3.342  10.857 -0.3195 -0.4823 -0.6510
    2SAPS   O13  147   3.309   3.278  10.830  0.3219  0.2041  0.3172
    2SAPS   O14  148   3.072   3.258  10.916  0.1452  0.4601 -0.0217
    2SAPS   O12  149   3.207   3.479  10.928 -0.8384  0.1055 -0.1624
    2SAPS   O11  150   3.114   3.395  10.724  0.0264 -0.1649  0.3752
    2SAPS    C1  151   3.097   3.308  10.607  0.2583 -0.5713 -0.0876
    2SAPS    HA  152   3.092   3.200  10.633  4.6267 -1.0647 -0.9258
    2SAPS    HB  153   3.006   3.344  10.553 -0.1877  0.6915  1.4585
    2SAPS    C2  154   3.220   3.323  10.517 -0.4953 -0.5317  0.0250
    2SAPS    HS  155   3.301   3.331  10.592 -1.0776  0.9034  0.5152
    2SAPS   O21  156   3.197   3.437  10.434  0.4328  0.1410 -0.0089
    2SAPS   C21  157   3.309   3.511  10.397  0.0756 -0.2178 -0.1108
    2SAPS   O22  158   3.420   3.492  10.440  0.1033  0.5344  0.0653
    2SAPS   C22  159   3.269   3.612  10.289  0.2738 -0.0382  0.0985
    2SAPS   H2R  160   3.161   3.594  10.267 -0.2052  0.7364  1.7239
    2SAPS   H2S  161   3.260   3.708  10.344 -1.5123 -0.6994  1.0040
    2SAPS    C3  162   3.251   3.189  10.438  0.1361 -0.4492 -0.1934
    2SAPS    HX  163   3.156   3.161  10.387 -0.3068 -0.1849  0.4817
    2SAPS    HY  164   3.269   3.104  10.508  2.2228 -2.5611 -3.1733
    2SAPS   O31  165   3.345   3.209  10.332  0.1225 -0.4719  0.1368
    2SAPS   C31  166   3.469   3.176  10.376  0.5474  0.3285  0.4234
    2SAPS   O32  167   3.504   3.154  10.487  0.1497 -0.5001 -0.4451
    2SAPS   C32  168   3.567   3.179  10.250  0.4925  0.0879 -0.5320
    2SAPS   H2X  169   3.668   3.162  10.291  0.3198 -2.1542 -1.0004
    2SAPS   H2Y  170   3.559   3.285  10.217 -2.6745  0.6595  1.7683
    2SAPS   C23  171   3.365   3.624  10.171  0.0916 -0.4481 -0.4235
    2SAPS   H3R  172   3.464   3.627  10.222 -0.6160  1.2575  0.9071
    2SAPS   H3S  173   3.350   3.717  10.113  3.3103 -0.3442 -1.1360
    2SAPS   C24  174   3.358   3.490  10.093 -0.2608  0.3272  0.2478
    2SAPS   H4R  175   3.355   3.404  10.163  0.4645 -1.3823 -1.7517
    2SAPS   H4S  176   3.449   3.478  10.030 -0.8567  1.1565 -0.7825
    2SAPS   C25  177   3.241   3.477   9.998 -0.1118 -0.0555 -0.0697
    2SAPS   H5R  178   3.151   3.440  10.049 -0.7219  0.8142 -0.4974
    2SAPS   C26  179   3.242   3.507   9.875 -0.4021 -0.6560  0.2381
    2SAPS   H6R  180   3.145   3.508   9.823  0.2725 -0.4222 -1.0342
    2SAPS   C27  181   3.357   3.562   9.795  0.4456  0.0290 -0.5440
    2SAPS   H7R  182   3.440   3.589   9.863  0.0872 -0.2474  0.0051
    2SAPS   H7S  183   3.321   3.656   9.747  1.0763  0.5768  0.0451
    2SAPS   C28  184   3.406   3.457   9.696  0.1840  0.1125 -0.7471
    2SAPS   H8R  185   3.430   3.360   9.742  3.6596  1.6895  0.9500
    2SAPS   C29  186   3.426   3.467   9.562  0.2248 -0.0279  0.5026
    2SAPS   H9R  187   3.468   3.376   9.517 -3.0305 -0.8370 -1.0260
    2SAPS  C210  188   3.405   3.588   9.482  0.1127 -0.0914 -0.0459
    2SAPS  H10R  189   3.506   3.629   9.463  1.5117 -2.6944  1.4482
    2SAPS  H10S  190   3.343   3.667   9.531 -1.9259 -0.9190 -1.2349
    2SAPS  C211  191   3.339   3.533   9.358 -0.0080  0.8206  0.7249
    2SAPS  H11R  192   3.231   3.514   9.356 -0.3425  2.7880 -1.2574
    2SAPS  C212  193   3.392   3.525   9.231  0.1890 -0.1477 -0.2314
    2SAPS  H12R  194   3.327   3.493   9.149 -1.4678  0.8235  0.6688
    2SAPS  C213  195   3.532   3.567   9.191  0.0746  0.0273  0.3286
    2SAPS  H13R  196   3.547   3.532   9.087  1.5666  3.3560 -0.6452
    2SAPS  H13S  197   3.597   3.503   9.255  0.4471  0.4669  0.3891
    2SAPS  C214  198   3.554   3.720   9.191 -0.0643 -0.1751 -0.0491
    2SAPS  H14R  199   3.525   3.764   9.287  3.1475  1.2079  0.3715
    2SAPS  C215  200   3.641   3.799   9.117 -0.4038  0.3915  0.6591
    2SAPS  H15R  201   3.632   3.907   9.134  0.0131  0.0508  3.1457
    2SAPS  C216  202   3.723   3.764   8.997  0.3728 -0.1193  0.3268
    2SAPS  H16R  203   3.723   3.653   8.995  1.3580 -0.1212 -3.0902
    2SAPS  H16S  204   3.825   3.790   9.034  0.5679 -0.7504  0.2407
    2SAPS  C217  205   3.661   3.828   8.873  0.2802  0.4125 -1.0109
    2SAPS  H17R  206   3.559   3.789   8.852 -0.0773 -0.7026  2.4841
    2SAPS  H17S  207   3.732   3.810   8.790  0.3859 -0.8179 -0.6596
    2SAPS  C218  208   3.678   3.980   8.888  0.8783  0.5733 -0.2400
    2SAPS  H18R  209   3.782   4.009   8.914  0.5599  1.2018  0.3412
    2SAPS  H18S  210   3.609   4.030   8.959 -0.7628 -1.3154 -0.4407
    2SAPS  C219  211   3.645   4.041   8.752 -0.1710  0.2130 -0.5914
    2SAPS  H19R  212   3.537   4.022   8.733 -0.5587 -0.4124  2.1323
    2SAPS  H19S  213   3.697   3.987   8.669  1.0106 -0.3468  0.4960
    2SAPS  C220  214   3.678   4.186   8.763  0.3762  0.6559 -0.5614
    2SAPS  H20R  215   3.787   4.205   8.779  0.2611 -0.0475  1.2343
    2SAPS  H20S  216   3.616   4.231   8.844  1.8141 -2.5968  2.5163
    2SAPS  H20T  217   3.651   4.241   8.671  1.4723  2.1272 -0.0369
    2SAPS   C33  218   3.525   3.090  10.130  0.4290 -0.0683 -0.4352
    2SAPS   H3X  219   3.414   3.101  10.128  0.5094  0.9453  0.3071
    2SAPS   H3Y  220   3.541   2.982  10.152  0.7841  0.2688  1.0041
    2SAPS   C34  221   3.588   3.126   9.996 -0.2303 -0.2731  0.0486
    2SAPS   H4X  222   3.699   3.129   9.992 -0.1329 -2.1735  0.8027
    2SAPS   H4Y  223   3.556   3.232   9.987 -0.5700 -0.2063  1.8547
    2SAPS   C35  224   3.531   3.041   9.883 -0.3323  0.4210 -0.2604
    2SAPS   H5X  225   3.423   3.059   9.867 -0.9403 -2.5666  0.2556
    2SAPS   H5Y  226   3.544   2.933   9.903 -1.6948 -0.2070 -2.5376
    2SAPS   C36  227   3.603   3.071   9.747  0.6458  0.1464  0.5696
    2SAPS   H6X  228   3.709   3.039   9.760  1.0986  0.4951 -1.9369
    2SAPS   H6Y  229   3.614   3.181   9.729  0.5060 -0.0812 -0.9504
    2SAPS   C37  230   3.547   2.998   9.622  0.1036 -0.0746 -0.1664
    2SAPS   H7X  231   3.444   3.037   9.606 -0.1775 -0.2520  1.1434
    2SAPS   H7Y  232   3.534   2.893   9.657  0.9794  0.4224  1.6598
    2SAPS   C38  233   3.635   3.014   9.504  0.2162  0.1611  0.4344
    2SAPS   H8X  234   3.734   2.965   9.517  0.0307 -0.0272  1.1724
    2SAPS   H8Y  235   3.656   3.123   9.499 -2.1284  0.5509 -2.0153
    2SAPS   C39  236   3.566   2.959   9.377 -0.3948 -0.1641 -0.5068
    2SAPS   H9X  237   3.463   2.999   9.371  0.2215  1.3822 -1.1285
    2SAPS   H9Y  238   3.569   2.849   9.389 -2.6949 -0.0734  1.1282
    2SAPS  C310  239   3.632   3.013   9.244 -0.4003 -0.4261 -0.5402
    2SAPS  H10X  240   3.611   2.951   9.154 -2.0194  0.0039 -0.4663
    2SAPS  H10Y  241   3.743   3.009   9.257 -0.4080  0.4280 -0.1897
    2SAPS  C311  242   3.592   3.153   9.210 -0.7591  0.0995 -0.2455
    2SAPS  H11X  243   3.636   3.216   9.290 -0.2303  0.0020 -0.4548
    2SAPS  H11Y  244   3.482   3.151   9.220 -0.9347 -4.0848 -2.1267
    2SAPS  C312  245   3.634   3.201   9.071  0.0584  0.0143  1.0512
    2SAPS  H12X  246   3.744   3.187   9.069  0.1225  0.4689  1.2581
    2SAPS  H12Y  247   3.618   3.307   9.041 -0.8769 -0.3914  0.0507
    2SAPS  C313  248   3.550   3.136   8.953 -0.2631  0.1805  0.2128
    2SAPS  H13X  249   3.443   3.151   8.979 -0.8246 -1.8623 -0.7775
    2SAPS  H13Y  250   3.557   3.025   8.957  0.8047  0.0830 -2.9616
    2SAPS  C314  251   3.576   3.176   8.810 -0.9522  0.9015  0.4215
    2SAPS  H14X  252   3.537   3.101   8.738 -0.0642  1.1046 -0.2791
    2SAPS  H14Y  253   3.682   3.199   8.788 -0.7335 -0.2166  0.2876
    2SAPS  C315  254   3.500   3.299   8.783  0.0809  0.0910 -0.3577
    2SAPS  H15X  255   3.507   3.369   8.869 -0.4368 -1.5951  1.0862
    2SAPS  H15Y  256   3.392   3.279   8.766  0.4698 -1.5474 -1.0076
    2SAPS  C316  257   3.544   3.382   8.657 -0.3133  0.5460  1.3308
    2SAPS  H16X  258   3.452   3.419   8.607 -0.1349 -4.1938 -2.9561
    2SAPS  H16Y  259   3.610   3.317   8.595 -1.2098  1.0363 -0.1666
    2SAPS  C317  260   3.615   3.514   8.684  0.2314  0.1539  0.3199
    2SAPS  H17X  261   3.713   3.502   8.735 -0.9047 -2.2698  2.0613
    2SAPS  H17Y  262   3.548   3.558   8.761  1.3444  1.3977  0.5928
    2SAPS  C318  263   3.633   3.610   8.566 -0.2999 -0.3600  1.0563
    2SAPS  H18X  264   3.646   3.713   8.606  3.0603 -0.4231  0.2896
    2SAPS  H18Y  265   3.552   3.597   8.491 -0.0475  0.0967  0.6998
    2SAPS  H18Z  266   3.730   3.596   8.514 -0.0406  0.6197  1.2740
    3SAPS     N  267   3.110   4.900  10.964 -0.8291 -0.0930 -0.0099
    3SAPS   HN1  268   3.128   4.917  10.863 -2.0058 -2.4894 -0.6644
    3SAPS   HN2  269   3.091   4.798  10.974 -0.5310 -0.1037  0.4652
    3SAPS   HN3  270   3.014   4.937  10.980 -0.6667  0.3172 -0.0020
    3SAPS   C12  271   3.213   4.961  11.050 -0.1444  0.4003 -0.1197
    3SAPS  H12A  272   3.194   4.916  11.146  4.3616  0.6893  1.0351
    3SAPS   C13  273   3.359   4.923  11.007  0.1422 -0.5127  0.2707
    3SAPS  O13A  274   3.387   4.864  10.902  0.3946  0.1533  0.4233
    3SAPS  O13B  275   3.454   4.950  11.085  0.2067 -0.4596  0.0652
    3SAPS   C11  276   3.203   5.113  11.056 -0.3902 -0.9482  0.1371
    3SAPS  H11A  277   3.272   5.148  11.137 -1.2210  0.8302  0.1014
    3SAPS  H11B  278   3.102   5.135  11.096 -0.6073  0.1948 -0.9962
    3SAPS     P  279   3.175   5.332  10.909  0.1670  0.1364  0.1106
    3SAPS   O13  280   3.024   5.327  10.902 -0.1637 -0.4148 -0.9827
    3SAPS   O14  281   3.231   5.415  11.021 -0.1846 -0.0417  0.0997
    3SAPS   O12  282   3.224   5.183  10.930  0.3445  0.3847 -0.2317
    3SAPS   O11  283   3.243   5.351  10.765  0.3325  0.1981 -0.5266
    3SAPS    C1  284   3.385   5.332  10.746 -0.0329  0.1384 -0.8288
    3SAPS    HA  285   3.443   5.403  10.808 -0.5845 -0.1650  0.0439
    3SAPS    HB  286   3.417   5.231  10.777 -1.6737 -0.8705 -2.3166
    3SAPS    C2  287   3.428   5.349  10.598  0.2355 -0.0084 -0.3947
    3SAPS    HS  288   3.538   5.334  10.599  0.0641 -1.3636 -0.4480
    3SAPS   O21  289   3.408   5.478  10.542 -0.3490 -0.3841  0.2435
    3SAPS   C21  290   3.470   5.576  10.593  0.4094 -0.0615 -0.5250
    3SAPS   O22  291   3.548   5.569  10.694 -0.1220 -0.3924 -0.1653
    3SAPS   C22  292   3.453   5.701  10.508  0.6122  0.7376  0.4775
    3SAPS   H2R  293   3.398   5.782  10.562  2.2128  1.5781  0.8849
    3SAPS   H2S  294   3.557   5.736  10.492  0.5364 -0.1506 -2.1743
    3SAPS    C3  295   3.350   5.241  10.513  0.8384 -0.7504 -0.4123
    3SAPS    HX  296   3.242   5.267  10.515  0.2827 -3.0341  0.1220
    3SAPS    HY  297   3.358   5.139  10.554 -2.2114 -1.2344 -0.8990
    3SAPS   O31  298   3.405   5.238  10.381 -0.3166  0.6898 -0.0983
    3SAPS   C31  299   3.322   5.229  10.278 -0.2298 -0.2573 -0.2341
    3SAPS   O32  300   3.200   5.208  10.283 -0.7522 -0.3609 -0.0611
    3SAPS   C32  301   3.388   5.243  10.141 -0.0658 -0.1194  0.1518
    3SAPS   H2X  302   3.406   5.142  10.097 -1.5595 -0.4424  0.2755
    3SAPS   H2Y  303   3.489   5.289  10.142  1.5973 -3.5658  1.1722
    3SAPS   C23  304   3.380   5.686  10.370 -0.3315 -0.1575  0.3196
    3SAPS   H3R  305   3.279   5.641  10.381 -0.3107  0.0340  1.4100
    3SAPS   H3S  306   3.440   5.619  10.305  0.0956 -2.3210  2.8571
    3SAPS   C24  307   3.365   5.815  10.285 -0.2799  0.0099  0.3904
    3SAPS   H4R  308   3.328   5.793  10.183  1.5834  0.6436 -0.4445
    3SAPS   H4S  309   3.469   5.852  10.268 -0.5834  2.4724  3.4870
    3SAPS   C25  310   3.299   5.932  10.354 -0.5066 -0.5480 -0.3391
    3SAPS   H5R  311   3.305   5.938  10.463 -0.0434  1.4427 -0.4586
    3SAPS   C26  312   3.220   6.019  10.294  0.4632  0.2478  0.0169
    3SAPS   H6R  313   3.174   6.102  10.350 -0.4083 -0.3726  0.2174
    3SAPS   C27  314   3.189   6.016  10.144 -0.1142  0.0518  0.0718
    3SAPS   H7R  315   3.098   6.075  10.120 -2.4471 -1.6544  4.2605
    3SAPS   H7S  316   3.161   5.913  10.112  3.0309 -0.3787 -1.5785
    3SAPS   C28  317   3.318   6.061  10.071  0.6371  0.3871  0.1647
    3SAPS   H8R  318   3.423   6.047  10.101  0.9707  0.8690 -0.7438
    3SAPS   C29  319   3.302   6.114   9.948 -0.1295  0.1100 -0.9212
    3SAPS   H9R  320   3.392   6.125   9.885  0.0332 -1.2943 -0.9352
    3SAPS  C210  321   3.168   6.151   9.880 -0.5498  0.0120 -0.4526
    3SAPS  H10R  322   3.197   6.223   9.800  0.7741  0.8355  0.7436
    3SAPS  H10S  323   3.108   6.203   9.957 -0.5054  0.2519 -0.5800
    3SAPS  C211  324   3.088   6.030   9.836 -0.9820  0.0981  0.6961
    3SAPS  H11R  325   3.061   5.962   9.918  1.6937 -0.0984  1.4421
    3SAPS  C212  326   3.037   6.002   9.712 -0.7764 -0.4499 -0.9139
    3SAPS  H12R  327   2.980   5.909   9.699 -1.5844 -0.0584 -0.2201
    3SAPS  C213  328   3.051   6.085   9.589  0.6163 -0.2740 -0.0335
    3SAPS  H13R  329   3.114   6.018   9.527  0.8015  2.3192 -2.7703
    3SAPS  H13S  330   3.111   6.176   9.612 -2.1211  0.9756  2.3944
    3SAPS  C214  331   2.935   6.121   9.497 -0.3472  0.6982  0.3081
    3SAPS  H14R  332   2.833   6.092   9.527 -0.1985 -1.7423 -1.3524
    3SAPS  C215  333   2.947   6.189   9.385 -0.3681  0.5098 -0.1761
    3SAPS  H15R  334   2.852   6.206   9.333 -0.2400 -0.7155 -0.8268
    3SAPS  C216  335   3.071   6.247   9.317 -0.9531 -0.3948  0.0346
    3SAPS  H16R  336   3.113   6.167   9.253  0.6979 -0.7794  1.5385
    3SAPS  H16S  337   3.138   6.269   9.403  0.5088 -0.6613 -1.0208
    3SAPS  C217  338   3.050   6.380   9.243  0.0781 -0.3868 -0.5716
    3SAPS  H17R  339   2.988   6.445   9.309 -2.3209 -1.7066 -1.4320
    3SAPS  H17S  340   2.986   6.374   9.152  1.7539  3.1506 -2.0641
    3SAPS  C218  341   3.183   6.447   9.215  0.4045  0.7778  0.2149
    3SAPS  H18R  342   3.244   6.445   9.308  0.5345  0.7301  0.1292
    3SAPS  H18S  343   3.166   6.554   9.188 -1.5629  0.2829 -0.5119
    3SAPS  C219  344   3.266   6.387   9.107 -0.2528 -0.2996 -0.0585
    3SAPS  H19R  345   3.315   6.297   9.151 -0.5232  0.2624  1.4262
    3SAPS  H19S  346   3.355   6.448   9.080  0.0495 -0.0786  1.3837
    3SAPS  C220  347   3.197   6.352   8.981 -0.5949  0.6951  0.3573
    3SAPS  H20R  348   3.261   6.319   8.896  0.1204  2.4068  0.2132
    3SAPS  H20S  349   3.129   6.429   8.939 -0.5834  0.3489 -0.3106
    3SAPS  H20T  350   3.138   6.258   8.993 -0.1753  0.2795 -0.7966
    3SAPS   C33  351   3.310   5.318  10.037  0.6307 -0.5840 -0.4629
    3SAPS   H3X  352   3.292   5.422  10.072  0.9746 -1.3478  2.0803
    3SAPS   H3Y  353   3.209   5.273  10.028  0.3348  0.1014 -0.6388
    3SAPS   C34  354   3.382   5.336   9.904 -0.3858 -0.1579 -0.3564
    3SAPS   H4X  355   3.492   5.331   9.911 -0.3516  0.6204 -0.2035
    3SAPS   H4Y  356   3.356   5.438   9.867  2.5021  1.0368  0.7591
    3SAPS   C35  357   3.334   5.228   9.793 -0.3512 -0.1884  0.1667
    3SAPS   H5X  358   3.223   5.236   9.792 -0.3866 -0.4509  1.2720
    3SAPS   H5Y  359   3.367   5.133   9.841 -0.0320  0.3197  0.9641
    3SAPS   C36  360   3.390   5.245   9.647 -0.0961 -0.5466 -0.2355
    3SAPS   H6X  361   3.499   5.224   9.643 -0.0243  0.0764 -1.9007
    3SAPS   H6Y  362   3.369   5.350   9.618  0.3284 -0.3249  0.2475
    3SAPS   C37  363   3.311   5.158   9.543  0.0011  0.0586 -0.3063
    3SAPS   H7X  364   3.203   5.182   9.533 -0.1629 -0.5033  0.1332
    3SAPS   H7Y  365   3.328   5.066   9.602 -1.2876  1.1254  1.7570
    3SAPS   C38  366   3.394   5.161   9.408  0.3127 -0.0558 -0.1110
    3SAPS   H8X  367   3.496   5.126   9.433  0.3120  1.0030  1.4555
    3SAPS   H8Y  368   3.397   5.265   9.368 -1.6691  0.3840  0.8091
    3SAPS   C39  369   3.346   5.062   9.295  0.4070 -0.2588 -0.0785
    3SAPS   H9X  370   3.243   5.083   9.258  1.3412  0.1735 -2.5251
    3SAPS   H9Y  371   3.344   4.959   9.336  1.2609 -0.5662 -0.7863
    3SAPS  C310  372   3.436   5.049   9.171  0.7438  0.0316 -0.3773
    3SAPS  H10X  373   3.384   4.991   9.092 -0.3296  1.4183 -0.7134
    3SAPS  H10Y  374   3.538   5.014   9.195 -0.2206 -1.7926  1.2600
    3SAPS  C311  375   3.469   5.187   9.107 -0.9033  0.5688  0.0608
    3SAPS  H11X  376   3.536   5.246   9.172  0.6209 -1.2625  0.2162
    3SAPS  H11Y  377   3.374   5.243   9.093 -1.6332 -1.4388 -4.0016
    3SAPS  C312  378   3.528   5.181   8.965 -0.1370 -0.6183  0.3092
    3SAPS  H12X  379   3.452   5.124   8.909  0.2455 -1.6446  0.8267
    3SAPS  H12Y  380   3.623   5.124   8.975  1.1432  1.3583 -0.1093
    3SAPS  C313  381   3.543   5.319   8.901 -0.5221  0.1349  0.6750
    3SAPS  H13X  382   3.607   5.382   8.967  1.2391 -0.3654 -0.5085
    3SAPS  H13Y  383   3.441   5.362   8.893 -1.0869 -1.4653 -0.9865
    3SAPS  C314  384   3.599   5.301   8.764  0.6858  0.1550  0.3787
    3SAPS  H14X  385   3.537   5.233   8.702 -0.2001  0.9729  0.3541
    3SAPS  H14Y  386   3.704   5.266   8.772  2.4207  4.6069 -1.0764
    3SAPS  C315  387   3.621   5.434   8.683  0.4420  0.4009  0.8562
    3SAPS  H15X  388   3.615   5.393   8.579  2.4611 -1.0637  1.2789
    3SAPS  H15Y  389   3.716   5.486   8.709  0.2163  0.5563  1.3626
    3SAPS  C316  390   3.506   5.532   8.673  0.8140 -0.1348 -0.5848
    3SAPS  H16X  391   3.499   5.590   8.768  1.5684 -0.1315 -0.5247
    3SAPS  H16Y  392   3.414   5.471   8.663  0.3955  0.7587 -2.2955
    3SAPS  C317  393   3.497   5.626   8.557  0.3462 -0.5953 -0.3278
    3SAPS  H17X  394   3.399   5.680   8.562  1.9632  2.5051 -0.8489
    3SAPS  H17Y  395   3.514   5.576   8.459  0.6791 -0.0647 -0.5411
    3SAPS  C318  396   3.602   5.740   8.567 -0.4922  0.4407 -0.0086
    3SAPS  H18X  397   3.628   5.775   8.669 -1.5563 -0.3917  0.5587
    3SAPS  H18Y  398   3.572   5.832   8.512  1.0843 -0.1888 -1.9427
    3SAPS  H18Z  399   3.702   5.709   8.532  0.1157  4.8733 -2.6331
    4SAPS     N  400   5.989   5.328  11.005 -0.8489 -0.2089 -0.3776
    4SAPS   HN1  401   5.999   5.287  11.100 -0.8283  2.8337  1.0111
    4SAPS   HN2  402   5.899   5.305  10.959 -0.6569 -0.5388 -0.5896
    4SAPS   HN3  403   6.051   5.302  10.926 -0.6303 -1.3309  0.1675
    4SAPS   C12  404   5.984   5.472  11.024  0.4128 -0.4291 -0.0757
    4SAPS  H12A  405   5.888   5.497  11.066  0.9669  1.2249  0.2049
    4SAPS   C13  406   6.084   5.527  11.126  0.0659  0.1205  0.1153
    4SAPS  O13A  407   6.163   5.440  11.182 -0.4289  0.8147  0.7490
    4SAPS  O13B  408   6.087   5.649  11.153  0.0367  0.3344 -0.0045
    4SAPS   C11  409   6.006   5.549  10.887  0.5300  0.9699  0.1820
    4SAPS  H11A  410   5.993   5.658  10.905  4.1253  1.5361 -0.2277
    4SAPS  H11B  411   5.927   5.517  10.815 -0.0210  1.1779  0.6972
    4SAPS     P  412   6.179   5.428  10.731  0.1763  0.1235 -0.0561
    4SAPS   O13  413   6.327   5.412  10.731 -0.6449  0.1963 -0.2319
    4SAPS   O14  414   6.116   5.305  10.771  0.1228 -0.2667 -0.4466
    4SAPS   O12  415   6.139   5.535  10.838  0.0370  0.2195 -0.1840
    4SAPS   O11  416   6.124   5.479  10.592  0.0985  0.2928  0.1798
    4SAPS    C1  417   6.154   5.613  10.558 -0.0751  0.1910  0.8210
    4SAPS    HA  418   6.161   5.686  10.642  0.3359  1.3192 -0.1760
    4SAPS    HB  419   6.252   5.613  10.507  1.2233 -1.0265  3.2456
    4SAPS    C2  420   6.040   5.670  10.462 -0.9497  0.2894 -0.2365
    4SAPS    HS  421   5.946   5.683  10.519 -0.5243  1.8660  0.1343
    4SAPS   O21  422   6.030   5.587  10.344 -0.1701 -0.0171 -0.2131
    4SAPS   C21  423   5.902   5.562  10.308 -0.0554 -0.3142 -0.1781
    4SAPS   O22  424   5.795   5.594  10.361  0.4922 -0.4313  0.4158
    4SAPS   C22  425   5.909   5.501  10.168 -0.1985  0.3330 -0.2810
    4SAPS   H2R  426   5.908   5.591  10.102  0.1268 -1.2704 -2.5430
    4SAPS   H2S  427   6.003   5.442  10.162 -0.9837 -1.1006  1.2501
    4SAPS    C3  428   6.072   5.820  10.419  0.2611  0.1935  0.5893
    4SAPS    HX  429   6.157   5.822  10.347 -0.6467  0.5889 -0.4804
    4SAPS    HY  430   6.100   5.887  10.503 -0.0335  1.4844 -0.3293
    4SAPS   O31  431   5.962   5.878  10.349 -0.2958 -0.2428  0.0312
    4SAPS   C31  432   5.873   5.944  10.418  0.0830 -0.1487 -0.8076
    4SAPS   O32  433   5.853   5.940  10.543 -0.3479  0.2884 -0.0012
    4SAPS   C32  434   5.776   6.017  10.330  0.4071 -0.7536 -0.4302
    4SAPS   H2X  435   5.823   6.116  10.313 -1.0173 -0.0739 -0.5286
    4SAPS   H2Y  436   5.682   6.032  10.388  0.5006  2.9849 -1.1343
    4SAPS   C23  437   5.788   5.406  10.143 -0.0482  0.0177 -0.1386
    4SAPS   H3R  438   5.695   5.466  10.150  0.3652  0.5258  1.3056
    4SAPS   H3S  439   5.777   5.323  10.216 -0.5191 -0.6690 -0.9897
    4SAPS   C24  440   5.803   5.363   9.993 -0.1367  0.7823  0.2467
    4SAPS   H4R  441   5.827   5.459   9.942  0.0469  1.2382  1.1624
    4SAPS   H4S  442   5.709   5.329   9.945  0.0768  2.1123 -1.1636
    4SAPS   C25  443   5.912   5.257   9.972 -0.5690 -0.3917 -0.2524
    4SAPS   H5R  444   5.906   5.187  10.057 -2.1478 -0.1385 -0.1354
    4SAPS   C26  445   6.004   5.257   9.871 -0.0422 -0.0375  0.0787
    4SAPS   H6R  446   6.083   5.182   9.884 -1.4747 -1.3947  1.1602
    4SAPS   C27  447   6.002   5.369   9.769 -0.0440  0.4200 -0.0536
    4SAPS   H7R  448   5.956   5.466   9.799  0.4061  0.2124  1.3414
    4SAPS   H7S  449   5.937   5.334   9.686  2.7318 -1.4686 -1.5178
    4SAPS   C28  450   6.149   5.382   9.724 -0.1166  0.6138 -0.4621
    4SAPS   H8R  451   6.222   5.419   9.798  0.6871 -1.3980 -0.2154
    4SAPS   C29  452   6.197   5.342   9.605  0.3913 -0.6919  1.0124
    4SAPS   H9R  453   6.301   5.372   9.584  0.1438  1.7835  3.0988
    4SAPS  C210  454   6.124   5.282   9.483  0.0612 -0.5276  0.1045
    4SAPS  H10R  455   6.076   5.371   9.438  1.3459  0.2879  0.3069
    4SAPS  H10S  456   6.055   5.207   9.526 -0.5176  0.3551  0.7250
    4SAPS  C211  457   6.208   5.210   9.382 -0.5571  0.2385  0.7265
    4SAPS  H11R  458   6.179   5.104   9.377  2.1869 -0.5066  0.2764
    4SAPS  C212  459   6.283   5.246   9.279 -0.0722  0.1318 -0.3722
    4SAPS  H12R  460   6.335   5.175   9.213  1.4200  1.3757 -0.5668
    4SAPS  C213  461   6.327   5.386   9.243  0.1483  0.7481 -0.4821
    4SAPS  H13R  462   6.432   5.398   9.278 -0.1467 -1.1391  1.1511
    4SAPS  H13S  463   6.266   5.466   9.291  2.4580  1.2593  1.6978
    4SAPS  C214  464   6.333   5.415   9.096  0.1976  0.3149  0.3014
    4SAPS  H14R  465   6.430   5.414   9.043  0.0735 -1.2586  0.0616
    4SAPS  C215  466   6.234   5.457   9.020  0.0346  0.1864  0.2838
    4SAPS  H15R  467   6.250   5.472   8.912  0.9473  1.6256  0.6056
    4SAPS  C216  468   6.093   5.483   9.074  0.1686  0.3196 -0.2794
    4SAPS  H16R  469   6.106   5.559   9.154  0.4252 -0.6768  0.6422
    4SAPS  H16S  470   6.069   5.391   9.132  2.2883 -1.1856 -1.7053
    4SAPS  C217  471   5.977   5.520   8.992  0.7700  0.3985  0.0398
    4SAPS  H17R  472   5.882   5.497   9.045  0.9861 -1.8025 -0.4893
    4SAPS  H17S  473   5.981   5.451   8.905  0.5747 -0.5025  0.7504
    4SAPS  C218  474   5.975   5.659   8.936 -0.2833 -0.8088  0.5287
    4SAPS  H18R  475   6.076   5.705   8.928 -1.1839  0.7904 -2.1513
    4SAPS  H18S  476   5.918   5.721   9.009  1.0915 -0.1194  1.0288
    4SAPS  C219  477   5.889   5.665   8.814  0.4836  0.7264  0.9100
    4SAPS  H19R  478   5.788   5.623   8.832  0.1414  0.7258 -0.8837
    4SAPS  H19S  479   5.937   5.597   8.740  0.8036 -1.8860  3.4355
    4SAPS  C220  480   5.879   5.803   8.746  0.5524  0.3302  0.2058
    4SAPS  H20R  481   5.869   5.886   8.820 -0.8545  0.7537 -0.4558
    4SAPS  H20S  482   5.797   5.817   8.673  1.2608  0.1137 -0.6329
    4SAPS  H20T  483   5.966   5.833   8.684 -0.6284  0.3803 -1.4545
    4SAPS   C33  484   5.741   5.943  10.198  0.3321  0.0756 -0.2080
    4SAPS   H3X  485   5.720   5.835  10.213 -1.5927  0.5498  0.7359
    4SAPS   H3Y  486   5.824   5.949  10.125  0.7769  0.0992  0.2946
    4SAPS   C34  487   5.623   6.006  10.127 -0.2872  0.1770 -0.5600
    4SAPS   H4X  488   5.534   5.992  10.192  1.4795 -1.0793  1.6561
    4SAPS   H4Y  489   5.611   5.956  10.029 -1.2496 -0.8583  0.0729
    4SAPS   C35  490   5.636   6.154  10.083  0.1096  0.0580  0.1467
    4SAPS   H5X  491   5.742   6.179  10.061 -0.3171  1.6353 -0.1889
    4SAPS   H5Y  492   5.634   6.214  10.177 -1.8569  1.1393 -0.5577
    4SAPS   C36  493   5.550   6.209   9.968 -0.0319 -0.0948  0.1966
    4SAPS   H6X  494   5.567   6.319   9.962  0.4351 -0.1672  0.1558
    4SAPS   H6Y  495   5.443   6.190   9.989 -0.4310  0.5622 -1.1513
    4SAPS   C37  496   5.597   6.150   9.825 -0.5140  0.2684 -0.2209
    4SAPS   H7X  497   5.634   6.046   9.836 -0.5590  0.2357 -0.3874
    4SAPS   H7Y  498   5.678   6.210   9.778  0.5159  0.8280  2.1451
    4SAPS   C38  499   5.481   6.135   9.729  0.4418  0.4151 -0.2275
    4SAPS   H8X  500   5.388   6.191   9.753 -0.0390 -0.4257 -0.1295
    4SAPS   H8Y  501   5.450   6.029   9.739 -1.7640  0.8556 -2.1972
    4SAPS   C39  502   5.516   6.165   9.587  0.4841  0.5508  0.3972
    4SAPS   H9X  503   5.614   6.120   9.557 -0.4390  1.0326 -3.7389
    4SAPS   H9Y  504   5.527   6.273   9.563  0.4326  0.4395 -0.1399
    4SAPS  C310  505   5.401   6.131   9.487 -0.5262  0.1678 -0.7278
    4SAPS  H10X  506   5.318   6.199   9.514  0.0148  0.0472  1.3696
    4SAPS  H10Y  507   5.373   6.026   9.508 -0.5758  0.3354  0.0817
    4SAPS  C311  508   5.447   6.149   9.343 -0.1531  0.0605  0.6080
    4SAPS  H11X  509   5.503   6.058   9.314  0.3094  0.7292 -0.6642
    4SAPS  H11Y  510   5.521   6.232   9.334 -1.5056  1.1763 -0.3793
    4SAPS  C312  511   5.329   6.178   9.247 -0.3869  0.1640  0.6326
    4SAPS  H12X  512   5.302   6.285   9.263  2.2412  1.2718 -1.9015
    4SAPS  H12Y  513   5.239   6.115   9.263 -0.6746  0.0763 -1.2331
    4SAPS  C313  514   5.379   6.169   9.102  0.0192 -0.4034  0.1687
    4SAPS  H13X  515   5.404   6.062   9.086  0.7632 -0.3343  0.8522
    4SAPS  H13Y  516   5.475   6.226   9.096  1.8766 -3.2777  1.5656
    4SAPS  C314  517   5.277   6.228   8.995  0.4603  0.8840 -1.0412
    4SAPS  H14X  518   5.258   6.333   9.026  0.9471  0.7750 -0.3586
    4SAPS  H14Y  519   5.175   6.183   8.994  0.4144  0.9928 -2.1467
    4SAPS  C315  520   5.341   6.222   8.863 -0.5827 -0.5383 -0.1591
    4SAPS  H15X  521   5.391   6.125   8.846 -0.5427 -0.5720  0.1477
    4SAPS  H15Y  522   5.425   6.295   8.850 -0.0019 -1.0602  0.6391
    4SAPS  C316  523   5.241   6.244   8.751 -0.1300  0.3649  0.1794
    4SAPS  H16X  524   5.154   6.174   8.753  0.4980 -0.4195 -0.0262
    4SAPS  H16Y  525   5.288   6.221   8.654 -0.1785 -1.3017  0.5337
    4SAPS  C317  526   5.191   6.386   8.750  0.1267  0.6858  0.1938
    4SAPS  H17X  527   5.272   6.462   8.743  2.0837 -1.1386  2.3354
    4SAPS  H17Y  528   5.144   6.401   8.850 -1.7722 -2.6970 -0.1239
    4SAPS  C318  529   5.096   6.413   8.639  0.3830  0.0635  0.1133
    4SAPS  H18X  530   5.076   6.522   8.648  2.5840  0.5904 -0.9147
    4SAPS  H18Y  531   5.001   6.356   8.649  0.8195 -0.6199  0.3633
    4SAPS  H18Z  532   5.130   6.400   8.534  1.4107  2.0398  0.1680
    5SAPS     N  533   2.806   5.348  11.036  0.6772  0.5184 -0.6167
    5SAPS   HN1  534   2.738   5.377  10.963  2.7243  2.6312 -1.7528
    5SAPS   HN2  535   2.899   5.361  10.992  2.1687 -2.4055  1.5052
    5SAPS   HN3  536   2.783   5.250  11.059  1.2107  0.2510 -1.2143
    5SAPS   C12  537   2.803   5.446  11.144  0.4579 -0.2222 -0.0183
    5SAPS  H12A  538   2.703   5.448  11.186  0.1834  2.4121 -0.7320
    5SAPS   C13  539   2.908   5.422  11.252  0.0184  0.4552  0.9407
    5SAPS  O13A  540   2.995   5.329  11.242 -0.3430 -0.9909 -0.2719
    5SAPS  O13B  541   2.910   5.500  11.354 -0.3813  0.5259  0.0266
    5SAPS   C11  542   2.822   5.580  11.083  0.1696  0.5078 -0.2665
    5SAPS  H11A  543   2.928   5.586  11.053  0.1499 -0.4679 -0.5311
    5SAPS  H11B  544   2.803   5.657  11.161  0.4200  0.8370 -0.5287
    5SAPS     P  545   2.731   5.731  10.890  0.1370  0.1001  0.0453
    5SAPS   O13  546   2.630   5.726  10.784 -0.3583  0.2081 -0.3896
    5SAPS   O14  547   2.738   5.847  10.978  0.0481 -0.6259  0.4725
    5SAPS   O12  548   2.733   5.598  10.977  0.6263 -0.0167  0.5362
    5SAPS   O11  549   2.874   5.727  10.817 -0.4498 -0.0981 -0.1451
    5SAPS    C1  550   2.922   5.604  10.751  0.2737 -0.5560  0.3001
    5SAPS    HA  551   3.013   5.570  10.805 -0.1894 -0.9881  0.8220
    5SAPS    HB  552   2.850   5.519  10.752 -0.0835 -0.2460  1.3656
    5SAPS    C2  553   2.967   5.629  10.600  0.3890  0.1877 -0.5107
    5SAPS    HS  554   3.039   5.713  10.611  1.1704 -0.2302 -2.1733
    5SAPS   O21  555   2.853   5.665  10.520  0.2803  0.1645 -0.1465
    5SAPS   C21  556   2.834   5.800  10.513  0.6766 -0.1643  0.1359
    5SAPS   O22  557   2.898   5.889  10.563  0.0853  0.1108 -0.0201
    5SAPS   C22  558   2.697   5.827  10.438 -0.1149  1.3425 -0.6701
    5SAPS   H2R  559   2.697   5.769  10.342 -3.4950 -0.0742  0.1058
    5SAPS   H2S  560   2.617   5.787  10.504 -1.0929  2.6400 -1.0515
    5SAPS    C3  561   3.052   5.512  10.535  0.0426  0.2753  0.3726
    5SAPS    HX  562   3.002   5.419  10.570 -0.1680 -0.2650 -1.2930
    5SAPS    HY  563   3.154   5.519  10.578 -0.0981  0.9723  0.6108
    5SAPS   O31  564   3.065   5.527  10.391 -0.0079  0.7562  0.3403
    5SAPS   C31  565   2.974   5.466  10.314 -0.3387  0.0991 -0.2975
    5SAPS   O32  566   2.875   5.404  10.344 -0.6182  0.3622 -0.4102
    5SAPS   C32  567   3.022   5.490  10.165  0.3551  0.1920  0.7602
    5SAPS   H2X  568   2.995   5.396  10.113  0.7003  0.5642 -0.0907
    5SAPS   H2Y  569   3.131   5.510  10.170 -0.0348  2.0297  2.8451
    5SAPS   C23  570   2.662   5.970  10.421 -0.7795 -0.9657  0.2957
    5SAPS   H3R  571   2.696   6.028  10.510 -0.5366 -0.4480 -0.1322
    5SAPS   H3S  572   2.551   5.975  10.420 -0.7433  0.0060  0.7321
    5SAPS   C24  573   2.748   6.032  10.303 -1.0729  0.3324  0.0142
    5SAPS   H4R  574   2.703   5.989  10.211  2.7302 -2.6145 -0.5800
    5SAPS   H4S  575   2.847   5.982  10.303 -0.4613  1.4734  2.5658
    5SAPS   C25  576   2.773   6.180  10.311 -0.0617  0.2055  0.0119
    5SAPS   H5R  577   2.814   6.220  10.404  2.8255  1.1648 -1.6207
    5SAPS   C26  578   2.750   6.278  10.222  0.0366 -0.0062  0.4772
    5SAPS   H6R  579   2.788   6.379  10.243  0.7020 -0.3179  0.7856
    5SAPS   C27  580   2.686   6.275  10.085  0.0481 -0.1474 -0.3427
    5SAPS   H7R  581   2.678   6.381  10.052  0.4237 -0.2363 -0.7262
    5SAPS   H7S  582   2.583   6.235  10.097  0.9058 -1.6611  2.3619
    5SAPS   C28  583   2.760   6.192   9.986 -1.1661 -0.8796  0.0249
    5SAPS   H8R  584   2.842   6.122  10.008  0.7546  1.1942 -0.4144
    5SAPS   C29  585   2.724   6.188   9.859 -0.0144  0.1291 -0.1380
    5SAPS   H9R  586   2.791   6.133   9.792 -1.3364 -2.1298  0.3321
    5SAPS  C210  587   2.615   6.267   9.788 -0.3822  0.3776  1.0304
    5SAPS  H10R  588   2.570   6.346   9.852  0.9873  1.3672  0.7795
    5SAPS  H10S  589   2.530   6.198   9.768  0.0800  0.3293 -0.8217
    5SAPS  C211  590   2.651   6.335   9.651 -0.3192 -0.2546  0.5403
    5SAPS  H11R  591   2.755   6.369   9.646 -0.4326  0.0490  0.1824
    5SAPS  C212  592   2.568   6.357   9.545 -0.1561  0.0836  0.2100
    5SAPS  H12R  593   2.610   6.394   9.451 -0.8121 -0.4932 -0.3154
    5SAPS  C213  594   2.421   6.332   9.544 -0.7135  0.2288  0.8179
    5SAPS  H13R  595   2.386   6.312   9.648 -1.5103 -4.0162 -0.1928
    5SAPS  H13S  596   2.411   6.240   9.483 -0.4104  1.0305 -0.4739
    5SAPS  C214  597   2.337   6.434   9.474  0.0648  0.7155 -0.1127
    5SAPS  H14R  598   2.283   6.497   9.547  2.2380 -0.9586  3.0331
    5SAPS  C215  599   2.330   6.461   9.341 -0.3021  0.3584  0.8972
    5SAPS  H15R  600   2.251   6.530   9.308 -0.5617 -1.1650 -1.7783
    5SAPS  C216  601   2.404   6.384   9.233 -0.5907 -0.2353 -0.5905
    5SAPS  H16R  602   2.332   6.357   9.153 -0.1650  1.4167 -1.5697
    5SAPS  H16S  603   2.454   6.291   9.266  1.8876  0.6905 -1.5523
    5SAPS  C217  604   2.514   6.469   9.173  0.2140 -0.0933  0.0998
    5SAPS  H17R  605   2.574   6.545   9.229  0.0554  0.3523 -0.3288
    5SAPS  H17S  606   2.473   6.521   9.084  0.2154 -1.4983 -0.7256
    5SAPS  C218  607   2.609   6.368   9.104  0.6737  0.1617 -0.4392
    5SAPS  H18R  608   2.684   6.340   9.182 -1.4412 -0.6484  1.3441
    5SAPS  H18S  609   2.545   6.283   9.072 -1.5092  0.9920  1.5966
    5SAPS  C219  610   2.685   6.422   8.975  0.2227 -0.0611 -0.0815
    5SAPS  H19R  611   2.757   6.497   9.016  1.8658 -1.3526 -0.5489
    5SAPS  H19S  612   2.625   6.468   8.894  1.3468 -0.3411 -1.0867
    5SAPS  C220  613   2.779   6.318   8.913 -0.8218 -0.2707 -1.1843
    5SAPS  H20R  614   2.835   6.264   8.993  0.6743  1.9892 -0.6522
    5SAPS  H20S  615   2.855   6.357   8.841 -2.0379  3.5930 -0.4739
    5SAPS  H20T  616   2.736   6.239   8.848  0.0829 -1.8052  0.0326
    5SAPS   C33  617   2.949   5.610  10.096 -0.6598 -0.7508  0.2223
    5SAPS   H3X  618   2.998   5.706  10.123 -1.0546 -0.4752 -0.0471
    5SAPS   H3Y  619   2.843   5.618  10.127 -0.8358 -0.6825 -0.3930
    5SAPS   C34  620   2.946   5.601   9.939  0.4363 -0.3999 -0.1426
    5SAPS   H4X  621   2.915   5.699   9.897  2.6120  0.8419  1.1064
    5SAPS   H4Y  622   2.868   5.526   9.912 -0.8103  1.1036 -0.8494
    5SAPS   C35  623   3.071   5.549   9.864 -0.6208 -0.6238 -0.1378
    5SAPS   H5X  624   3.102   5.454   9.911 -0.7096 -1.0883 -0.9935
    5SAPS   H5Y  625   3.151   5.626   9.857 -1.8228  0.7163  0.5411
    5SAPS   C36  626   3.036   5.534   9.712 -0.4372  0.0124  0.0113
    5SAPS   H6X  627   2.928   5.514   9.691  0.1892 -0.1602 -3.2574
    5SAPS   H6Y  628   3.090   5.442   9.681  0.6507  0.6124  0.1165
    5SAPS   C37  629   3.103   5.632   9.611 -0.4876 -0.2075  0.3186
    5SAPS   H7X  630   3.211   5.617   9.636 -0.5947 -1.7729 -0.0729
    5SAPS   H7Y  631   3.058   5.731   9.633 -0.2350 -0.7797  3.7628
    5SAPS   C38  632   3.083   5.595   9.464 -0.0422 -0.4257  0.8162
    5SAPS   H8X  633   2.975   5.576   9.447  0.0660 -4.1421  3.5951
    5SAPS   H8Y  634   3.136   5.498   9.451 -1.1583 -0.7496 -1.5614
    5SAPS   C39  635   3.124   5.701   9.358 -0.3105  0.5872 -0.2673
    5SAPS   H9X  636   3.208   5.760   9.402  0.4354 -1.4637  1.1262
    5SAPS   H9Y  637   3.047   5.780   9.345  2.3615  3.5397  0.8350
    5SAPS  C310  638   3.172   5.647   9.225  0.2093 -0.1140 -0.2545
    5SAPS  H10X  639   3.202   5.720   9.147 -0.9683  1.3642  0.6473
    5SAPS  H10Y  640   3.081   5.599   9.182 -1.2101 -0.2742  2.8152
    5SAPS  C311  641   3.289   5.544   9.243 -0.1114 -0.1678 -0.3505
    5SAPS  H11X  642   3.322   5.507   9.143 -1.9102  0.5686 -1.2406
    5SAPS  H11Y  643   3.264   5.448   9.292 -0.5192  0.4124  0.5990
    5SAPS  C312  644   3.423   5.593   9.316 -0.5095  1.2273 -0.1935
    5SAPS  H12X  645   3.433   5.575   9.425  0.2021 -1.6601 -0.6949
    5SAPS  H12Y  646   3.418   5.703   9.305 -3.9140  1.1161 -0.2097
    5SAPS  C313  647   3.547   5.562   9.226 -0.5836 -0.0091 -0.2363
    5SAPS  H13X  648   3.546   5.628   9.137 -2.5183  0.3488  0.0124
    5SAPS  H13Y  649   3.536   5.457   9.191  0.2983 -0.0712 -0.3316
    5SAPS  C314  650   3.680   5.574   9.294  0.1821 -0.1106  0.2118
    5SAPS  H14X  651   3.758   5.538   9.223  0.0279 -0.0860  0.0277
    5SAPS  H14Y  652   3.676   5.510   9.384  1.2490 -0.5937 -0.0662
    5SAPS  C315  653   3.708   5.716   9.341 -0.9528  0.0509 -0.3554
    5SAPS  H15X  654   3.612   5.751   9.386 -1.2402  2.6346 -2.8279
    5SAPS  H15Y  655   3.738   5.780   9.256  2.4201 -0.0846  0.6496
    5SAPS  C316  656   3.841   5.719   9.427 -0.2119  0.5562  0.1113
    5SAPS  H16X  657   3.871   5.826   9.435  0.1562  0.5760 -1.3409
    5SAPS  H16Y  658   3.923   5.660   9.380 -1.3635 -0.0122 -1.1978
    5SAPS  C317  659   3.816   5.648   9.554 -0.6219 -0.1854 -0.0505
    5SAPS  H17X  660   3.792   5.540   9.538 -2.0109 -0.2408  2.2168
    5SAPS  H17Y  661   3.724   5.679   9.606 -0.7975 -1.3049  0.3183
    5SAPS  C318  662   3.941   5.656   9.641  0.1470  0.1083  0.4037
    5SAPS  H18X  663   4.034   5.618   9.593 -0.6033 -0.0558 -0.9425
    5SAPS  H18Y  664   3.936   5.587   9.728 -1.2933 -0.5218 -0.1704
    5SAPS  H18Z  665   3.965   5.759   9.676 -1.6736  1.3194 -1.7408
    6SAPS     N  666   2.555   5.096  10.857  0.0832 -0.4909 -0.1551
    6SAPS   HN1  667   2.517   5.104  10.953 -2.1642  0.7868 -1.1186
    6SAPS   HN2  668   2.586   5.192  10.830  0.5422 -0.1773  1.4107
    6SAPS   HN3  669   2.472   5.073  10.800  0.0406 -3.1595  0.9020
    6SAPS   C12  670   2.659   4.986  10.853 -0.2162 -0.0615 -0.7159
    6SAPS  H12A  671   2.718   4.999  10.764 -1.5670  0.2145 -1.5904
    6SAPS   C13  672   2.765   4.995  10.972 -0.2853  0.8865 -0.3944
    6SAPS  O13A  673   2.765   5.088  11.057  0.0108 -0.0374  0.0984
    6SAPS  O13B  674   2.849   4.902  10.982 -0.2263 -0.1014 -0.0357
    6SAPS   C11  675   2.585   4.854  10.859 -0.1655 -0.2820 -0.4980
    6SAPS  H11A  676   2.531   4.857  10.957 -1.5226 -2.0069 -1.1734
    6SAPS  H11B  677   2.651   4.766  10.868  0.7893  0.4970  0.2482
    6SAPS     P  678   2.371   4.759  10.771  0.1443 -0.0031 -0.2290
    6SAPS   O13  679   2.304   4.813  10.894  0.5083 -0.0431  0.4275
    6SAPS   O14  680   2.290   4.760  10.646 -0.3134 -0.1454 -0.4657
    6SAPS   O12  681   2.499   4.843  10.747 -0.5554 -0.3221  0.3394
    6SAPS   O11  682   2.430   4.614  10.814 -0.2116 -0.2284 -0.0192
    6SAPS    C1  683   2.543   4.559  10.736 -0.3947 -0.6334 -0.5659
    6SAPS    HA  684   2.599   4.631  10.672  0.2324 -0.1107  0.5508
    6SAPS    HB  685   2.617   4.519  10.808 -0.6406  1.5224  0.9604
    6SAPS    C2  686   2.501   4.443  10.645  0.6279 -0.4121 -0.4852
    6SAPS    HS  687   2.585   4.399  10.586  2.1687  2.7252 -0.7481
    6SAPS   O21  688   2.404   4.483  10.539  0.6056  0.1287  0.1698
    6SAPS   C21  689   2.451   4.563  10.454 -0.9939  0.0468 -0.2011
    6SAPS   O22  690   2.568   4.586  10.433 -0.7890 -0.6213  0.1040
    6SAPS   C22  691   2.342   4.624  10.376  0.1904  0.2907  0.2867
    6SAPS   H2R  692   2.331   4.551  10.293  2.5822  0.9713 -0.6723
    6SAPS   H2S  693   2.245   4.626  10.431  0.5109 -1.6344  0.9494
    6SAPS    C3  694   2.437   4.334  10.732  0.9998  0.9411  0.8359
    6SAPS    HX  695   2.363   4.396  10.786 -2.5695 -0.5221 -2.1324
    6SAPS    HY  696   2.514   4.303  10.806  0.8903  0.1743  0.6302
    6SAPS   O31  697   2.388   4.225  10.645  0.0087  0.0383  0.4465
    6SAPS   C31  698   2.256   4.240  10.618  0.0752  0.4676  0.4228
    6SAPS   O32  699   2.182   4.321  10.667 -0.4245 -0.2556  0.0973
    6SAPS   C32  700   2.208   4.107  10.554  0.0330  0.0062  0.3863
    6SAPS   H2X  701   2.169   4.046  10.638  0.1982 -0.6486 -0.0087
    6SAPS   H2Y  702   2.287   4.049  10.501 -0.7604  0.1501 -0.9708
    6SAPS   C23  703   2.368   4.762  10.317 -0.2815  0.2679 -0.0710
    6SAPS   H3R  704   2.444   4.758  10.236  0.3767 -3.1745  0.6119
    6SAPS   H3S  705   2.401   4.840  10.388 -1.4583 -1.5665  2.5725
    6SAPS   C24  706   2.244   4.826  10.258  0.3769 -0.0848 -0.4436
    6SAPS   H4R  707   2.273   4.927  10.221 -2.3307  1.1390  0.6424
    6SAPS   H4S  708   2.165   4.835  10.336  2.6820 -0.4093  1.9953
    6SAPS   C25  709   2.198   4.737  10.140 -0.3487  0.5578 -0.4357
    6SAPS   H5R  710   2.159   4.640  10.173 -1.3976  1.5733  1.3634
    6SAPS   C26  711   2.215   4.765  10.009 -0.0827 -1.0481 -0.1519
    6SAPS   H6R  712   2.181   4.699   9.928 -1.2744  0.0906 -0.6114
    6SAPS   C27  713   2.287   4.892   9.954  0.2481 -0.6023  0.3867
    6SAPS   H7R  714   2.251   4.980  10.012 -1.1102 -0.0361 -1.2571
    6SAPS   H7S  715   2.253   4.916   9.851 -0.9826  1.0749  1.1538
    6SAPS   C28  716   2.438   4.883   9.966 -0.5618  0.9452 -0.8794
    6SAPS   H8R  717   2.486   4.912  10.060 -0.2276 -4.0042  0.6188
    6SAPS   C29  718   2.514   4.879   9.855  0.0133 -0.3841  0.2777
    6SAPS   H9R  719   2.623   4.883   9.868  0.2344 -1.9274 -0.8954
    6SAPS  C210  720   2.469   4.863   9.709  0.1966 -0.5862  0.6822
    6SAPS  H10R  721   2.488   4.961   9.660 -1.7357 -0.2756  0.5313
    6SAPS  H10S  722   2.361   4.848   9.692 -0.1449  0.6089  1.7237
    6SAPS  C211  723   2.564   4.767   9.640 -0.4859  0.0564  0.1046
    6SAPS  H11R  724   2.617   4.699   9.708  0.8986  0.4759 -0.5386
    6SAPS  C212  725   2.595   4.748   9.508  0.3501 -0.4415  0.2599
    6SAPS  H12R  726   2.651   4.664   9.463  0.8470  0.1309 -0.2033
    6SAPS  C213  727   2.516   4.822   9.399 -0.1350 -0.5008 -0.0509
    6SAPS  H13R  728   2.460   4.911   9.435  0.4870  0.3738 -1.1932
    6SAPS  H13S  729   2.437   4.754   9.362 -0.9482  0.7638 -0.6482
    6SAPS  C214  730   2.602   4.879   9.293  0.1500 -0.6900 -0.3356
    6SAPS  H14R  731   2.692   4.925   9.336  0.6326 -1.9411  0.0159
    6SAPS  C215  732   2.561   4.909   9.167 -0.0841 -0.1032  0.4985
    6SAPS  H15R  733   2.633   4.963   9.104 -1.2198  2.0320  0.9693
    6SAPS  C216  734   2.427   4.879   9.105  0.3478 -0.1510 -0.4345
    6SAPS  H16R  735   2.425   4.926   9.004  1.4017  0.8722  0.0077
    6SAPS  H16S  736   2.345   4.925   9.164 -0.7423  2.0875 -3.5798
    6SAPS  C217  737   2.409   4.724   9.097 -0.3412  0.1168  0.8850
    6SAPS  H17R  738   2.304   4.709   9.066 -0.5972  2.1188  0.7133
    6SAPS  H17S  739   2.427   4.665   9.190 -1.4260  0.0382  1.0585
    6SAPS  C218  740   2.498   4.657   8.994  0.1762 -0.0956  0.3159
    6SAPS  H18R  741   2.601   4.660   9.034 -0.0478  1.1549  0.8120
    6SAPS  H18S  742   2.494   4.710   8.896 -2.1042  0.4721  0.6804
    6SAPS  C219  743   2.465   4.511   8.977 -0.3048  0.4677 -0.4752
    6SAPS  H19R  744   2.356   4.503   8.963 -0.3090  1.7442 -1.2215
    6SAPS  H19S  745   2.494   4.464   9.073  1.4199 -0.1688 -1.2691
    6SAPS  C220  746   2.547   4.453   8.866 -0.6501  0.3970 -0.8398
    6SAPS  H20R  747   2.543   4.515   8.773  0.7675  1.9292  0.0942
    6SAPS  H20S  748   2.532   4.348   8.835  0.3264 -0.4483  1.4499
    6SAPS  H20T  749   2.653   4.451   8.900 -1.5206  0.4468  2.0359
    6SAPS   C33  750   2.090   4.144  10.465 -0.1586  0.1108  0.0979
    6SAPS   H3X  751   2.006   4.178  10.528  0.3159  1.4218  0.0406
    6SAPS   H3Y  752   2.051   4.052  10.416  0.7640  1.2148 -2.8625
    6SAPS   C34  753   2.126   4.244  10.354  0.2378  0.0949 -0.5230
    6SAPS   H4X  754   2.162   4.336  10.405  0.6627 -1.0425  1.2884
    6SAPS   H4Y  755   2.029   4.256  10.302  0.6849 -0.3738 -1.4650
    6SAPS   C35  756   2.247   4.201  10.264 -0.4726 -0.4722  0.2760
    6SAPS   H5X  757   2.221   4.101  10.221  0.0967 -0.0534 -1.0555
    6SAPS   H5Y  758   2.347   4.205  10.313  0.3021  3.2932 -1.4627
    6SAPS   C36  759   2.259   4.301  10.152 -0.3769  0.7487 -0.4870
    6SAPS   H6X  760   2.251   4.407  10.184  0.7516  0.3768  1.1231
    6SAPS   H6Y  761   2.182   4.277  10.076 -1.7355 -3.7548  2.1403
    6SAPS   C37  762   2.392   4.285  10.082 -0.2744  0.0506 -0.5299
    6SAPS   H7X  763   2.421   4.178  10.081 -1.2120 -0.2157  0.2628
    6SAPS   H7Y  764   2.479   4.315  10.145 -0.5209 -1.7651  0.7035
    6SAPS   C38  765   2.397   4.326   9.931  0.4504  0.8178  0.0758
    6SAPS   H8X  766   2.342   4.248   9.873 -2.9852  2.2298  1.2984
    6SAPS   H8Y  767   2.503   4.320   9.897 -0.6637 -0.8890 -3.4156
    6SAPS   C39  768   2.326   4.457   9.883  0.4991 -0.4279 -0.4919
    6SAPS   H9X  769   2.372   4.532   9.951  0.1600 -0.1505 -0.5700
    6SAPS   H9Y  770   2.218   4.447   9.905  0.8526 -1.2277  0.9808
    6SAPS  C310  771   2.352   4.487   9.741  0.1450 -0.7990  0.5237
    6SAPS  H10X  772   2.458   4.511   9.721  0.3140  1.4665  3.7511
    6SAPS  H10Y  773   2.291   4.574   9.707 -0.4253 -0.9087  1.2469
    6SAPS  C311  774   2.326   4.380   9.637  0.1074 -0.6225 -0.0987
    6SAPS  H11X  775   2.218   4.352   9.638 -0.1965  0.4065 -2.4220
    6SAPS  H11Y  776   2.380   4.289   9.670  1.3002  0.1101  0.0081
    6SAPS  C312  777   2.370   4.425   9.497  0.1511 -0.9893  0.2641
    6SAPS  H12X  778   2.481   4.429   9.486  0.0733 -1.3917 -0.6979
    6SAPS  H12Y  779   2.327   4.527   9.493 -0.1550 -0.9445  3.4844
    6SAPS  C313  780   2.289   4.334   9.402 -0.0542  0.3531  0.5479
    6SAPS  H13X  781   2.246   4.392   9.317 -0.1288 -0.5308 -0.0230
    6SAPS  H13Y  782   2.208   4.282   9.458  1.4499  0.2640  2.7139
    6SAPS  C314  783   2.382   4.228   9.334 -0.7379  0.1981 -0.0839
    6SAPS  H14X  784   2.423   4.168   9.418  0.5078 -2.0779 -2.2290
    6SAPS  H14Y  785   2.460   4.295   9.290 -1.4574  1.4191  0.4673
    6SAPS  C315  786   2.305   4.138   9.235  0.1793  0.2443  0.2179
    6SAPS  H15X  787   2.225   4.194   9.182  1.0768  0.1602 -1.2570
    6SAPS  H15Y  788   2.252   4.064   9.299 -2.1892  0.4829 -1.3954
    6SAPS  C316  789   2.405   4.059   9.142  0.0771 -0.4541 -0.2160
    6SAPS  H16X  790   2.483   4.004   9.199 -2.1447 -2.7750  0.6795
    6SAPS  H16Y  791   2.452   4.142   9.085  0.4729 -1.9192 -2.1112
    6SAPS  C317  792   2.327   3.970   9.048  1.2609  0.1982  0.2153
    6SAPS  H17X  793   2.234   4.009   9.002 -0.7059 -2.2329  1.9332
    6SAPS  H17Y  794   2.294   3.887   9.115 -0.8985  2.0697  1.5514
    6SAPS  C318  795   2.419   3.910   8.945 -0.5796  0.3889  0.3705
    6SAPS  H18X  796   2.493   3.839   8.988 -2.2304 -1.9272 -0.4937
    6SAPS  H18Y  797   2.469   3.999   8.901  1.4668 -0.5370  0.7637
    6SAPS  H18Z  798   2.361   3.854   8.869  0.9871 -1.6860  0.6534
    7SAPS     N  799   4.396   6.446  10.882  0.2146 -0.5516 -0.1234
    7SAPS   HN1  800   4.487   6.401  10.860 -0.2450 -1.3673 -0.3803
    7SAPS   HN2  801   4.392   6.531  10.821  2.8698  0.8115  1.5177
    7SAPS   HN3  802   4.390   6.489  10.976 -5.0190 -0.3521 -0.4235
    7SAPS   C12  803   4.279   6.364  10.858 -0.4793  0.6917 -0.2289
    7SAPS  H12A  804   4.302   6.271  10.907  1.1904  0.5274 -1.2531
    7SAPS   C13  805   4.159   6.423  10.927 -0.6145 -0.3038 -0.4641
    7SAPS  O13A  806   4.170   6.519  11.008  0.1587 -0.1937  0.2129
    7SAPS  O13B  807   4.057   6.343  10.927  0.6051  0.6505  0.3353
    7SAPS   C11  808   4.261   6.338  10.705 -0.1073 -0.2072  0.1421
    7SAPS  H11A  809   4.248   6.436  10.655  0.5065  0.1777  0.7248
    7SAPS  H11B  810   4.169   6.280  10.682 -0.5189  0.9443 -1.2427
    7SAPS     P  811   4.388   6.115  10.652 -0.2668  0.0125  0.3480
    7SAPS   O13  812   4.527   6.076  10.638  0.1049  0.3471  0.8428
    7SAPS   O14  813   4.323   6.077  10.775 -0.4744  0.5652  0.1810
    7SAPS   O12  814   4.377   6.277  10.642 -0.2634 -0.8004  0.1425
    7SAPS   O11  815   4.303   6.058  10.532  0.3154 -0.4814 -0.2185
    7SAPS    C1  816   4.328   6.107  10.397  0.5853 -0.3492  0.7028
    7SAPS    HA  817   4.263   6.194  10.376  3.4923  1.4005 -1.4041
    7SAPS    HB  818   4.431   6.145  10.382  0.9841 -0.9335  1.8557
    7SAPS    C2  819   4.316   5.989  10.285 -0.0760  0.2079 -0.9956
    7SAPS    HS  820   4.387   6.010  10.202 -0.5303 -1.9622 -1.9898
    7SAPS   O21  821   4.173   5.986  10.249 -0.7990 -0.1992  0.4936
    7SAPS   C21  822   4.160   5.934  10.131  0.2814  0.2823  0.2783
    7SAPS   O22  823   4.249   5.916  10.050 -0.5781  0.1851  0.3530
    7SAPS   C22  824   4.012   5.917  10.092 -0.0145 -0.3481 -0.5024
    7SAPS   H2R  825   3.966   5.978  10.173  0.2361  0.9037 -1.3009
    7SAPS   H2S  826   3.990   5.975  10.000  0.6558 -0.0324 -0.4627
    7SAPS    C3  827   4.371   5.853  10.346 -0.5003 -0.7492  0.3877
    7SAPS    HX  828   4.310   5.803  10.424 -1.2447 -0.6156 -0.1040
    7SAPS    HY  829   4.463   5.880  10.403 -1.2587 -0.7933  1.6397
    7SAPS   O31  830   4.417   5.761  10.242 -0.0448 -0.5556 -0.0299
    7SAPS   C31  831   4.341   5.656  10.229  0.7182  0.3019 -0.3522
    7SAPS   O32  832   4.237   5.634  10.290  0.1403  0.2515  0.6423
    7SAPS   C32  833   4.404   5.562  10.133 -0.6499 -0.5472  0.0129
    7SAPS   H2X  834   4.354   5.463  10.143 -2.8812  0.5193 -0.3267
    7SAPS   H2Y  835   4.510   5.536  10.152 -0.8738 -2.3517 -1.0924
    7SAPS   C23  836   3.942   5.787  10.095  0.0918 -0.6551  1.1901
    7SAPS   H3R  837   3.997   5.719  10.164  1.5072 -1.2495 -0.4893
    7SAPS   H3S  838   3.940   5.737   9.996 -0.5844  1.3951  0.1496
    7SAPS   C24  839   3.792   5.781  10.125 -0.3153 -0.0897 -0.0936
    7SAPS   H4R  840   3.737   5.861  10.071 -2.7617 -0.2781  2.0163
    7SAPS   H4S  841   3.776   5.802  10.233  1.0332 -1.6999  0.4390
    7SAPS   C25  842   3.729   5.647  10.104  0.2910  0.0151  0.1050
    7SAPS   H5R  843   3.738   5.583  10.193  0.9390 -0.5138 -0.3396
    7SAPS   C26  844   3.650   5.611  10.006  0.6728  0.2129  0.5329
    7SAPS   H6R  845   3.611   5.508  10.004 -1.2765  0.9171  1.5206
    7SAPS   C27  846   3.619   5.696   9.885  0.3463 -0.5512  0.3208
    7SAPS   H7R  847   3.648   5.637   9.795 -0.5815  0.6901 -0.8123
    7SAPS   H7S  848   3.672   5.793   9.875 -0.3820 -0.1244  0.5675
    7SAPS   C28  849   3.469   5.720   9.873  0.4307  0.2095  0.2153
    7SAPS   H8R  850   3.422   5.699   9.971  3.7495  1.1172  2.0526
    7SAPS   C29  851   3.398   5.767   9.771  0.4761  0.1078 -0.3085
    7SAPS   H9R  852   3.291   5.780   9.790  0.8093 -0.5324  2.1290
    7SAPS  C210  853   3.443   5.802   9.630 -1.0926  0.5134 -0.5337
    7SAPS  H10R  854   3.345   5.826   9.584 -0.8888  0.9760 -0.7358
    7SAPS  H10S  855   3.496   5.709   9.600 -0.1732  0.7701  0.2691
    7SAPS  C211  856   3.538   5.915   9.631  0.1327 -0.1460  0.3805
    7SAPS  H11R  857   3.625   5.896   9.696  0.3590  0.4367  0.2500
    7SAPS  C212  858   3.521   6.045   9.592 -0.6574 -0.0430  0.5426
    7SAPS  H12R  859   3.613   6.105   9.591  0.2924 -1.4711 -0.6881
    7SAPS  C213  860   3.396   6.099   9.525  0.8296 -0.3697  0.0115
    7SAPS  H13R  861   3.335   6.155   9.599  0.9921  1.7820 -1.4472
    7SAPS  H13S  862   3.338   6.017   9.477 -0.6239  0.3982  0.4246
    7SAPS  C214  863   3.447   6.198   9.422 -0.5680  0.7365  0.1062
    7SAPS  H14R  864   3.466   6.302   9.454  1.9653 -0.1906  1.7645
    7SAPS  C215  865   3.488   6.162   9.304  0.1071  0.5936  0.6691
    7SAPS  H15R  866   3.518   6.232   9.225 -1.2465  0.5514  0.0877
    7SAPS  C216  867   3.490   6.016   9.260  0.7835  0.1277 -0.3162
    7SAPS  H16R  868   3.457   5.944   9.337 -0.0437  2.2370  1.3444
    7SAPS  H16S  869   3.596   5.989   9.237  0.5543  0.4690 -1.8400
    7SAPS  C217  870   3.394   5.979   9.144 -0.0227 -0.0977 -0.4912
    7SAPS  H17R  871   3.291   6.019   9.159 -0.2650 -1.4133  1.5743
    7SAPS  H17S  872   3.393   5.868   9.139  1.0456 -0.1632  0.6260
    7SAPS  C218  873   3.452   6.023   9.006 -0.0544 -0.3130  0.4510
    7SAPS  H18R  874   3.556   5.987   8.995  0.3221 -0.3039  3.6006
    7SAPS  H18S  875   3.468   6.132   9.001  1.6088 -0.6766 -3.3478
    7SAPS  C219  876   3.362   5.997   8.892  0.0231  0.2927 -0.1399
    7SAPS  H19R  877   3.404   6.053   8.806  0.2788 -1.2927 -1.0779
    7SAPS  H19S  878   3.264   6.036   8.926  1.4123  1.4896  2.5344
    7SAPS  C220  879   3.358   5.851   8.853 -0.0340 -0.2842 -0.3077
    7SAPS  H20R  880   3.310   5.830   8.755  1.5410  0.8430 -1.3421
    7SAPS  H20S  881   3.306   5.787   8.928  1.0737 -0.3397  0.4313
    7SAPS  H20T  882   3.461   5.813   8.838 -0.2070  0.1331 -2.7578
    7SAPS   C33  883   4.371   5.608   9.989 -0.1894 -0.2610 -0.1448
    7SAPS   H3X  884   4.420   5.705   9.965 -0.4861  0.0152  0.3442
    7SAPS   H3Y  885   4.261   5.623   9.980 -0.1842 -0.3252 -0.3162
    7SAPS   C34  886   4.424   5.509   9.891  0.4031  0.7824  0.0210
    7SAPS   H4X  887   4.375   5.412   9.914 -1.6520  1.4693 -1.3195
    7SAPS   H4Y  888   4.532   5.494   9.910  0.2064  2.3674  2.5570
    7SAPS   C35  889   4.399   5.538   9.741  0.3711  0.4143  0.0273
    7SAPS   H5X  890   4.461   5.622   9.703 -1.1520  1.3904 -0.3039
    7SAPS   H5Y  891   4.293   5.559   9.718  0.5919  1.6972  0.1323
    7SAPS   C36  892   4.437   5.416   9.664  0.4243 -0.2086  0.2401
    7SAPS   H6X  893   4.363   5.336   9.687 -0.4836  0.6329  0.2995
    7SAPS   H6Y  894   4.541   5.386   9.689  0.0630 -0.9681  0.8353
    7SAPS   C37  895   4.428   5.446   9.514  0.2458 -0.0942  1.0719
    7SAPS   H7X  896   4.490   5.533   9.487  1.1254 -1.3096 -0.9017
    7SAPS   H7Y  897   4.324   5.481   9.496  0.7081  0.7046 -0.0528
    7SAPS   C38  898   4.455   5.323   9.429  0.0519 -0.2705  0.0225
    7SAPS   H8X  899   4.371   5.251   9.432 -0.4924  0.3339 -0.5577
    7SAPS   H8Y  900   4.539   5.261   9.467  0.7832  2.0400  2.2837
    7SAPS   C39  901   4.490   5.359   9.281 -0.3969 -0.4835 -0.5309
    7SAPS   H9X  902   4.598   5.385   9.269 -0.2647 -1.1016 -0.7294
    7SAPS   H9Y  903   4.436   5.454   9.266 -0.6425 -0.8620 -2.0925
    7SAPS  C310  904   4.462   5.238   9.186 -0.4282 -0.1635  0.1082
    7SAPS  H10X  905   4.405   5.288   9.104 -1.0834  0.8727  1.1853
    7SAPS  H10Y  906   4.395   5.163   9.231  1.9596 -1.9323  0.7999
    7SAPS  C311  907   4.592   5.184   9.134 -0.4700  0.7546  0.5628
    7SAPS  H11X  908   4.638   5.257   9.064  0.4470 -0.7379 -0.4146
    7SAPS  H11Y  909   4.562   5.100   9.069 -0.2694 -0.2021  1.6874
    7SAPS  C312  910   4.677   5.118   9.238  0.2851 -0.6275  0.6292
    7SAPS  H12X  911   4.701   5.201   9.308  0.7506  0.2761 -0.5999
    7SAPS  H12Y  912   4.771   5.078   9.196  0.3921 -0.4161  0.6655
    7SAPS  C313  913   4.601   5.013   9.331 -0.6208  0.5606  0.1765
    7SAPS  H13X  914   4.554   4.937   9.265  2.4890  0.3559 -1.8831
    7SAPS  H13Y  915   4.510   5.054   9.380 -1.4153 -3.2271  2.0711
    7SAPS  C314  916   4.686   4.947   9.445 -0.5683 -0.4597 -0.6092
    7SAPS  H14X  917   4.758   4.869   9.414 -2.0346 -2.0291 -0.1310
    7SAPS  H14Y  918   4.608   4.888   9.497  0.1806 -0.7053  0.2361
    7SAPS  C315  919   4.755   5.047   9.544  0.5072 -0.0812  0.3802
    7SAPS  H15X  920   4.676   5.119   9.574  0.0268 -0.3791 -0.1649
    7SAPS  H15Y  921   4.846   5.100   9.506  0.4736  0.5231  1.1238
    7SAPS  C316  922   4.807   4.974   9.671 -0.0761  0.2495  0.4431
    7SAPS  H16X  923   4.836   5.043   9.753  2.4303 -1.1788  0.8291
    7SAPS  H16Y  924   4.890   4.911   9.632  0.2679  1.5337 -0.9497
    7SAPS  C317  925   4.708   4.887   9.743  0.0888 -0.2303  0.0078
    7SAPS  H17X  926   4.764   4.852   9.832 -1.1008  0.0780  0.8820
    7SAPS  H17Y  927   4.685   4.793   9.687 -0.4970  0.3849 -0.7961
    7SAPS  C318  928   4.566   4.939   9.785 -0.3632  0.1292  0.2550
    7SAPS  H18X  929   4.520   4.980   9.693  1.5226 -1.0516 -1.2458
    7SAPS  H18Y  930   4.577   5.028   9.851  1.2111 -0.6050  1.0361
    7SAPS  H18Z  931   4.507   4.858   9.834  1.8715 -0.7952  1.5017
    8SAPS     N  932   1.444   0.432  10.814  0.2817  0.4248  0.3147
    8SAPS   HN1  933   1.530   0.407  10.761  1.0525  2.8137  0.3970
    8SAPS   HN2  934   1.386   0.346  10.804  0.3106  0.3762  0.5608
    8SAPS   HN3  935   1.388   0.507  10.769 -0.9251  0.0490  1.1681
    8SAPS   C12  936   1.460   0.470  10.961  0.1448 -0.2978  0.6635
    8SAPS  H12A  937   1.525   0.556  10.956  2.6885 -2.2802 -1.4678
    8SAPS   C13  938   1.324   0.512  11.027 -0.2942 -0.1389  0.1204
    8SAPS  O13A  939   1.230   0.449  10.975 -0.2526  0.4812 -0.3439
    8SAPS  O13B  940   1.315   0.556  11.143 -0.2233  0.0492  0.2287
    8SAPS   C11  941   1.526   0.344  11.040  0.4652  0.2186  0.3957
    8SAPS  H11A  942   1.460   0.264  10.999 -0.6158  0.6567  1.2569
    8SAPS  H11B  943   1.510   0.348  11.150 -0.3718  0.4139  0.2686
    8SAPS     P  944   1.783   0.342  11.130  0.0622 -0.4045  0.3337
    8SAPS   O13  945   1.807   0.478  11.162  0.2138 -0.0060  0.9329
    8SAPS   O14  946   1.757   0.253  11.241 -0.3682 -0.0133  0.4689
    8SAPS   O12  947   1.673   0.327  11.026 -0.1008 -0.1664 -0.3375
    8SAPS   O11  948   1.896   0.277  11.043  0.2207  0.3019 -0.3761
    8SAPS    C1  949   1.977   0.361  10.947  0.3512  0.4864  0.1893
    8SAPS    HA  950   2.021   0.453  10.991  0.9801  0.2988 -0.0469
    8SAPS    HB  951   2.069   0.303  10.924 -0.2642 -0.5485  0.3469
    8SAPS    C2  952   1.898   0.396  10.817 -0.1119 -0.2124  1.4596
    8SAPS    HS  953   1.807   0.454  10.842  0.3837  1.2976 -0.1724
    8SAPS   O21  954   1.878   0.268  10.751  0.0049 -0.3997  0.0519
    8SAPS   C21  955   1.761   0.258  10.691 -0.1059 -0.8637 -0.6665
    8SAPS   O22  956   1.670   0.339  10.695 -0.6064 -0.4061 -0.2179
    8SAPS   C22  957   1.749   0.122  10.626 -0.2158  0.0890  0.1376
    8SAPS   H2R  958   1.852   0.081  10.629 -0.5395 -0.5977  1.8467
    8SAPS   H2S  959   1.690   0.062  10.698 -1.3663  1.8088  0.6476
    8SAPS    C3  960   1.989   0.489  10.725  0.8969 -0.2563 -0.4111
    8SAPS    HX  961   2.079   0.426  10.706 -0.1860 -1.2145 -2.6170
    8SAPS    HY  962   2.036   0.570  10.784  0.1484 -0.7874  0.9261
    8SAPS   O31  963   1.931   0.520  10.592  0.2885 -0.4932  0.0850
    8SAPS   C31  964   1.863   0.633  10.586 -0.8085  0.3982 -1.0266
    8SAPS   O32  965   1.859   0.719  10.679 -0.5138 -0.3549 -0.5252
    8SAPS   C32  966   1.804   0.645  10.446  0.1021  0.1547  0.8006
    8SAPS   H2X  967   1.723   0.569  10.435 -0.4460  0.9513 -0.7645
    8SAPS   H2Y  968   1.885   0.608  10.380  1.7686  1.7814  1.8962
    8SAPS   C23  969   1.690   0.120  10.480  0.4145  0.2648  0.1628
    8SAPS   H3R  970   1.590   0.169  10.482 -0.2811 -0.7809 -4.2103
    8SAPS   H3S  971   1.675   0.013  10.457 -1.5390  0.2748  1.2734
    8SAPS   C24  972   1.780   0.182  10.367  0.2637 -0.0260 -0.0865
    8SAPS   H4R  973   1.824   0.278  10.404  0.7133 -0.0321 -0.6014
    8SAPS   H4S  974   1.710   0.211  10.286  1.8982  1.2709 -1.0634
    8SAPS   C25  975   1.892   0.091  10.320 -0.5958 -0.1543 -0.4775
    8SAPS   H5R  976   1.980   0.085  10.386 -0.2525  0.2961 -0.8826
    8SAPS   C26  977   1.906   0.031  10.202  0.0931 -0.4178 -0.3440
    8SAPS   H6R  978   1.994  -0.033  10.189 -1.1803 -2.1816 -0.5151
    8SAPS   C27  979   1.811   0.035  10.086 -0.3869 -0.6117  0.6015
    8SAPS   H7R  980   1.720   0.098  10.096  0.8123  1.2500 -0.0378
    8SAPS   H7S  981   1.781  -0.069  10.061 -1.4107  0.4164 -2.7350
    8SAPS   C28  982   1.885   0.100   9.983 -0.1082 -1.2871  0.6924
    8SAPS   H8R  983   1.891   0.209  10.003  1.4225 -1.0003 -1.2253
    8SAPS   C29  984   1.945   0.042   9.875  0.4081  0.0702 -0.5897
    8SAPS   H9R  985   2.012   0.106   9.815  0.8337 -1.4704 -1.7716
    8SAPS  C210  986   1.948  -0.110   9.836 -0.3894 -0.3494  0.2552
    8SAPS  H10R  987   1.950  -0.176   9.924 -0.5081  0.1962  0.6704
    8SAPS  H10S  988   2.042  -0.129   9.780 -1.0572 -3.5762  0.1532
    8SAPS  C211  989   1.835  -0.130   9.746  0.0662 -0.2124 -0.7486
    8SAPS  H11R  990   1.757  -0.053   9.753 -0.2940 -0.7921  2.1804
    8SAPS  C212  991   1.828  -0.222   9.644 -0.3758 -0.2285  0.2168
    8SAPS  H12R  992   1.738  -0.235   9.581 -0.7460  2.1411  0.1952
    8SAPS  C213  993   1.930  -0.330   9.620  0.3237  0.8577 -0.9142
    8SAPS  H13R  994   1.987  -0.349   9.714 -2.6002 -0.7516  0.6222
    8SAPS  H13S  995   2.008  -0.300   9.547  0.2314 -1.3515 -1.9511
    8SAPS  C214  996   1.868  -0.454   9.564 -0.5153  0.6566 -0.4166
    8SAPS  H14R  997   1.828  -0.526   9.638 -1.0431 -0.9337 -2.2032
    8SAPS  C215  998   1.853  -0.478   9.436 -0.0047 -0.2986 -0.2886
    8SAPS  H15R  999   1.800  -0.574   9.421 -0.0837 -0.3450  0.2838
    8SAPS  C216 1000   1.897  -0.389   9.318 -0.5322 -0.4280  0.5897
    8SAPS  H16R 1001   1.971  -0.457   9.269 -0.8748 -0.4003  0.0382
    8SAPS  H16S 1002   1.953  -0.297   9.347 -2.1921  1.1083 -0.9898
    8SAPS  C217 1003   1.784  -0.364   9.215  0.0888  0.4278 -0.3540
    8SAPS  H17R 1004   1.727  -0.458   9.199 -0.3147  0.0086  3.1604
    8SAPS  H17S 1005   1.846  -0.341   9.125  2.0355  1.2283  1.1580
    8SAPS  C218 1006   1.711  -0.227   9.244  0.0445  0.1864  0.5184
    8SAPS  H18R 1007   1.784  -0.144   9.250  1.0354 -0.4337 -2.3334
    8SAPS  H18S 1008   1.665  -0.228   9.345  0.2022  1.1030  0.6014
    8SAPS  C219 1009   1.614  -0.197   9.135  0.0359  0.5261  0.3846
    8SAPS  H19R 1010   1.539  -0.279   9.139 -0.2350  0.7441 -0.1308
    8SAPS  H19S 1011   1.668  -0.209   9.038  0.2296  1.7263  0.3384
    8SAPS  C220 1012   1.560  -0.060   9.142  0.2868 -0.5288 -0.1114
    8SAPS  H20R 1013   1.635   0.015   9.110  0.2778  0.4628  2.1464
    8SAPS  H20S 1014   1.517  -0.027   9.238 -3.0630 -0.5640 -1.5357
    8SAPS  H20T 1015   1.472  -0.052   9.074 -0.6984 -1.7524  0.9932
    8SAPS   C33 1016   1.757   0.785  10.398 -0.1680  0.6638  0.2277
    8SAPS   H3X 1017   1.844   0.850  10.376  0.8198 -1.3228 -2.0403
    8SAPS   H3Y 1018   1.702   0.845  10.474  0.0616  1.7958 -0.4881
    8SAPS   C34 1019   1.680   0.766  10.261 -0.4475 -0.3704  0.4508
    8SAPS   H4X 1020   1.591   0.703  10.283 -0.2541 -0.4046  1.1642
    8SAPS   H4Y 1021   1.738   0.707  10.187  0.1048 -0.4701  0.9587
    8SAPS   C35 1022   1.617   0.895  10.215 -0.6610 -0.5545 -0.0124
    8SAPS   H5X 1023   1.697   0.969  10.195 -0.3938 -0.4045  1.5542
    8SAPS   H5Y 1024   1.559   0.925  10.305  0.6328 -1.7514  1.2341
    8SAPS   C36 1025   1.527   0.865  10.090  1.2116 -0.8168 -0.5222
    8SAPS   H6X 1026   1.451   0.791  10.124 -0.6198  0.0880 -2.4993
    8SAPS   H6Y 1027   1.588   0.816  10.011  1.1542  0.1748 -1.1832
    8SAPS   C37 1028   1.446   0.982  10.038  0.3518 -0.2339 -0.0618
    8SAPS   H7X 1029   1.513   1.049   9.981  0.3538 -1.2784 -1.3149
    8SAPS   H7Y 1030   1.411   1.041  10.125 -1.2749 -0.2136 -0.7179
    8SAPS   C38 1031   1.340   0.926   9.949  0.6558 -1.2022 -0.4419
    8SAPS   H8X 1032   1.239   0.948   9.990  1.4991  1.8883  0.0261
    8SAPS   H8Y 1033   1.358   0.816   9.938 -0.7351 -1.6712  1.6296
    8SAPS   C39 1034   1.347   0.983   9.799  0.4660 -0.4084 -0.3708
    8SAPS   H9X 1035   1.322   1.091   9.793  3.7763  0.4582  0.2886
    8SAPS   H9Y 1036   1.259   0.929   9.758  0.4414  0.2956 -1.2406
    8SAPS  C310 1037   1.469   0.948   9.722  0.4149 -0.0430 -0.0841
    8SAPS  H10X 1038   1.493   0.839   9.725 -1.5617 -0.5484 -1.9347
    8SAPS  H10Y 1039   1.547   0.996   9.786  0.5716 -5.4221  4.1246
    8SAPS  C311 1040   1.480   0.994   9.573 -0.1410  0.2600  0.0608
    8SAPS  H11X 1041   1.586   0.973   9.549  0.1965  1.6828  0.2395
    8SAPS  H11Y 1042   1.459   1.102   9.560 -2.5118  0.2187  2.8928
    8SAPS  C312 1043   1.386   0.916   9.476 -0.4771 -0.1223 -0.6597
    8SAPS  H12X 1044   1.279   0.933   9.499 -1.1831 -2.5050 -2.0543
    8SAPS  H12Y 1045   1.408   0.808   9.491  1.1629  0.0726 -1.5862
    8SAPS  C313 1046   1.406   0.957   9.337 -0.4210  0.2808  0.3706
    8SAPS  H13X 1047   1.370   1.061   9.318  2.5389  1.1197 -0.9063
    8SAPS  H13Y 1048   1.329   0.907   9.273  0.4206  0.2238 -0.6121
    8SAPS  C314 1049   1.544   0.949   9.286 -0.3094  0.0146  0.7360
    8SAPS  H14X 1050   1.587   0.849   9.310 -1.8138 -0.7229  0.3741
    8SAPS  H14Y 1051   1.611   1.026   9.330  0.6126  0.2471 -0.9898
    8SAPS  C315 1052   1.564   0.956   9.133  0.3116 -0.7707 -0.0372
    8SAPS  H15X 1053   1.471   0.918   9.086  1.0648 -1.9037 -0.6425
    8SAPS  H15Y 1054   1.647   0.885   9.112 -0.3278 -2.1421  1.9056
    8SAPS  C316 1055   1.570   1.105   9.081  0.8533  0.9349  0.2754
    8SAPS  H16X 1056   1.660   1.157   9.122  0.5890  0.9022  0.8995
    8SAPS  H16Y 1057   1.481   1.159   9.118 -1.5096 -1.2040 -2.1209
    8SAPS  C317 1058   1.567   1.124   8.932  0.2417  0.0120 -0.1871
    8SAPS  H17X 1059   1.538   1.230   8.915  0.5797  0.1655  0.1845
    8SAPS  H17Y 1060   1.484   1.071   8.882 -0.2960 -1.2437  1.9825
    8SAPS  C318 1061   1.704   1.080   8.864  0.2043  0.2345 -0.1416
    8SAPS  H18X 1062   1.791   1.147   8.878  1.4068 -1.1782 -0.7509
    8SAPS  H18Y 1063   1.692   1.079   8.754 -0.1821  2.1255 -0.1262
    8SAPS  H18Z 1064   1.733   0.979   8.900 -0.1928 -0.9238 -2.9940
    9SAPS     N 1065   5.270   2.962   6.538 -0.5012  0.1790 -0.0928
    9SAPS   HN1 1066   5.220   3.024   6.605  0.3844 -2.0418  2.7291
    9SAPS   HN2 1067   5.259   2.867   6.579  2.2208  0.1411  0.6412
    9SAPS   HN3 1068   5.372   2.983   6.543 -0.2715 -1.0891  0.6183
    9SAPS   C12 1069   5.205   2.964   6.394  0.6282  0.4140  0.2451
    9SAPS  H12A 1070   5.099   2.983   6.403  0.7937  0.2985  2.9584
    9SAPS   C13 1071   5.258   3.077   6.303 -0.0933  0.2770 -0.6691
    9SAPS  O13A 1072   5.319   3.176   6.352 -0.0867  0.3932 -0.3910
    9SAPS  O13B 1073   5.194   3.088   6.196 -0.5970  0.3528 -0.1608
    9SAPS   C11 1074   5.226   2.824   6.330 -0.4065  0.3409 -0.3545
    9SAPS  H11A 1075   5.329   2.782   6.337 -0.3744  0.4313 -0.2892
    9SAPS  H11B 1076   5.206   2.844   6.223  2.5716  0.1583 -0.9852
    9SAPS     P 1077   4.987   2.702   6.343  0.7832 -0.0981  0.0059
    9SAPS   O13 1078   4.911   2.826   6.374  0.5139  0.5043  0.4424
    9SAPS   O14 1079   4.989   2.642   6.209  0.2913 -0.4075  0.1685
    9SAPS   O12 1080   5.135   2.724   6.377  0.4610  0.1413  0.3534
    9SAPS   O11 1081   4.942   2.584   6.448 -0.1198  0.2280 -0.7024
    9SAPS    C1 1082   4.823   2.568   6.517  0.2389  0.0064  0.1569
    9SAPS    HA 1083   4.743   2.594   6.444 -0.7706 -3.0899  0.0756
    9SAPS    HB 1084   4.808   2.463   6.550 -1.6987 -0.0607 -0.8338
    9SAPS    C2 1085   4.810   2.652   6.647 -0.0945  0.6094 -1.0106
    9SAPS    HS 1086   4.811   2.757   6.610  1.8917  1.0817  0.3105
    9SAPS   O21 1087   4.925   2.612   6.733  0.0434 -0.3023  0.3125
    9SAPS   C21 1088   4.985   2.706   6.803  0.3367 -0.4059  0.0360
    9SAPS   O22 1089   4.964   2.826   6.795 -0.3579  0.7126 -0.0494
    9SAPS   C22 1090   5.079   2.645   6.912 -1.1255 -0.0705  0.2501
    9SAPS   H2R 1091   5.122   2.548   6.883  0.2245 -0.0589  2.1154
    9SAPS   H2S 1092   5.160   2.720   6.927 -0.2811 -1.1583  1.1754
    9SAPS    C3 1093   4.681   2.617   6.725 -0.4338 -0.0088  0.4204
    9SAPS    HX 1094   4.690   2.511   6.758  1.2990 -0.1440 -0.4627
    9SAPS    HY 1095   4.597   2.640   6.655 -0.6048 -2.4738 -0.2223
    9SAPS   O31 1096   4.668   2.711   6.838 -0.0819  0.0360 -0.4150
    9SAPS   C31 1097   4.618   2.829   6.807  0.2080 -1.0536  0.8848
    9SAPS   O32 1098   4.563   2.855   6.702  0.1194  0.1708 -0.2251
    9SAPS   C32 1099   4.632   2.937   6.928 -0.0216 -0.3849 -0.0590
    9SAPS   H2X 1100   4.528   2.963   6.957  0.6761  3.0495 -0.4331
    9SAPS   H2Y 1101   4.678   3.026   6.880  1.7500 -0.4818  1.4052
    9SAPS   C23 1102   4.998   2.632   7.040 -0.4567  0.1940  0.0652
    9SAPS   H3R 1103   4.894   2.596   7.027 -0.8130  0.7310  1.3807
    9SAPS   H3S 1104   4.980   2.733   7.083  3.0472  1.2231 -0.7100
    9SAPS   C24 1105   5.061   2.530   7.143 -0.0931 -0.2364  0.1971
    9SAPS   H4R 1106   5.096   2.432   7.103  1.1958  0.4259 -0.3318
    9SAPS   H4S 1107   4.976   2.497   7.206 -2.0004  2.1248 -1.0664
    9SAPS   C25 1108   5.165   2.602   7.229 -0.2054 -0.4206  0.3559
    9SAPS   H5R 1109   5.235   2.665   7.172 -1.4792  1.3291  0.6989
    9SAPS   C26 1110   5.182   2.588   7.365  0.3022 -0.2465  0.1900
    9SAPS   H6R 1111   5.256   2.645   7.422 -1.6422 -0.7220  3.3300
    9SAPS   C27 1112   5.097   2.499   7.460  0.4060  0.1498  0.4538
    9SAPS   H7R 1113   5.025   2.438   7.401  1.0476  0.4144 -0.6276
    9SAPS   H7S 1114   5.040   2.569   7.525 -0.8721 -1.3324  0.9637
    9SAPS   C28 1115   5.179   2.423   7.561 -0.1424  0.0376 -0.1656
    9SAPS   H8R 1116   5.179   2.316   7.536  0.1189 -0.1464  0.5907
    9SAPS   C29 1117   5.245   2.464   7.675 -0.9880 -0.4741  0.3643
    9SAPS   H9R 1118   5.300   2.383   7.726 -0.0436 -0.1152 -0.0626
    9SAPS  C210 1119   5.262   2.602   7.741 -0.2196 -0.6791  0.7536
    9SAPS  H10R 1120   5.169   2.634   7.792  0.7033 -0.5278  2.3932
    9SAPS  H10S 1121   5.280   2.674   7.658  0.0895  0.3692  1.7217
    9SAPS  C211 1122   5.379   2.613   7.835  0.3691 -0.1048  0.0677
    9SAPS  H11R 1123   5.476   2.644   7.795  0.2442  0.3962  0.1473
    9SAPS  C212 1124   5.382   2.590   7.968  0.0415  0.5388 -0.8407
    9SAPS  H12R 1125   5.480   2.599   8.019 -1.2325  2.0229  1.4224
    9SAPS  C213 1126   5.267   2.550   8.061  0.0991  0.5666 -0.5134
    9SAPS  H13R 1127   5.194   2.632   8.052  1.9748  2.1802 -1.2073
    9SAPS  H13S 1128   5.305   2.545   8.165 -1.3877  1.5635  0.0977
    9SAPS  C214 1129   5.197   2.422   8.020  0.6064  0.6621 -0.2779
    9SAPS  H14R 1130   5.167   2.408   7.915 -0.3175  1.5097 -0.1331
    9SAPS  C215 1131   5.169   2.325   8.110  0.6407 -0.3655  0.1720
    9SAPS  H15R 1132   5.125   2.229   8.079  0.4323 -0.5948  1.1859
    9SAPS  C216 1133   5.197   2.333   8.257 -0.2370  0.5507  0.2974
    9SAPS  H16R 1134   5.292   2.385   8.281 -0.2763  0.6393  0.2630
    9SAPS  H16S 1135   5.194   2.225   8.283 -1.6582  0.3756 -0.5076
    9SAPS  C217 1136   5.092   2.419   8.331  0.3089  0.0351  0.1546
    9SAPS  H17R 1137   4.986   2.391   8.311 -0.4632  3.2336 -0.4630
    9SAPS  H17S 1138   5.093   2.525   8.301 -0.4713 -0.1863 -0.7010
    9SAPS  C218 1139   5.099   2.408   8.491 -0.3884 -0.3906 -0.3666
    9SAPS  H18R 1140   5.188   2.466   8.525 -1.6309  0.4580  1.5665
    9SAPS  H18S 1141   5.114   2.303   8.524 -1.4749 -0.9347 -1.5815
    9SAPS  C219 1142   4.983   2.483   8.554  0.0811  0.1929  0.1934
    9SAPS  H19R 1143   4.883   2.445   8.525  0.0726 -0.8692  1.5373
    9SAPS  H19S 1144   4.978   2.593   8.540  0.9102  0.2513  0.3527
    9SAPS  C220 1145   4.995   2.455   8.706 -0.2919 -0.4344  0.1666
    9SAPS  H20R 1146   5.011   2.347   8.726 -1.1320 -0.6130 -0.0927
    9SAPS  H20S 1147   4.899   2.475   8.758 -1.3503 -1.2955 -1.4053
    9SAPS  H20T 1148   5.087   2.504   8.745 -0.8529 -1.1682  2.4881
    9SAPS   C33 1149   4.715   2.865   7.039 -0.4043 -0.1410 -0.0888
    9SAPS   H3X 1150   4.821   2.872   7.007 -0.3428  1.1380  0.3903
    9SAPS   H3Y 1151   4.694   2.758   7.059  1.9601 -0.3559  1.4513
    9SAPS   C34 1152   4.710   2.945   7.170  0.3561  0.5994 -0.5196
    9SAPS   H4X 1153   4.610   2.935   7.217  0.5927 -3.4814 -0.7234
    9SAPS   H4Y 1154   4.723   3.052   7.143  0.8348  0.9767  1.1737
    9SAPS   C35 1155   4.806   2.897   7.278  0.2607  0.5488 -0.3703
    9SAPS   H5X 1156   4.791   2.960   7.368 -0.2031 -2.1707  1.5209
    9SAPS   H5Y 1157   4.908   2.907   7.235  0.3270 -0.7321 -0.5202
    9SAPS   C36 1158   4.773   2.757   7.337  0.0417  0.1097 -0.4476
    9SAPS   H6X 1159   4.801   2.672   7.271 -2.8558  0.5504 -2.3771
    9SAPS   H6Y 1160   4.662   2.750   7.345  0.0476  2.5361  3.0658
    9SAPS   C37 1161   4.843   2.740   7.470  0.0978  0.3923 -0.2241
    9SAPS   H7X 1162   4.952   2.739   7.451 -0.1519 -1.0118 -1.7036
    9SAPS   H7Y 1163   4.831   2.637   7.511 -2.2347  0.5166 -0.4973
    9SAPS   C38 1164   4.814   2.833   7.585  0.0867  0.6311 -0.1932
    9SAPS   H8X 1165   4.705   2.853   7.594 -0.2295 -1.6387  1.2217
    9SAPS   H8Y 1166   4.861   2.933   7.570  1.4135  0.3244  1.6834
    9SAPS   C39 1167   4.875   2.786   7.714 -0.5620  0.4135 -0.9169
    9SAPS   H9X 1168   4.973   2.736   7.697 -1.7219 -2.3710  0.3382
    9SAPS   H9Y 1169   4.802   2.716   7.759 -1.6174  1.7224 -0.5565
    9SAPS  C310 1170   4.866   2.907   7.810  0.0690  0.3890 -0.1830
    9SAPS  H10X 1171   4.766   2.949   7.788 -1.0304 -0.3819  3.1027
    9SAPS  H10Y 1172   4.946   2.976   7.775  0.0963  0.6614  0.4141
    9SAPS  C311 1173   4.874   2.874   7.958  0.0349 -0.1675  0.5212
    9SAPS  H11X 1174   4.965   2.821   7.993  0.0804 -0.7148 -0.3982
    9SAPS  H11Y 1175   4.784   2.814   7.984 -0.6414 -0.0407 -1.4619
    9SAPS  C312 1176   4.849   3.004   8.041 -0.3805  0.1177  0.1210
    9SAPS  H12X 1177   4.765   3.056   7.990 -0.4091 -1.4451 -1.4891
    9SAPS  H12Y 1178   4.937   3.068   8.020 -1.6065  1.3616 -1.3347
    9SAPS  C313 1179   4.832   2.977   8.191 -0.5759 -0.6460 -0.2757
    9SAPS  H13X 1180   4.745   2.909   8.194  1.0425 -2.6994  1.6473
    9SAPS  H13Y 1181   4.799   3.073   8.235 -1.0344 -1.2331  0.6805
    9SAPS  C314 1182   4.954   2.925   8.263 -0.5138  0.2801 -0.4702
    9SAPS  H14X 1183   5.036   3.000   8.257  0.1934 -0.4721 -0.3929
    9SAPS  H14Y 1184   4.985   2.834   8.207  1.5239  0.6328  0.0182
    9SAPS  C315 1185   4.931   2.889   8.415  0.1338  0.8659 -0.1601
    9SAPS  H15X 1186   4.905   2.988   8.457 -1.4682  0.1634  0.5753
    9SAPS  H15Y 1187   5.019   2.840   8.461  0.8105  3.5977  1.5475
    9SAPS  C316 1188   4.806   2.805   8.447 -0.1093  0.2737 -0.1024
    9SAPS  H16X 1189   4.825   2.702   8.410 -0.3987  0.4238 -0.6700
    9SAPS  H16Y 1190   4.715   2.834   8.389  0.8731  3.4367 -0.1467
    9SAPS  C317 1191   4.765   2.804   8.600  0.2850 -0.8232  0.0480
    9SAPS  H17X 1192   4.736   2.909   8.621  0.0869 -0.9733  0.5252
    9SAPS  H17Y 1193   4.858   2.778   8.654  0.7420 -1.1419 -0.8818
    9SAPS  C318 1194   4.654   2.714   8.640  0.5207 -0.1579 -0.0851
    9SAPS  H18X 1195   4.556   2.747   8.597  0.6708 -0.2658 -0.5127
    9SAPS  H18Y 1196   4.657   2.696   8.749 -1.4664 -1.5293 -0.2396
    9SAPS  H18Z 1197   4.675   2.617   8.590  1.3413  0.3422 -0.7276
   10SAPS     N 1198   4.842   2.129   6.052 -0.2975 -0.0160 -0.5418
   10SAPS   HN1 1199   4.797   2.218   6.024  0.7174  0.7045  0.1063
   10SAPS   HN2 1200   4.850   2.124   6.156 -0.1082  1.0304 -0.5000
   10SAPS   HN3 1201   4.937   2.129   6.009 -1.4956 -0.7327 -3.3100
   10SAPS   C12 1202   4.782   2.004   5.987  0.3101 -0.0083  0.0546
   10SAPS  H12A 1203   4.675   2.014   5.996  0.3231  0.0019  0.1970
   10SAPS   C13 1204   4.811   1.984   5.839  0.6079  0.5944  0.2445
   10SAPS  O13A 1205   4.879   2.065   5.776 -0.2229 -0.4168  0.0659
   10SAPS  O13B 1206   4.773   1.869   5.794 -0.3214 -0.2636  0.4665
   10SAPS   C11 1207   4.820   1.886   6.070 -0.2564 -1.1904  0.5585
   10SAPS  H11A 1208   4.930   1.887   6.090 -0.0467 -0.0845 -0.5558
   10SAPS  H11B 1209   4.792   1.799   6.007 -1.2500 -1.0683  0.8221
   10SAPS     P 1210   4.807   1.881   6.331 -0.0533 -0.4755 -0.3601
   10SAPS   O13 1211   4.700   1.897   6.430 -0.1934 -0.1251 -0.0569
   10SAPS   O14 1212   4.903   1.770   6.348 -1.3675  0.1353  0.2021
   10SAPS   O12 1213   4.746   1.873   6.182  0.6687  0.3365 -0.1855
   10SAPS   O11 1214   4.886   2.017   6.326  0.1144  0.5016 -0.1235
   10SAPS    C1 1215   4.999   2.033   6.411  1.2017 -0.3991 -0.2828
   10SAPS    HA 1216   5.076   1.953   6.402  1.3814 -0.3062  0.3518
   10SAPS    HB 1217   5.042   2.133   6.388  2.7555 -0.9707  0.0876
   10SAPS    C2 1218   4.964   2.043   6.564  0.7791 -0.2168 -0.0907
   10SAPS    HS 1219   5.065   2.059   6.606  1.1306 -0.1676 -0.9439
   10SAPS   O21 1220   4.908   1.924   6.626  0.0620 -0.3179  0.8514
   10SAPS   C21 1221   4.987   1.820   6.638 -0.3000 -0.3999 -0.0277
   10SAPS   O22 1222   5.110   1.817   6.627 -0.1874  0.0326 -0.3283
   10SAPS   C22 1223   4.903   1.700   6.656 -0.4631 -0.4580 -0.4927
   10SAPS   H2R 1224   4.799   1.719   6.690 -0.4069 -1.9280  0.4955
   10SAPS   H2S 1225   4.892   1.631   6.570  1.0885  0.0371 -1.1145
   10SAPS    C3 1226   4.875   2.160   6.601 -0.0824 -0.5426 -0.0331
   10SAPS    HX 1227   4.771   2.141   6.565 -1.1562  2.7088  1.2263
   10SAPS    HY 1228   4.889   2.247   6.534  2.4118 -1.2852 -0.5117
   10SAPS   O31 1229   4.870   2.192   6.746 -0.1478 -0.0366  0.1197
   10SAPS   C31 1230   4.983   2.237   6.790 -0.1834  0.1373 -0.6619
   10SAPS   O32 1231   5.080   2.272   6.724 -0.0075 -0.5697 -0.2613
   10SAPS   C32 1232   4.982   2.225   6.944 -0.2178 -0.3358  0.1213
   10SAPS   H2X 1233   4.895   2.281   6.986  0.5107  2.6991 -2.2273
   10SAPS   H2Y 1234   5.073   2.277   6.981  0.0442  0.2042 -1.2418
   10SAPS   C23 1235   4.977   1.601   6.754  0.3283 -0.0099 -0.0075
   10SAPS   H3R 1236   5.070   1.569   6.702  0.6212 -0.3142  0.6980
   10SAPS   H3S 1237   4.924   1.505   6.768 -0.4966  0.2275 -1.4191
   10SAPS   C24 1238   5.008   1.661   6.893  0.0898 -0.1058 -0.8848
   10SAPS   H4R 1239   5.088   1.733   6.867  0.2679 -0.9677 -2.8147
   10SAPS   H4S 1240   5.064   1.582   6.947 -1.3837  1.0508  2.4355
   10SAPS   C25 1241   4.902   1.716   6.993  0.1536 -0.4830  0.4263
   10SAPS   H5R 1242   4.854   1.807   6.954 -2.1627 -2.5835 -1.9256
   10SAPS   C26 1243   4.862   1.667   7.108 -1.0816 -0.7604 -0.2547
   10SAPS   H6R 1244   4.786   1.730   7.157 -0.2228 -0.9221  1.3083
   10SAPS   C27 1245   4.904   1.539   7.180  0.2366  0.3735 -0.1999
   10SAPS   H7R 1246   5.006   1.520   7.141 -0.3054 -0.9542 -0.9994
   10SAPS   H7S 1247   4.831   1.462   7.146 -1.0342  1.1548  0.6791
   10SAPS   C28 1248   4.915   1.550   7.328 -0.1527  0.1271 -0.3518
   10SAPS   H8R 1249   4.969   1.638   7.365  2.1986 -1.8280  1.0096
   10SAPS   C29 1250   4.857   1.470   7.424  0.4493 -0.2088  0.4145
   10SAPS   H9R 1251   4.895   1.492   7.525  2.6321  0.9033 -0.6181
   10SAPS  C210 1252   4.774   1.345   7.408  0.2894 -0.3847  0.6001
   10SAPS  H10R 1253   4.833   1.263   7.454  0.4204  0.1577  1.4073
   10SAPS  H10S 1254   4.769   1.319   7.300 -0.0825  0.0982  0.5007
   10SAPS  C211 1255   4.625   1.346   7.448  0.1548  0.2844 -0.2927
   10SAPS  H11R 1256   4.562   1.390   7.369  0.3403 -0.9513 -1.1409
   10SAPS  C212 1257   4.577   1.290   7.557  0.1228 -0.6377 -0.5940
   10SAPS  H12R 1258   4.471   1.313   7.574 -0.2268 -2.4414 -0.2051
   10SAPS  C213 1259   4.652   1.214   7.663 -0.4997 -0.2741 -0.1838
   10SAPS  H13R 1260   4.733   1.276   7.707  0.7873 -1.9416 -0.1482
   10SAPS  H13S 1261   4.695   1.120   7.621  2.2668 -0.8218  3.5797
   10SAPS  C214 1262   4.562   1.168   7.771 -0.0105 -0.1504  0.5608
   10SAPS  H14R 1263   4.508   1.082   7.729 -2.5963  1.4970  0.4617
   10SAPS  C215 1264   4.528   1.233   7.888 -0.0370  0.2419  0.5104
   10SAPS  H15R 1265   4.455   1.196   7.962 -0.0594  0.8942  0.8102
   10SAPS  C216 1266   4.593   1.364   7.927 -0.2957  0.3201  0.0235
   10SAPS  H16R 1267   4.623   1.428   7.842 -2.4865 -0.0235 -1.0287
   10SAPS  H16S 1268   4.687   1.339   7.983  0.1577  0.6925 -0.5726
   10SAPS  C217 1269   4.490   1.454   8.013 -0.5370 -0.0247 -0.4790
   10SAPS  H17R 1270   4.402   1.475   7.948 -2.0361 -2.3048  0.7713
   10SAPS  H17S 1271   4.550   1.548   8.015  0.1517 -0.4835  0.6363
   10SAPS  C218 1272   4.455   1.412   8.152  0.4586  0.3141  0.3236
   10SAPS  H18R 1273   4.401   1.316   8.168  0.6021  0.7277  3.7909
   10SAPS  H18S 1274   4.375   1.484   8.180 -0.8849 -0.8658 -0.4297
   10SAPS  C219 1275   4.571   1.413   8.250 -0.3478  0.1635  0.3315
   10SAPS  H19R 1276   4.628   1.506   8.231 -2.6458  1.3299 -1.1474
   10SAPS  H19S 1277   4.641   1.328   8.237 -1.0828 -0.2584 -0.9092
   10SAPS  C220 1278   4.509   1.402   8.388  0.1876  0.5976  0.7743
   10SAPS  H20R 1279   4.589   1.394   8.463  2.5653  0.2770 -1.7148
   10SAPS  H20S 1280   4.455   1.305   8.382 -0.9768  1.3283 -1.1491
   10SAPS  H20T 1281   4.433   1.481   8.407 -0.3287 -0.4361  3.0964
   10SAPS   C33 1282   5.012   2.084   6.976  0.2779 -0.3045 -0.2914
   10SAPS   H3X 1283   5.105   2.047   6.927  1.8296  0.5475  1.9095
   10SAPS   H3Y 1284   4.930   2.014   6.952  0.1298  0.7065 -2.8209
   10SAPS   C34 1285   5.052   2.065   7.126 -0.8574 -0.0982 -0.1042
   10SAPS   H4X 1286   5.152   2.111   7.142 -0.8441 -0.1749  0.0326
   10SAPS   H4Y 1287   5.068   1.957   7.146  1.2161 -0.2013 -2.1544
   10SAPS   C35 1288   4.947   2.124   7.219 -0.7742 -0.2564  0.1349
   10SAPS   H5X 1289   4.846   2.116   7.174 -0.1350  1.3584 -1.6815
   10SAPS   H5Y 1290   4.956   2.233   7.241 -3.2831 -0.0816  0.4419
   10SAPS   C36 1291   4.942   2.042   7.346 -0.4789  0.6311 -0.3629
   10SAPS   H6X 1292   4.915   1.936   7.329 -1.3303  0.8307 -0.2768
   10SAPS   H6Y 1293   4.856   2.078   7.407 -1.1836  0.7181 -1.4015
   10SAPS   C37 1294   5.076   2.039   7.424  0.5420  0.3349 -0.1665
   10SAPS   H7X 1295   5.115   2.144   7.425  0.4548  0.4774 -3.8899
   10SAPS   H7Y 1296   5.156   1.984   7.371  0.7455  1.4967 -1.0899
   10SAPS   C38 1297   5.070   1.979   7.564 -0.1563 -0.1443  0.2078
   10SAPS   H8X 1298   5.047   1.871   7.550 -0.8229 -0.0669  0.7357
   10SAPS   H8Y 1299   4.986   2.027   7.618  0.8851  1.1562  0.7095
   10SAPS   C39 1300   5.200   2.001   7.640 -0.3029 -0.3141 -0.3566
   10SAPS   H9X 1301   5.226   2.108   7.652 -1.2714 -0.1173  0.0197
   10SAPS   H9Y 1302   5.279   1.944   7.586 -0.2023 -0.8855  0.3821
   10SAPS  C310 1303   5.197   1.956   7.788  0.4072  0.4812  0.3295
   10SAPS  H10X 1304   5.164   1.852   7.807  0.9510  0.3757  0.7052
   10SAPS  H10Y 1305   5.118   2.020   7.833 -2.2525 -1.6110 -1.2565
   10SAPS  C311 1306   5.326   1.985   7.861  0.3246 -0.6647  0.3875
   10SAPS  H11X 1307   5.367   2.084   7.833 -0.4669 -1.1006 -2.5322
   10SAPS  H11Y 1308   5.397   1.910   7.822 -1.0248 -1.1611 -1.2072
   10SAPS  C312 1309   5.316   1.996   8.021 -0.4995  0.1460  0.1311
   10SAPS  H12X 1310   5.222   2.048   8.047 -0.7700  0.2209 -0.9373
   10SAPS  H12Y 1311   5.405   2.052   8.057  1.6569 -2.3084 -1.1632
   10SAPS  C313 1312   5.291   1.859   8.095 -0.4094  0.5907 -0.2515
   10SAPS  H13X 1313   5.380   1.799   8.069  1.9945  3.5007  0.9587
   10SAPS  H13Y 1314   5.202   1.804   8.058  0.8648 -1.5510 -0.2190
   10SAPS  C314 1315   5.281   1.879   8.247  0.6202  0.6167 -0.4928
   10SAPS  H14X 1316   5.248   1.788   8.302  1.1115  0.7268 -0.0198
   10SAPS  H14Y 1317   5.197   1.951   8.251 -0.0314 -0.1739  0.3429
   10SAPS  C315 1318   5.400   1.939   8.318  0.0708  0.4500 -0.6794
   10SAPS  H15X 1319   5.462   2.012   8.262  2.2600 -0.8961 -0.0685
   10SAPS  H15Y 1320   5.471   1.855   8.331  1.9403  2.0323 -0.5956
   10SAPS  C316 1321   5.360   1.985   8.457 -0.4586 -0.3716  0.0149
   10SAPS  H16X 1322   5.270   2.048   8.441 -0.5531 -0.5045  0.0141
   10SAPS  H16Y 1323   5.433   2.050   8.510  0.8532 -0.2527 -1.8862
   10SAPS  C317 1324   5.304   1.880   8.554 -0.1530 -0.0207 -0.1450
   10SAPS  H17X 1325   5.389   1.810   8.567  0.8334  1.5491  2.1079
   10SAPS  H17Y 1326   5.216   1.825   8.515  0.8401 -1.2509 -0.6907
   10SAPS  C318 1327   5.270   1.952   8.683 -0.2088 -0.1048 -0.3383
   10SAPS  H18X 1328   5.366   2.000   8.713 -0.8872  1.5938 -0.8200
   10SAPS  H18Y 1329   5.239   1.878   8.759  1.4801  0.0291  0.4927
   10SAPS  H18Z 1330   5.194   2.031   8.665 -0.1970 -0.1658 -0.6682
   11SAPS     N 1331   0.088   4.503   5.743  0.4092  0.6218  0.3396
   11SAPS   HN1 1332   0.127   4.415   5.703  0.0869  0.7784 -0.3158
   11SAPS   HN2 1333   0.106   4.513   5.845 -2.5594  0.2006  0.9389
   11SAPS   HN3 1334  -0.015   4.491   5.735  0.5700 -0.0732 -0.8335
   11SAPS   C12 1335   0.149   4.612   5.660 -0.2321  0.5717 -0.3280
   11SAPS  H12A 1336   0.247   4.636   5.700 -1.0287  0.9857  1.3958
   11SAPS   C13 1337   0.176   4.562   5.512 -0.5521 -0.0365  0.2235
   11SAPS  O13A 1338   0.157   4.442   5.482  0.3521  0.3051  0.1695
   11SAPS  O13B 1339   0.234   4.634   5.426  0.4764 -0.7884 -0.6371
   11SAPS   C11 1340   0.059   4.737   5.668 -0.6879 -0.4205  0.0161
   11SAPS  H11A 1341  -0.042   4.714   5.628 -0.7733 -0.5198  0.2849
   11SAPS  H11B 1342   0.097   4.819   5.603 -0.6626  0.5550  1.2494
   11SAPS     P 1343   0.127   4.882   5.884 -0.7740  0.2007 -0.0504
   11SAPS   O13 1344   0.259   4.822   5.920  0.1800 -0.1391  0.2256
   11SAPS   O14 1345   0.127   5.014   5.816 -0.2860  0.3641  0.7733
   11SAPS   O12 1346   0.041   4.781   5.805  0.0508  0.1895  0.2498
   11SAPS   O11 1347   0.040   4.884   6.015 -0.7563  0.8131  0.3442
   11SAPS    C1 1348  -0.073   4.802   6.040 -0.5465 -0.5540  0.4231
   11SAPS    HA 1349  -0.163   4.823   5.979  1.4394 -1.1904 -2.8332
   11SAPS    HB 1350  -0.033   4.699   6.027  0.3397 -0.2758  0.8722
   11SAPS    C2 1351  -0.124   4.803   6.185  0.2493  0.2829  0.3085
   11SAPS    HS 1352  -0.215   4.741   6.199  0.3764 -0.2004 -0.8676
   11SAPS   O21 1353  -0.151   4.935   6.229 -0.3566 -0.1506  0.3113
   11SAPS   C21 1354  -0.227   4.948   6.341  0.1029  0.4071 -0.1447
   11SAPS   O22 1355  -0.289   4.859   6.394  0.6077  0.2957 -0.1927
   11SAPS   C22 1356  -0.216   5.093   6.395  0.3044  0.2145  0.3254
   11SAPS   H2R 1357  -0.111   5.093   6.429  0.4341 -0.3793 -0.0793
   11SAPS   H2S 1358  -0.225   5.164   6.309  1.8391 -0.9626 -0.8176
   11SAPS    C3 1359  -0.007   4.751   6.267  0.6827 -0.7250  0.0437
   11SAPS    HX 1360   0.060   4.839   6.275 -0.1680 -0.1258  0.6386
   11SAPS    HY 1361   0.046   4.671   6.211  1.8108  0.2543 -0.3110
   11SAPS   O31 1362  -0.037   4.695   6.399 -0.2302  0.2862  0.2703
   11SAPS   C31 1363  -0.020   4.767   6.505  0.6942  0.0200 -0.2324
   11SAPS   O32 1364   0.040   4.874   6.507  0.0580  0.1575 -0.3681
   11SAPS   C32 1365  -0.101   4.704   6.618 -0.5434 -0.6056  0.0806
   11SAPS   H2X 1366  -0.080   4.595   6.626  0.3914 -0.5723 -1.5898
   11SAPS   H2Y 1367  -0.206   4.731   6.590 -1.3083 -0.1148  3.2997
   11SAPS   C23 1368  -0.307   5.131   6.512 -0.2573  0.3011  0.6261
   11SAPS   H3R 1369  -0.287   5.236   6.543  2.5332 -0.0747  0.2750
   11SAPS   H3S 1370  -0.281   5.069   6.600  0.7369 -0.4546 -0.1890
   11SAPS   C24 1371  -0.455   5.120   6.503  0.0447  0.2852 -0.1047
   11SAPS   H4R 1372  -0.509   5.131   6.600 -1.6502 -2.7644 -0.6378
   11SAPS   H4S 1373  -0.491   5.016   6.485 -0.7030  0.4058  0.6784
   11SAPS   C25 1374  -0.520   5.216   6.403 -0.2305  0.0716 -0.0385
   11SAPS   H5R 1375  -0.526   5.175   6.301  0.4581  0.0443 -0.0693
   11SAPS   C26 1376  -0.559   5.341   6.428  0.4841  0.1936  0.1112
   11SAPS   H6R 1377  -0.599   5.399   6.343 -1.4261 -0.2630  0.6585
   11SAPS   C27 1378  -0.560   5.413   6.559  0.2588 -0.2722 -0.3242
   11SAPS   H7R 1379  -0.508   5.511   6.553  2.0099 -1.2788 -1.9176
   11SAPS   H7S 1380  -0.503   5.350   6.630  0.9448 -3.1510 -3.3140
   11SAPS   C28 1381  -0.706   5.439   6.597  0.5529 -0.0245 -1.0202
   11SAPS   H8R 1382  -0.770   5.496   6.528 -0.0652 -0.1744 -0.5860
   11SAPS   C29 1383  -0.769   5.395   6.711 -0.4179 -0.5263 -0.1870
   11SAPS   H9R 1384  -0.878   5.410   6.716 -0.2937  0.6438 -0.8907
   11SAPS  C210 1385  -0.703   5.321   6.825 -0.8927 -0.1135  0.4032
   11SAPS  H10R 1386  -0.721   5.366   6.925 -0.9159  1.5510 -0.3340
   11SAPS  H10S 1387  -0.594   5.334   6.806 -1.1468  1.0910 -0.2944
   11SAPS  C211 1388  -0.741   5.177   6.839  0.0980 -0.0327 -0.5692
   11SAPS  H11R 1389  -0.824   5.148   6.774  0.2297 -0.8754 -0.3652
   11SAPS  C212 1390  -0.688   5.088   6.927  0.6432  0.2096  0.1392
   11SAPS  H12R 1391  -0.715   4.982   6.919 -0.0558  0.4907 -1.2830
   11SAPS  C213 1392  -0.582   5.129   7.028  0.2009 -0.6756  0.1201
   11SAPS  H13R 1393  -0.626   5.183   7.114 -1.0163 -0.5558 -0.5781
   11SAPS  H13S 1394  -0.524   5.204   6.971  1.7697 -1.7835  0.1941
   11SAPS  C214 1395  -0.487   5.014   7.071  0.5177  0.4737  0.1257
   11SAPS  H14R 1396  -0.399   4.998   7.007  1.8642  2.3990  1.4162
   11SAPS  C215 1397  -0.506   4.941   7.184 -0.3350 -0.4588  0.6340
   11SAPS  H15R 1398  -0.431   4.864   7.206  0.5401 -0.0467 -0.8392
   11SAPS  C216 1399  -0.617   4.959   7.284  0.3150  0.1315 -0.4562
   11SAPS  H16R 1400  -0.713   4.910   7.256 -1.0142  2.5797 -0.3894
   11SAPS  H16S 1401  -0.637   5.066   7.308  1.8550 -0.0166  1.5774
   11SAPS  C217 1402  -0.593   4.892   7.419 -0.3805  0.7606  0.6761
   11SAPS  H17R 1403  -0.568   4.786   7.402  1.4231  1.2197  0.3966
   11SAPS  H17S 1404  -0.680   4.893   7.489 -0.3068  3.9644  0.8201
   11SAPS  C218 1405  -0.467   4.944   7.491 -0.4825 -0.0113 -0.3455
   11SAPS  H18R 1406  -0.491   5.043   7.535  2.3315  1.2704 -1.6209
   11SAPS  H18S 1407  -0.378   4.969   7.430  0.3673  1.8353  1.5813
   11SAPS  C219 1408  -0.421   4.846   7.601 -0.5499  0.0127  0.6763
   11SAPS  H19R 1409  -0.330   4.877   7.657 -1.5993  1.1625  1.7745
   11SAPS  H19S 1410  -0.402   4.749   7.551  0.1882  0.3143  0.3528
   11SAPS  C220 1411  -0.521   4.820   7.713 -0.1911 -0.2422  0.7876
   11SAPS  H20R 1412  -0.534   4.909   7.779  1.4640 -1.7896  3.2974
   11SAPS  H20S 1413  -0.472   4.742   7.776 -0.1471  1.2737  2.6904
   11SAPS  H20T 1414  -0.619   4.786   7.673  1.1206 -1.8924 -1.1316
   11SAPS   C33 1415  -0.077   4.770   6.761  0.6912 -0.0648 -0.6512
   11SAPS   H3X 1416   0.028   4.763   6.796  0.9372 -1.9385 -1.7083
   11SAPS   H3Y 1417  -0.144   4.709   6.826  0.9205  0.9379  0.5561
   11SAPS   C34 1418  -0.134   4.915   6.782 -0.0685 -0.3287 -0.5024
   11SAPS   H4X 1419  -0.241   4.907   6.753  0.0148 -0.8079 -0.6766
   11SAPS   H4Y 1420  -0.079   4.983   6.713  0.3791  1.1194  1.2472
   11SAPS   C35 1421  -0.119   4.971   6.926  0.4827 -0.0121  0.3277
   11SAPS   H5X 1422  -0.011   4.959   6.948  0.1580  0.3513  2.2519
   11SAPS   H5Y 1423  -0.185   4.928   7.005 -0.8304  0.8867 -0.2630
   11SAPS   C36 1424  -0.146   5.128   6.931  0.6200 -0.0451 -0.1875
   11SAPS   H6X 1425  -0.251   5.144   6.964  0.8996 -1.0760  1.2515
   11SAPS   H6Y 1426  -0.136   5.168   6.828  0.6141 -0.2158 -0.2547
   11SAPS   C37 1427  -0.057   5.209   7.021  0.2942 -0.2562 -0.0188
   11SAPS   H7X 1428  -0.110   5.307   7.024  0.6407 -0.0937  3.9549
   11SAPS   H7Y 1429   0.048   5.222   6.985  0.2243  0.5994  0.0734
   11SAPS   C38 1430  -0.064   5.157   7.167  0.2423 -0.2096  0.0073
   11SAPS   H8X 1431  -0.054   5.047   7.157  0.1045 -0.1106 -1.3380
   11SAPS   H8Y 1432  -0.165   5.170   7.211  0.4896  1.7812  0.0464
   11SAPS   C39 1433   0.048   5.218   7.255  0.0829 -0.1066 -0.0512
   11SAPS   H9X 1434   0.040   5.329   7.252 -0.8736 -0.1953 -1.0035
   11SAPS   H9Y 1435   0.138   5.200   7.192  1.3378  3.1570  0.7145
   11SAPS  C310 1436   0.048   5.160   7.394 -0.7228 -0.2438 -0.4839
   11SAPS  H10X 1437   0.137   5.207   7.441 -0.3410 -1.8459  0.4277
   11SAPS  H10Y 1438   0.058   5.049   7.393 -0.1556 -0.2061  0.3809
   11SAPS  C311 1439  -0.068   5.205   7.485  0.1964 -0.6251 -0.0402
   11SAPS  H11X 1440  -0.161   5.191   7.425 -0.3944  0.6016  0.5711
   11SAPS  H11Y 1441  -0.055   5.314   7.501  1.1277 -0.5397 -1.3357
   11SAPS  C312 1442  -0.075   5.130   7.614 -0.3967  0.2203  0.2881
   11SAPS  H12X 1443  -0.122   5.033   7.587  2.1252 -1.6584  2.3514
   11SAPS  H12Y 1444  -0.162   5.174   7.669 -1.1057 -0.2161 -0.4844
   11SAPS  C313 1445   0.054   5.129   7.696  0.0233  0.1432  0.1182
   11SAPS  H13X 1446   0.096   5.231   7.708  3.6559 -0.9977 -1.9415
   11SAPS  H13Y 1447   0.126   5.063   7.642  0.6251  2.2268 -1.6665
   11SAPS  C314 1448   0.026   5.064   7.826 -0.1674  0.0053 -0.3923
   11SAPS  H14X 1449   0.124   5.027   7.863 -0.0604  0.6256 -0.0476
   11SAPS  H14Y 1450  -0.045   4.982   7.803 -2.4474  1.4975  1.0881
   11SAPS  C315 1451  -0.024   5.161   7.929  0.4164 -0.0398  0.0562
   11SAPS  H15X 1452  -0.129   5.184   7.902  0.2908 -0.3015  0.3269
   11SAPS  H15Y 1453   0.032   5.256   7.914 -0.1295  0.3195  0.2788
   11SAPS  C316 1454  -0.004   5.118   8.070 -0.5072 -0.0022 -0.2702
   11SAPS  H16X 1455  -0.042   5.014   8.079 -2.0779  0.5757 -0.1268
   11SAPS  H16Y 1456  -0.079   5.177   8.127 -1.2394  1.4111 -2.6244
   11SAPS  C317 1457   0.135   5.142   8.127 -0.3701 -1.1007  0.1466
   11SAPS  H17X 1458   0.179   5.223   8.064  0.5614 -1.6445  0.0934
   11SAPS  H17Y 1459   0.204   5.055   8.121 -0.1091 -0.9879  1.3516
   11SAPS  C318 1460   0.138   5.191   8.272  0.1547  0.8784  0.1421
   11SAPS  H18X 1461   0.115   5.101   8.333 -0.5697  1.4365  0.7047
   11SAPS  H18Y 1462   0.070   5.279   8.283 -2.5646 -1.2526  0.9526
   11SAPS  H18Z 1463   0.241   5.227   8.292  0.0705  1.7332 -0.9375
   12SAPS     N 1464   0.001   0.184   5.988  0.3214 -0.7262 -0.4580
   12SAPS   HN1 1465   0.035   0.132   6.071  1.1911 -1.5817 -1.3262
   12SAPS   HN2 1466   0.089   0.212   5.940  0.5383  0.5023  0.6195
   12SAPS   HN3 1467  -0.053   0.264   6.027  1.4073 -1.1082  1.8629
   12SAPS   C12 1468  -0.083   0.091   5.920 -1.0537  0.3189  0.0592
   12SAPS  H12A 1469  -0.153   0.055   5.994 -2.0802  1.6807 -0.2218
   12SAPS   C13 1470  -0.153   0.158   5.797 -0.2103 -0.0535 -0.0899
   12SAPS  O13A 1471  -0.138   0.284   5.789  0.5162  0.3346  0.6610
   12SAPS  O13B 1472  -0.244   0.094   5.735 -0.1237 -0.1719  0.3230
   12SAPS   C11 1473   0.012  -0.029   5.877 -0.1537 -0.7503 -0.0774
   12SAPS  H11A 1474   0.088   0.005   5.804 -0.3319  0.7191  0.3964
   12SAPS  H11B 1475  -0.064  -0.098   5.835  0.3314 -1.4242  0.1354
   12SAPS     P 1476   0.069  -0.224   6.037  0.1683  0.4820  0.1697
   12SAPS   O13 1477   0.081  -0.318   5.919  0.1756 -0.3453 -0.4980
   12SAPS   O14 1478   0.170  -0.246   6.138 -0.0647 -0.2634  0.3247
   12SAPS   O12 1479   0.076  -0.080   5.987  0.0962  0.2453  0.5610
   12SAPS   O11 1480  -0.078  -0.237   6.091  0.1687 -0.1784  0.3205
   12SAPS    C1 1481  -0.128  -0.144   6.194 -0.1175  0.0682  0.2656
   12SAPS    HA 1482  -0.070  -0.050   6.192  0.0467 -0.0517 -1.1096
   12SAPS    HB 1483  -0.237  -0.126   6.182 -0.0010  2.0682  2.0623
   12SAPS    C2 1484  -0.117  -0.220   6.328  0.6585  0.6900  0.1925
   12SAPS    HS 1485  -0.008  -0.239   6.340  0.7674 -0.5104 -2.3004
   12SAPS   O21 1486  -0.191  -0.346   6.326 -0.3074  0.2771 -0.1336
   12SAPS   C21 1487  -0.162  -0.442   6.411  0.3680 -0.0373  0.1313
   12SAPS   O22 1488  -0.066  -0.447   6.488 -0.5502  0.5589 -0.4281
   12SAPS   C22 1489  -0.265  -0.554   6.409 -0.3617 -0.1199  0.4657
   12SAPS   H2R 1490  -0.331  -0.552   6.319  0.4350  1.0101 -0.1118
   12SAPS   H2S 1491  -0.197  -0.641   6.406  1.1131  0.9407  1.8686
   12SAPS    C3 1492  -0.168  -0.134   6.450  0.3674 -0.3943 -0.0129
   12SAPS    HX 1493  -0.275  -0.106   6.435  0.1665 -0.5326  1.1578
   12SAPS    HY 1494  -0.107  -0.042   6.442  2.6618 -1.7932  0.9775
   12SAPS   O31 1495  -0.161  -0.197   6.577  0.3078 -0.1435  0.3331
   12SAPS   C31 1496  -0.058  -0.168   6.660  0.1166 -0.7035 -0.3544
   12SAPS   O32 1497   0.032  -0.087   6.647 -0.2772  0.1898  0.2631
   12SAPS   C32 1498  -0.067  -0.269   6.773  0.0438 -0.3158  0.1054
   12SAPS   H2X 1499  -0.028  -0.361   6.725 -0.6817 -1.0489  0.8929
   12SAPS   H2Y 1500  -0.172  -0.293   6.799 -0.4982 -0.8227 -2.3382
   12SAPS   C23 1501  -0.350  -0.577   6.534 -0.0936 -0.2285 -0.0110
   12SAPS   H3R 1502  -0.442  -0.516   6.531  0.2257  0.1825 -2.9225
   12SAPS   H3S 1503  -0.290  -0.548   6.623 -0.9725  1.0792  0.1713
   12SAPS   C24 1504  -0.394  -0.720   6.554 -0.6264 -0.3317 -0.3344
   12SAPS   H4R 1505  -0.442  -0.747   6.457  0.1211 -0.2393 -0.7293
   12SAPS   H4S 1506  -0.478  -0.730   6.626  0.9212 -1.6016  1.3324
   12SAPS   C25 1507  -0.277  -0.815   6.585  0.5008 -0.2055 -0.5458
   12SAPS   H5R 1508  -0.218  -0.854   6.500 -0.6172 -1.7394 -0.6428
   12SAPS   C26 1509  -0.238  -0.836   6.717  0.2942  0.8485  0.4645
   12SAPS   H6R 1510  -0.145  -0.892   6.736  1.2576  1.7272 -1.5560
   12SAPS   C27 1511  -0.313  -0.788   6.845  0.8618  0.0562  0.1125
   12SAPS   H7R 1512  -0.329  -0.879   6.906 -0.1052 -0.5312 -1.0126
   12SAPS   H7S 1513  -0.418  -0.758   6.827  0.3082 -2.4738 -0.9998
   12SAPS   C28 1514  -0.232  -0.687   6.924  0.4120 -0.2104 -0.1260
   12SAPS   H8R 1515  -0.194  -0.599   6.870  0.2877  0.5731  1.0465
   12SAPS   C29 1516  -0.211  -0.682   7.055 -0.6693  0.3071  0.6456
   12SAPS   H9R 1517  -0.134  -0.610   7.086 -0.9306  0.9311 -0.1401
   12SAPS  C210 1518  -0.248  -0.769   7.170 -0.4701 -0.0401  0.1395
   12SAPS  H10R 1519  -0.163  -0.833   7.202  0.3096  0.4680 -0.8734
   12SAPS  H10S 1520  -0.324  -0.845   7.140 -0.9896  0.6971 -0.4558
   12SAPS  C211 1521  -0.300  -0.687   7.280 -0.1129  0.2615  0.9316
   12SAPS  H11R 1522  -0.407  -0.665   7.272 -0.0472  0.6350  1.0675
   12SAPS  C212 1523  -0.231  -0.632   7.380  0.1136 -0.3741  0.5028
   12SAPS  H12R 1524  -0.283  -0.568   7.453 -1.0237  3.4187 -3.3927
   12SAPS  C213 1525  -0.078  -0.647   7.412 -0.8764 -0.4530 -0.0178
   12SAPS  H13R 1526  -0.028  -0.678   7.318 -1.1552 -0.2218 -0.2451
   12SAPS  H13S 1527  -0.056  -0.734   7.477 -2.9526 -0.9487  0.0589
   12SAPS  C214 1528  -0.014  -0.527   7.476  0.6322  0.5344 -0.1360
   12SAPS  H14R 1529   0.025  -0.453   7.404  0.5650 -0.5292 -1.2689
   12SAPS  C215 1530  -0.021  -0.507   7.611  0.6316 -0.0788 -0.3629
   12SAPS  H15R 1531   0.029  -0.422   7.658 -0.2359 -0.3683  1.1039
   12SAPS  C216 1532  -0.087  -0.597   7.707 -0.3763 -0.1015  0.9074
   12SAPS  H16R 1533  -0.069  -0.703   7.676  0.7817  0.4067 -0.1995
   12SAPS  H16S 1534  -0.197  -0.581   7.697 -0.4040 -0.4886  0.5660
   12SAPS  C217 1535  -0.059  -0.558   7.857 -0.1089  0.6264  0.9467
   12SAPS  H17R 1536  -0.082  -0.450   7.871  0.0655  1.3824 -3.6799
   12SAPS  H17S 1537   0.049  -0.577   7.876  0.3206  2.2858  0.2339
   12SAPS  C218 1538  -0.147  -0.643   7.949  0.2835  0.2936 -0.1690
   12SAPS  H18R 1539  -0.112  -0.629   8.054  0.0009  0.9031 -0.1517
   12SAPS  H18S 1540  -0.132  -0.749   7.921 -1.2635 -0.2795  1.1196
   12SAPS  C219 1541  -0.296  -0.607   7.952 -0.2037  0.7034  0.0973
   12SAPS  H19R 1542  -0.340  -0.706   7.978  0.7691 -0.5513 -2.7433
   12SAPS  H19S 1543  -0.334  -0.576   7.852  0.6936  2.5987  0.3218
   12SAPS  C220 1544  -0.326  -0.507   8.062  0.2374  0.0263  0.1814
   12SAPS  H20R 1545  -0.261  -0.417   8.051 -1.0140  0.8049 -1.1233
   12SAPS  H20S 1546  -0.296  -0.554   8.158  0.1194  2.1324  1.2783
   12SAPS  H20T 1547  -0.430  -0.471   8.045  0.4281  1.3350  1.6746
   12SAPS   C33 1548  -0.008  -0.210   6.903 -0.5197  0.3464 -0.6843
   12SAPS   H3X 1549  -0.028  -0.101   6.905 -0.5234  0.3420 -0.4802
   12SAPS   H3Y 1550   0.103  -0.216   6.906 -0.5819 -0.1369  1.9790
   12SAPS   C34 1551  -0.068  -0.286   7.023 -0.2666  0.1276 -0.6178
   12SAPS   H4X 1552  -0.056  -0.394   7.000  0.6852 -0.1542  1.0715
   12SAPS   H4Y 1553  -0.174  -0.261   7.046 -0.5401 -0.9027 -0.7602
   12SAPS   C35 1554   0.011  -0.266   7.154  1.0029  0.0553 -0.1453
   12SAPS   H5X 1555   0.120  -0.278   7.135  0.8459 -2.8073  0.6770
   12SAPS   H5Y 1556  -0.013  -0.350   7.222  0.2272 -0.5774 -1.1918
   12SAPS   C36 1557  -0.024  -0.131   7.219  0.1348 -0.0244  0.0182
   12SAPS   H6X 1558  -0.133  -0.123   7.238  0.2504  1.5471  0.0664
   12SAPS   H6Y 1559  -0.006  -0.045   7.151 -1.7326  0.5150  0.1723
   12SAPS   C37 1560   0.060  -0.103   7.341 -0.0496  0.4983 -0.2347
   12SAPS   H7X 1561   0.168  -0.116   7.318 -0.7055 -0.5840 -2.8720
   12SAPS   H7Y 1562   0.036  -0.176   7.422 -2.7645  3.7828  2.0563
   12SAPS   C38 1563   0.034   0.038   7.391 -0.6139  0.0380 -0.5828
   12SAPS   H8X 1564  -0.077   0.050   7.389 -0.5040  1.7222  1.5851
   12SAPS   H8Y 1565   0.082   0.105   7.316  2.2602  0.4116  1.5388
   12SAPS   C39 1566   0.076   0.054   7.536 -0.4816  0.5370  0.0719
   12SAPS   H9X 1567   0.054   0.159   7.562 -0.2600  0.8762 -1.0862
   12SAPS   H9Y 1568   0.186   0.039   7.540 -0.4822  0.1252 -1.0611
   12SAPS  C310 1569  -0.005  -0.029   7.635  0.3919  0.1609 -0.0716
   12SAPS  H10X 1570   0.014  -0.138   7.625  0.9128  0.4073 -2.0250
   12SAPS  H10Y 1571  -0.111  -0.015   7.604  0.4729  0.9122 -0.0273
   12SAPS  C311 1572   0.016   0.010   7.778  0.8029 -0.6566 -0.4208
   12SAPS  H11X 1573  -0.001   0.118   7.797 -0.8929 -0.6984 -1.5915
   12SAPS  H11Y 1574   0.122  -0.005   7.810  0.7241  0.7676  0.5553
   12SAPS  C312 1575  -0.076  -0.080   7.867 -1.4400  0.3389 -0.1098
   12SAPS  H12X 1576  -0.070  -0.189   7.843 -1.1729  0.4780 -0.6841
   12SAPS  H12Y 1577  -0.182  -0.069   7.839 -1.7713  0.0337  0.9771
   12SAPS  C313 1578  -0.055  -0.061   8.014 -0.4655 -1.1471 -0.3693
   12SAPS  H13X 1579  -0.062   0.049   8.032 -3.1636 -1.4682  0.8596
   12SAPS  H13Y 1580   0.051  -0.082   8.040 -0.6180 -2.6902 -0.9749
   12SAPS  C314 1581  -0.151  -0.128   8.113  0.4410 -0.1053  0.1909
   12SAPS  H14X 1582  -0.114  -0.233   8.116  2.2198  0.4319 -1.6350
   12SAPS  H14Y 1583  -0.257  -0.130   8.081 -0.0102 -0.7179  1.6639
   12SAPS  C315 1584  -0.130  -0.068   8.250  0.3629  0.0431 -0.9544
   12SAPS  H15X 1585  -0.136   0.043   8.242  1.0381  0.2881  1.5471
   12SAPS  H15Y 1586  -0.024  -0.081   8.279  0.0358 -0.4777  0.0170
   12SAPS  C316 1587  -0.221  -0.118   8.363  0.1525 -0.5595  0.0377
   12SAPS  H16X 1588  -0.324  -0.088   8.336  1.0774  4.2567  1.2760
   12SAPS  H16Y 1589  -0.184  -0.062   8.452  1.3132 -1.7164  0.3167
   12SAPS  C317 1590  -0.228  -0.275   8.392 -0.1603  1.1837 -0.1017
   12SAPS  H17X 1591  -0.122  -0.308   8.398 -0.2249  0.8614 -0.7134
   12SAPS  H17Y 1592  -0.269  -0.319   8.299  0.3556  0.3092  0.0836
   12SAPS  C318 1593  -0.290  -0.327   8.524  0.2422  1.0792  0.2985
   12SAPS  H18X 1594  -0.235  -0.293   8.614  2.0056  0.2570 -0.4480
   12SAPS  H18Y 1595  -0.282  -0.437   8.525 -1.2958  0.9418 -0.4448
   12SAPS  H18Z 1596  -0.396  -0.298   8.540 -0.4143  0.8072 -3.0147
   13SAPS     N 1597   0.140   3.750   6.041 -0.2502 -1.0225 -0.4925
   13SAPS   HN1 1598   0.091   3.839   6.022  1.9121  0.1629 -0.5940
   13SAPS   HN2 1599   0.069   3.674   6.044 -2.4119  0.7461 -3.8590
   13SAPS   HN3 1600   0.187   3.762   6.133 -0.8774  0.0237 -0.3081
   13SAPS   C12 1601   0.231   3.726   5.931 -0.5783  0.2071  0.1377
   13SAPS  H12A 1602   0.273   3.627   5.943 -0.6388  0.3416  1.5481
   13SAPS   C13 1603   0.147   3.734   5.796  0.6401 -0.1257 -0.2394
   13SAPS  O13A 1604   0.023   3.748   5.796 -0.0402 -0.9068 -0.1798
   13SAPS  O13B 1605   0.210   3.743   5.686  0.2971 -0.4754 -0.5006
   13SAPS   C11 1606   0.336   3.840   5.935  0.3896 -0.4793 -0.5526
   13SAPS  H11A 1607   0.295   3.943   5.935  1.6925  0.1577  3.7239
   13SAPS  H11B 1608   0.387   3.835   5.837 -0.4738  0.6482 -1.0699
   13SAPS     P 1609   0.590   3.824   6.015  0.0461  0.4731 -0.0886
   13SAPS   O13 1610   0.629   3.717   5.918  0.6338  0.2423 -0.3361
   13SAPS   O14 1611   0.625   3.963   5.963  0.2430  0.4076 -0.2005
   13SAPS   O12 1612   0.433   3.824   6.043 -0.4080 -0.0114 -0.1375
   13SAPS   O11 1613   0.657   3.795   6.163  0.5618  0.3215 -0.6740
   13SAPS    C1 1614   0.620   3.682   6.245  0.3293 -0.5978 -0.6881
   13SAPS    HA 1615   0.622   3.589   6.185 -1.9719 -0.5883 -0.8215
   13SAPS    HB 1616   0.696   3.664   6.324  0.0721  2.5107  0.3519
   13SAPS    C2 1617   0.481   3.674   6.312  0.3369  0.1629  0.1591
   13SAPS    HS 1618   0.415   3.666   6.224 -0.2034  0.1220  0.5667
   13SAPS   O21 1619   0.453   3.799   6.385 -0.1306 -0.0290 -0.3014
   13SAPS   C21 1620   0.329   3.827   6.380 -0.0764 -0.6302  0.2581
   13SAPS   O22 1621   0.248   3.782   6.297  0.5992  0.2836 -0.4842
   13SAPS   C22 1622   0.296   3.942   6.483  0.5395 -0.0504 -0.6262
   13SAPS   H2R 1623   0.396   3.976   6.516 -1.7947  2.9988  3.8378
   13SAPS   H2S 1624   0.233   4.016   6.429 -1.0315  0.2780  1.5903
   13SAPS    C3 1625   0.468   3.556   6.412  0.7116  0.6848  0.2427
   13SAPS    HX 1626   0.545   3.556   6.491  0.5041  1.0418  0.4475
   13SAPS    HY 1627   0.481   3.461   6.356 -1.3292 -0.5129  1.7363
   13SAPS   O31 1628   0.337   3.559   6.473 -0.5437 -0.5129 -0.2040
   13SAPS   C31 1629   0.241   3.496   6.398 -0.1654 -0.0902  0.0325
   13SAPS   O32 1630   0.265   3.429   6.301  0.0538 -0.6125 -0.4897
   13SAPS   C32 1631   0.105   3.524   6.450  0.4906  0.5290 -0.3033
   13SAPS   H2X 1632   0.055   3.568   6.361 -0.2767 -1.2678 -0.7679
   13SAPS   H2Y 1633   0.115   3.605   6.525 -0.4650  0.0842  0.2996
   13SAPS   C23 1634   0.224   3.883   6.607  0.0505  0.5621 -0.5709
   13SAPS   H3R 1635   0.291   3.809   6.656 -1.0469  0.4893  0.8660
   13SAPS   H3S 1636   0.131   3.833   6.570  1.4645 -0.1080 -3.3046
   13SAPS   C24 1637   0.182   3.992   6.712 -0.7355 -0.1431  0.2738
   13SAPS   H4R 1638   0.116   4.072   6.672 -0.8349 -0.4411 -0.1627
   13SAPS   H4S 1639   0.272   4.042   6.752  0.5817 -1.9432 -0.3451
   13SAPS   C25 1640   0.105   3.909   6.811  0.1651 -0.2181 -0.4783
   13SAPS   H5R 1641   0.022   3.852   6.767 -0.5136  0.2017  0.2569
   13SAPS   C26 1642   0.140   3.897   6.939  0.1092  0.6177 -0.2051
   13SAPS   H6R 1643   0.082   3.823   6.997 -0.1111 -0.1339 -1.3689
   13SAPS   C27 1644   0.256   3.962   7.012  0.4174 -0.0078  0.0575
   13SAPS   H7R 1645   0.353   3.960   6.959 -0.2031  0.9237 -1.1261
   13SAPS   H7S 1646   0.272   3.912   7.110  0.3249  1.8208  1.0232
   13SAPS   C28 1647   0.242   4.117   7.026 -0.9708  0.3482  0.2031
   13SAPS   H8R 1648   0.196   4.166   6.939  1.4176 -0.1282 -1.3593
   13SAPS   C29 1649   0.281   4.183   7.134  0.6625  0.5740  0.0218
   13SAPS   H9R 1650   0.276   4.293   7.130  0.3143  0.5823  0.7551
   13SAPS  C210 1651   0.338   4.121   7.257 -0.0753 -0.1768 -0.0163
   13SAPS  H10R 1652   0.449   4.118   7.254 -0.0430  0.9559 -0.1090
   13SAPS  H10S 1653   0.310   4.016   7.279  1.4572 -1.2883 -3.0150
   13SAPS  C211 1654   0.293   4.213   7.372 -0.4583 -0.7529  0.1437
   13SAPS  H11R 1655   0.221   4.294   7.357 -0.2792 -0.4389  0.9383
   13SAPS  C212 1656   0.355   4.198   7.495 -0.1119  0.0228  0.0559
   13SAPS  H12R 1657   0.317   4.256   7.581 -0.6436 -0.2676  0.0178
   13SAPS  C213 1658   0.462   4.103   7.535  0.3850  0.5972  0.0957
   13SAPS  H13R 1659   0.544   4.107   7.460 -1.2644  0.1589 -1.7746
   13SAPS  H13S 1660   0.430   3.996   7.539 -0.3619  0.8545  1.2712
   13SAPS  C214 1661   0.529   4.134   7.665 -0.3375  0.7243  0.4912
   13SAPS  H14R 1662   0.610   4.207   7.652 -0.2028  0.2017 -1.7386
   13SAPS  C215 1663   0.508   4.077   7.782  0.2719 -0.2139  0.3446
   13SAPS  H15R 1664   0.566   4.100   7.872  1.9293 -1.9267 -0.2557
   13SAPS  C216 1665   0.400   3.969   7.799  0.2952  0.2355  0.7008
   13SAPS  H16R 1666   0.350   3.940   7.704  0.4394 -1.0510  1.0124
   13SAPS  H16S 1667   0.317   4.012   7.860 -0.3049  0.8217 -0.5195
   13SAPS  C217 1668   0.468   3.848   7.864 -0.1205 -0.8599 -0.7504
   13SAPS  H17R 1669   0.538   3.810   7.787  0.1285 -1.0904 -0.4103
   13SAPS  H17S 1670   0.400   3.761   7.871  1.5086 -2.1076 -0.0433
   13SAPS  C218 1671   0.535   3.886   8.004  0.4995  0.6416  0.0217
   13SAPS  H18R 1672   0.453   3.929   8.066  1.6658  3.2064 -0.1549
   13SAPS  H18S 1673   0.622   3.954   7.991  2.4290 -1.4391  1.7739
   13SAPS  C219 1674   0.603   3.762   8.063 -0.2816  0.1755  0.3814
   13SAPS  H19R 1675   0.547   3.668   8.048  0.9910 -0.4111 -0.7238
   13SAPS  H19S 1676   0.609   3.781   8.173  3.0040 -3.2464  0.8765
   13SAPS  C220 1677   0.741   3.736   8.009  0.4371 -0.6634  0.5766
   13SAPS  H20R 1678   0.758   3.793   7.915 -1.8771 -1.7962 -0.5537
   13SAPS  H20S 1679   0.769   3.631   7.988  0.0238 -0.6746  0.0797
   13SAPS  H20T 1680   0.826   3.763   8.076 -0.6262 -0.7492  1.9706
   13SAPS   C33 1681   0.041   3.392   6.494  0.3555  0.2157  0.3117
   13SAPS   H3X 1682   0.048   3.317   6.413 -2.8140 -0.7606  0.8593
   13SAPS   H3Y 1683  -0.069   3.408   6.491  0.5467  1.6829  0.8605
   13SAPS   C34 1684   0.107   3.334   6.618 -0.4487  0.2270 -0.0454
   13SAPS   H4X 1685   0.215   3.316   6.599 -0.3823  1.2751 -0.6436
   13SAPS   H4Y 1686   0.056   3.235   6.620 -3.3787  1.6083 -2.5450
   13SAPS   C35 1687   0.089   3.407   6.751  0.3696 -0.1633 -0.2293
   13SAPS   H5X 1688  -0.021   3.412   6.769 -0.0730 -0.5233 -2.6601
   13SAPS   H5Y 1689   0.129   3.510   6.747  1.5745 -0.4643  2.7716
   13SAPS   C36 1690   0.163   3.343   6.874 -0.0908  0.4206 -0.1994
   13SAPS   H6X 1691   0.174   3.232   6.870  0.4689  0.3608  2.2178
   13SAPS   H6Y 1692   0.105   3.366   6.966 -1.6349  1.0947 -1.3287
   13SAPS   C37 1693   0.305   3.398   6.899 -0.4822 -0.2721 -0.3752
   13SAPS   H7X 1694   0.288   3.508   6.907  0.6040 -0.0184 -1.3135
   13SAPS   H7Y 1695   0.355   3.386   6.801  0.3368  1.2481 -0.1611
   13SAPS   C38 1696   0.378   3.356   7.030  0.2737  0.1687 -0.3416
   13SAPS   H8X 1697   0.468   3.421   7.030 -1.4552  2.6720 -2.3783
   13SAPS   H8Y 1698   0.419   3.254   7.012 -1.2455 -0.4094 -0.6290
   13SAPS   C39 1699   0.292   3.365   7.157  0.2044 -0.1978  1.0776
   13SAPS   H9X 1700   0.199   3.303   7.158  0.1083 -0.0497  1.4497
   13SAPS   H9Y 1701   0.263   3.471   7.173  0.8453  0.2611 -0.6748
   13SAPS  C310 1702   0.377   3.323   7.272  0.2318 -0.4416  0.4202
   13SAPS  H10X 1703   0.461   3.394   7.281 -0.7308  0.5346  1.9521
   13SAPS  H10Y 1704   0.425   3.228   7.241  0.0405 -0.3942 -0.0279
   13SAPS  C311 1705   0.304   3.327   7.404  0.0075 -0.2935 -0.4302
   13SAPS  H11X 1706   0.215   3.262   7.412  0.5002 -0.6364  2.7231
   13SAPS  H11Y 1707   0.271   3.432   7.425  0.0075 -0.4418  0.3316
   13SAPS  C312 1708   0.407   3.295   7.519  0.4334  0.3956 -0.5146
   13SAPS  H12X 1709   0.510   3.332   7.504  0.9715  1.0161  3.9416
   13SAPS  H12Y 1710   0.401   3.185   7.533  0.0979  0.5823  0.9380
   13SAPS  C313 1711   0.365   3.354   7.662  0.4593 -0.7619 -0.5108
   13SAPS  H13X 1712   0.261   3.321   7.683  0.6011 -0.0427  1.3890
   13SAPS  H13Y 1713   0.358   3.463   7.644 -0.7647 -0.6878  0.3798
   13SAPS  C314 1714   0.463   3.324   7.771  0.4121  0.8816  0.3781
   13SAPS  H14X 1715   0.551   3.391   7.770 -0.4775  2.0939  1.1070
   13SAPS  H14Y 1716   0.491   3.217   7.768  1.0558  1.0657 -0.0709
   13SAPS  C315 1717   0.409   3.352   7.921 -0.1401  0.0307  0.5673
   13SAPS  H15X 1718   0.315   3.293   7.933  1.4635 -2.2661  2.4417
   13SAPS  H15Y 1719   0.379   3.458   7.926 -0.6739 -0.0213 -1.0265
   13SAPS  C316 1720   0.503   3.311   8.035 -0.6169 -0.2154  0.1540
   13SAPS  H16X 1721   0.470   3.362   8.128 -0.0186  1.4545 -0.5284
   13SAPS  H16Y 1722   0.605   3.352   8.022 -1.5284  2.3825  0.8547
   13SAPS  C317 1723   0.516   3.151   8.059 -0.0626 -0.3983  0.0638
   13SAPS  H17X 1724   0.614   3.141   8.112 -0.3750 -2.5604  0.2745
   13SAPS  H17Y 1725   0.534   3.096   7.964  1.2772 -0.4891  0.3550
   13SAPS  C318 1726   0.398   3.096   8.150  0.3921 -0.3881  0.1655
   13SAPS  H18X 1727   0.403   2.986   8.159  0.8175 -0.3244  0.7845
   13SAPS  H18Y 1728   0.303   3.132   8.104  0.8161 -1.3734 -1.5437
   13SAPS  H18Z 1729   0.389   3.129   8.256 -3.0758  0.4998 -0.3399
   14SAPS     N 1730   0.013   5.255   5.779 -0.2293 -0.5624  0.4276
   14SAPS   HN1 1731  -0.021   5.233   5.684  1.6003 -0.2003 -0.3388
   14SAPS   HN2 1732   0.074   5.177   5.811  0.2503 -0.1078  0.6381
   14SAPS   HN3 1733  -0.068   5.260   5.844  0.2919  1.4907  0.9601
   14SAPS   C12 1734   0.095   5.383   5.764 -0.2126 -0.2475  0.6183
   14SAPS  H12A 1735   0.144   5.408   5.857  2.3741 -0.0245 -0.7480
   14SAPS   C13 1736   0.207   5.383   5.652 -0.4527  0.6589  0.8583
   14SAPS  O13A 1737   0.216   5.287   5.573 -0.7667  0.0686  0.0299
   14SAPS  O13B 1738   0.269   5.493   5.638 -0.2253 -0.1710  0.3360
   14SAPS   C11 1739  -0.003   5.497   5.739  0.1631  0.5064 -0.6911
   14SAPS  H11A 1740  -0.047   5.495   5.637 -0.0512 -1.1545 -0.5781
   14SAPS  H11B 1741   0.048   5.596   5.739 -0.4376  0.8271 -1.8423
   14SAPS     P 1742  -0.124   5.640   5.923 -0.3263  0.2059  0.3084
   14SAPS   O13 1743  -0.152   5.757   5.839  0.0199 -0.1613 -0.6328
   14SAPS   O14 1744  -0.227   5.609   6.022  0.6134 -0.3234 -0.1507
   14SAPS   O12 1745  -0.110   5.513   5.832  0.1588  0.3543 -0.2212
   14SAPS   O11 1746   0.020   5.653   5.987  0.7460 -0.6056 -0.1016
   14SAPS    C1 1747   0.056   5.555   6.083 -0.1430  0.2368  0.4423
   14SAPS    HA 1748   0.005   5.457   6.073  3.8387 -1.8202 -1.1563
   14SAPS    HB 1749   0.163   5.526   6.078 -0.1421  0.6039 -3.5040
   14SAPS    C2 1750   0.027   5.594   6.226 -0.8181 -0.1533 -0.2471
   14SAPS    HS 1751  -0.081   5.617   6.237 -0.8231 -0.3121  0.0168
   14SAPS   O21 1752   0.112   5.703   6.262  0.0302  0.2418 -0.5921
   14SAPS   C21 1753   0.049   5.802   6.323 -0.4354  0.7039 -0.2097
   14SAPS   O22 1754  -0.073   5.816   6.347 -0.7402 -0.2633  0.0523
   14SAPS   C22 1755   0.148   5.896   6.383 -0.0517 -0.5851 -0.2483
   14SAPS   H2R 1756   0.194   5.832   6.461  0.2920 -4.4634 -3.4820
   14SAPS   H2S 1757   0.228   5.920   6.309  2.6484  1.1146  3.0692
   14SAPS    C3 1758   0.065   5.480   6.329 -0.3785 -0.3216  0.7943
   14SAPS    HX 1759   0.172   5.452   6.316 -0.2159  0.3205  0.7296
   14SAPS    HY 1760   0.010   5.386   6.305  1.2278 -0.8392 -0.9399
   14SAPS   O31 1761   0.030   5.523   6.462 -1.1385 -0.0394  0.0697
   14SAPS   C31 1762  -0.092   5.517   6.507 -0.0601 -0.0319 -1.2821
   14SAPS   O32 1763  -0.186   5.474   6.444  0.0936  0.0089 -0.3051
   14SAPS   C32 1764  -0.103   5.578   6.656 -0.1615  0.2748  0.7349
   14SAPS   H2X 1765  -0.071   5.684   6.650 -1.0898  0.5315  0.2680
   14SAPS   H2Y 1766  -0.031   5.527   6.724  1.0104  1.3908  0.3471
   14SAPS   C23 1767   0.081   6.024   6.426  0.6399 -0.2776  1.0446
   14SAPS   H3R 1768   0.017   5.984   6.507 -1.4202 -2.6065 -1.6223
   14SAPS   H3S 1769   0.027   6.071   6.341  2.6465  1.4054  0.6444
   14SAPS   C24 1770   0.174   6.131   6.483  0.3727 -0.4056 -0.5783
   14SAPS   H4R 1771   0.103   6.201   6.532  2.5192 -0.0007  2.0682
   14SAPS   H4S 1772   0.228   6.189   6.405  0.3775 -0.8110 -0.8813
   14SAPS   C25 1773   0.268   6.078   6.593  0.7103 -0.2812 -0.5872
   14SAPS   H5R 1774   0.353   6.020   6.553  0.3959 -0.2242 -1.3414
   14SAPS   C26 1775   0.245   6.074   6.727 -0.1221 -0.0166  0.3443
   14SAPS   H6R 1776   0.325   6.026   6.785 -0.1617 -0.5577 -0.0421
   14SAPS   C27 1777   0.128   6.129   6.806  0.7011 -0.5045 -0.2989
   14SAPS   H7R 1778   0.094   6.053   6.879  2.6758 -1.6247 -0.5042
   14SAPS   H7S 1779   0.042   6.151   6.739  2.2622  1.1161 -1.8534
   14SAPS   C28 1780   0.154   6.257   6.879 -0.6077  0.5043  0.9112
   14SAPS   H8R 1781   0.150   6.347   6.816 -0.4060 -0.0204  0.1452
   14SAPS   C29 1782   0.190   6.277   7.007 -0.0798  0.2051  0.2149
   14SAPS   H9R 1783   0.205   6.379   7.044 -2.2665  0.4323  0.5977
   14SAPS  C210 1784   0.207   6.166   7.109  0.5005  0.7887 -0.7091
   14SAPS  H10R 1785   0.159   6.073   7.071  0.0486  0.7754 -0.1147
   14SAPS  H10S 1786   0.150   6.181   7.203 -0.5586  1.0487 -1.3758
   14SAPS  C211 1787   0.357   6.133   7.132  0.5631 -0.4826 -0.1582
   14SAPS  H11R 1788   0.406   6.075   7.052 -0.2986 -0.1970 -0.8920
   14SAPS  C212 1789   0.437   6.176   7.227  0.3284 -0.1723  0.1167
   14SAPS  H12R 1790   0.541   6.143   7.234  0.1004 -1.2014 -1.3470
   14SAPS  C213 1791   0.389   6.260   7.346 -0.0972 -0.3354 -0.2323
   14SAPS  H13R 1792   0.391   6.199   7.438  3.0385 -1.2282 -0.8270
   14SAPS  H13S 1793   0.285   6.297   7.335 -0.0440  0.9740  3.1193
   14SAPS  C214 1794   0.477   6.375   7.373  0.2612  0.4360  0.7578
   14SAPS  H14R 1795   0.510   6.422   7.279 -0.2942 -1.6006 -0.4910
   14SAPS  C215 1796   0.495   6.425   7.497  0.8173 -0.4984 -0.1055
   14SAPS  H15R 1797   0.562   6.512   7.508  2.4107 -1.6604 -0.5331
   14SAPS  C216 1798   0.432   6.378   7.624 -0.1263  0.9698  0.1381
   14SAPS  H16R 1799   0.506   6.376   7.707 -1.8338 -2.6535  1.6943
   14SAPS  H16S 1800   0.401   6.271   7.619  2.9562  0.0101  0.4032
   14SAPS  C217 1801   0.308   6.460   7.665 -0.2834 -0.2499  0.0909
   14SAPS  H17R 1802   0.245   6.394   7.728 -1.0724  0.6162  0.2168
   14SAPS  H17S 1803   0.251   6.490   7.575  1.9265 -1.3302 -1.7133
   14SAPS  C218 1804   0.340   6.574   7.763 -0.0883  0.1490  0.5820
   14SAPS  H18R 1805   0.249   6.636   7.782  0.7469  2.1797 -1.7106
   14SAPS  H18S 1806   0.422   6.639   7.726 -0.4694  1.3476  1.7723
   14SAPS  C219 1807   0.367   6.527   7.909 -0.3042 -0.3129  0.5438
   14SAPS  H19R 1808   0.431   6.436   7.914 -0.6701 -0.6305 -0.3339
   14SAPS  H19S 1809   0.269   6.494   7.947  0.2646 -1.0265  1.3934
   14SAPS  C220 1810   0.392   6.632   8.016  0.1009 -0.2538  0.2920
   14SAPS  H20R 1811   0.464   6.708   7.978 -0.7946  0.6686  0.4240
   14SAPS  H20S 1812   0.449   6.586   8.100  1.9493  0.3057 -0.6114
   14SAPS  H20T 1813   0.293   6.667   8.051 -0.4673 -1.0539 -0.4837
   14SAPS   C33 1814  -0.245   5.564   6.713  0.0465 -0.1309  0.5651
   14SAPS   H3X 1815  -0.272   5.461   6.744  0.6085 -0.4740 -0.0663
   14SAPS   H3Y 1816  -0.315   5.598   6.634 -0.0487  0.8702  1.0698
   14SAPS   C34 1817  -0.280   5.643   6.846 -0.1519  0.4193  0.0012
   14SAPS   H4X 1818  -0.257   5.752   6.840  0.2955  0.3373  0.2057
   14SAPS   H4Y 1819  -0.210   5.602   6.923 -1.4580 -2.3114 -0.2203
   14SAPS   C35 1820  -0.425   5.612   6.889  0.1067  0.2465 -0.9052
   14SAPS   H5X 1821  -0.451   5.504   6.890  0.5299  0.1420  1.5607
   14SAPS   H5Y 1822  -0.489   5.666   6.817 -1.9063 -0.6118  0.2121
   14SAPS   C36 1823  -0.475   5.664   7.024  0.9157 -0.2015  0.3566
   14SAPS   H6X 1824  -0.581   5.633   7.035  1.3577 -1.7688  0.3161
   14SAPS   H6Y 1825  -0.464   5.775   7.023  1.0303 -0.2126  0.3864
   14SAPS   C37 1826  -0.410   5.606   7.147 -0.6821  0.0682  0.7849
   14SAPS   H7X 1827  -0.448   5.652   7.240 -1.1001  0.6060  0.3519
   14SAPS   H7Y 1828  -0.305   5.641   7.138 -0.3386 -1.3006 -0.8969
   14SAPS   C38 1829  -0.425   5.454   7.165  0.5152  0.1264 -0.2840
   14SAPS   H8X 1830  -0.383   5.398   7.079  1.0715 -0.6021  0.4566
   14SAPS   H8Y 1831  -0.535   5.440   7.175  0.5043  1.4227  1.7594
   14SAPS   C39 1832  -0.362   5.387   7.291 -0.3937  0.0548  0.0723
   14SAPS   H9X 1833  -0.252   5.401   7.284 -0.3604  1.2230  2.3586
   14SAPS   H9Y 1834  -0.376   5.279   7.269 -1.9433  0.1029  0.7801
   14SAPS  C310 1835  -0.408   5.443   7.422  0.2836  0.2198  0.0231
   14SAPS  H10X 1836  -0.519   5.443   7.422  0.2378  0.1206  2.9625
   14SAPS  H10Y 1837  -0.382   5.549   7.444 -0.6853  0.2203  1.2338
   14SAPS  C311 1838  -0.366   5.365   7.552 -0.0670 -0.5430 -0.0036
   14SAPS  H11X 1839  -0.259   5.392   7.568  0.9028 -1.5106 -4.2697
   14SAPS  H11Y 1840  -0.370   5.256   7.528  0.6859 -0.8129  1.0247
   14SAPS  C312 1841  -0.462   5.385   7.675 -0.0495  0.1158 -0.1948
   14SAPS  H12X 1842  -0.563   5.365   7.635 -0.8373  1.2041  1.2084
   14SAPS  H12Y 1843  -0.461   5.494   7.699 -0.9973 -0.6162  3.3786
   14SAPS  C313 1844  -0.426   5.313   7.802  0.1996  0.1265  0.1143
   14SAPS  H13X 1845  -0.318   5.326   7.826  0.4770  0.6861 -1.4088
   14SAPS  H13Y 1846  -0.455   5.207   7.789 -0.5209  0.5343 -1.7201
   14SAPS  C314 1847  -0.508   5.371   7.918 -1.4690  0.2618  0.6166
   14SAPS  H14X 1848  -0.614   5.376   7.887 -1.2221 -1.1327 -0.4622
   14SAPS  H14Y 1849  -0.471   5.475   7.930 -0.2022 -0.0847 -0.2382
   14SAPS  C315 1850  -0.493   5.305   8.055 -0.6010 -0.0732  0.4802
   14SAPS  H15X 1851  -0.560   5.356   8.126 -1.7600  1.5757 -1.7275
   14SAPS  H15Y 1852  -0.388   5.314   8.091 -0.1305 -2.5251 -0.1208
   14SAPS  C316 1853  -0.515   5.153   8.067 -0.0330 -0.5853 -0.9317
   14SAPS  H16X 1854  -0.453   5.107   7.987 -3.0986  1.0801 -4.3911
   14SAPS  H16Y 1855  -0.623   5.136   8.050 -0.1138  0.1081 -1.1355
   14SAPS  C317 1856  -0.491   5.092   8.209 -0.1129 -0.1688  0.5195
   14SAPS  H17X 1857  -0.548   5.131   8.296 -0.7617 -0.8751  0.4178
   14SAPS  H17Y 1858  -0.383   5.105   8.232  0.5132 -1.6137 -1.4716
   14SAPS  C318 1859  -0.504   4.934   8.201 -0.8152  0.3416 -0.0763
   14SAPS  H18X 1860  -0.464   4.895   8.297 -0.2955 -0.9326 -0.7957
   14SAPS  H18Y 1861  -0.441   4.895   8.119  0.0394  3.0173 -0.7510
   14SAPS  H18Z 1862  -0.611   4.908   8.191 -1.0362  0.9036  0.7225
   15SAPS     N 1863   0.492   5.624   5.686 -0.4366  0.1485  0.1068
   15SAPS   HN1 1864   0.454   5.721   5.689  0.3609  0.5083 -1.0282
   15SAPS   HN2 1865   0.541   5.613   5.595 -2.1699  1.8888 -1.0882
   15SAPS   HN3 1866   0.415   5.555   5.695 -0.6714  0.3009 -0.6845
   15SAPS   C12 1867   0.598   5.611   5.793  0.2702  0.0409  0.2209
   15SAPS  H12A 1868   0.665   5.529   5.770 -0.7108 -1.0063  1.0225
   15SAPS   C13 1869   0.671   5.746   5.818 -0.2789  0.0057  0.1453
   15SAPS  O13A 1870   0.619   5.860   5.779 -0.2560  0.6407  0.1549
   15SAPS  O13B 1871   0.775   5.745   5.881 -0.4131 -0.9535 -0.0138
   15SAPS   C11 1872   0.526   5.567   5.926  0.2715 -0.5187 -0.6406
   15SAPS  H11A 1873   0.442   5.637   5.942  0.8383 -0.8870  4.9263
   15SAPS  H11B 1874   0.588   5.583   6.017 -0.7325 -0.0280 -0.0430
   15SAPS     P 1875   0.537   5.307   5.930  0.6260 -0.0451 -0.0845
   15SAPS   O13 1876   0.465   5.207   6.010 -0.1656 -0.2346 -0.5348
   15SAPS   O14 1877   0.589   5.266   5.802  0.3734  0.0460  0.1445
   15SAPS   O12 1878   0.462   5.442   5.926  0.0697 -0.0073  0.1571
   15SAPS   O11 1879   0.670   5.348   6.006 -0.1293  0.5534 -0.5389
   15SAPS    C1 1880   0.695   5.286   6.135 -0.2829 -0.6013 -0.5342
   15SAPS    HA 1881   0.658   5.181   6.131 -1.8665 -0.0757 -0.2058
   15SAPS    HB 1882   0.804   5.276   6.149  0.1572 -0.2300 -3.2469
   15SAPS    C2 1883   0.620   5.370   6.243  0.1012  0.1026 -0.0166
   15SAPS    HS 1884   0.516   5.384   6.206 -0.5308  1.0731  2.0672
   15SAPS   O21 1885   0.678   5.495   6.253 -0.5703 -0.0841 -0.0594
   15SAPS   C21 1886   0.610   5.603   6.294 -0.0199  0.8413 -0.6213
   15SAPS   O22 1887   0.497   5.601   6.337 -0.6643  0.0590 -0.5167
   15SAPS   C22 1888   0.695   5.725   6.274  1.2426  0.0867  0.0995
   15SAPS   H2R 1889   0.802   5.697   6.284  1.1364 -0.5626 -0.5500
   15SAPS   H2S 1890   0.683   5.750   6.166  0.6243  4.2842  1.0393
   15SAPS    C3 1891   0.619   5.293   6.378  0.6936  0.3596  0.2034
   15SAPS    HX 1892   0.723   5.271   6.411 -0.1517  0.3915  3.0063
   15SAPS    HY 1893   0.574   5.195   6.351 -0.5411  0.5444  1.5346
   15SAPS   O31 1894   0.543   5.360   6.483  0.0296 -0.0671 -0.1106
   15SAPS   C31 1895   0.412   5.334   6.475 -0.9002  0.2840  0.4779
   15SAPS   O32 1896   0.356   5.256   6.402 -0.2452 -0.1835  0.3265
   15SAPS   C32 1897   0.343   5.424   6.586  0.4870 -0.1825  0.8090
   15SAPS   H2X 1898   0.313   5.522   6.545  0.4661 -0.5381 -0.0420
   15SAPS   H2Y 1899   0.418   5.445   6.665  0.6945 -2.8459  1.3989
   15SAPS   C23 1900   0.649   5.852   6.353 -0.6183 -0.0252  0.4797
   15SAPS   H3R 1901   0.542   5.868   6.331 -0.5644 -2.0701 -1.4371
   15SAPS   H3S 1902   0.700   5.941   6.311  0.3980 -0.4910  0.6922
   15SAPS   C24 1903   0.663   5.843   6.504  0.4989 -0.4223  0.3418
   15SAPS   H4R 1904   0.763   5.804   6.532 -0.1881 -3.6178 -1.4489
   15SAPS   H4S 1905   0.600   5.758   6.539  0.4719 -0.4548  0.2138
   15SAPS   C25 1906   0.627   5.966   6.585 -0.1456 -0.0952 -0.6463
   15SAPS   H5R 1907   0.606   6.064   6.540  0.1540  0.8956  1.3179
   15SAPS   C26 1908   0.615   5.955   6.719 -0.7200 -0.0405 -0.6675
   15SAPS   H6R 1909   0.580   6.049   6.764 -2.7876 -0.9523 -0.3659
   15SAPS   C27 1910   0.631   5.840   6.814  0.0655 -0.2006  0.0496
   15SAPS   H7R 1911   0.729   5.840   6.866 -0.6233  1.8961  1.3776
   15SAPS   H7S 1912   0.623   5.739   6.768 -0.5162 -0.8594  1.5816
   15SAPS   C28 1913   0.535   5.846   6.928  0.2705 -0.0249 -0.1658
   15SAPS   H8R 1914   0.580   5.905   7.010 -0.4995 -0.3898  0.5373
   15SAPS   C29 1915   0.413   5.801   6.942 -0.3151  1.3527  0.0238
   15SAPS   H9R 1916   0.366   5.809   7.041  1.5540  0.6849  1.0090
   15SAPS  C210 1917   0.336   5.721   6.838  0.1113  0.3560 -0.8197
   15SAPS  H10R 1918   0.334   5.617   6.876 -0.1944  0.1669 -1.3414
   15SAPS  H10S 1919   0.385   5.713   6.739  1.2887  1.7033 -0.3613
   15SAPS  C211 1920   0.194   5.755   6.819 -0.0419 -0.2815  0.4190
   15SAPS  H11R 1921   0.166   5.790   6.719 -2.1927 -0.5981  0.8791
   15SAPS  C212 1922   0.091   5.751   6.900  1.2328 -0.5569  0.1895
   15SAPS  H12R 1923  -0.007   5.786   6.864  1.9955  2.0009  0.4677
   15SAPS  C213 1924   0.086   5.706   7.045 -0.5676 -0.0112 -0.5471
   15SAPS  H13R 1925   0.168   5.634   7.068 -0.2954  0.2936 -0.5708
   15SAPS  H13S 1926  -0.001   5.640   7.069 -0.7444  0.7332  0.9626
   15SAPS  C214 1927   0.097   5.832   7.134  0.3321 -0.6942 -0.1908
   15SAPS  H14R 1928   0.049   5.920   7.089  2.1529 -0.7612 -2.3481
   15SAPS  C215 1929   0.156   5.850   7.249 -0.2668  0.7038 -0.3858
   15SAPS  H15R 1930   0.147   5.954   7.283  2.4514  1.4379 -1.7366
   15SAPS  C216 1931   0.238   5.758   7.330 -1.1650 -0.4906 -0.7687
   15SAPS  H16R 1932   0.275   5.673   7.268 -0.3981 -0.9820  0.3358
   15SAPS  H16S 1933   0.178   5.710   7.409 -1.1055  1.9003  0.7741
   15SAPS  C217 1934   0.358   5.831   7.395 -0.6793 -0.2748 -0.5142
   15SAPS  H17R 1935   0.411   5.886   7.315 -2.4292  2.3921  0.0977
   15SAPS  H17S 1936   0.423   5.760   7.451 -2.0083 -0.9007  0.2595
   15SAPS  C218 1937   0.316   5.945   7.501 -0.7187 -0.3448  0.3511
   15SAPS  H18R 1938   0.243   6.015   7.454 -0.8703 -1.2421 -0.7588
   15SAPS  H18S 1939   0.415   5.994   7.516 -2.3319  3.3012 -0.2021
   15SAPS  C219 1940   0.260   5.909   7.641  0.5765 -0.3362 -0.0666
   15SAPS  H19R 1941   0.327   5.831   7.684  0.1085  0.9143  3.0421
   15SAPS  H19S 1942   0.159   5.862   7.640 -0.6688  2.2505  0.8300
   15SAPS  C220 1943   0.262   6.023   7.735 -0.4452 -0.3215 -0.0352
   15SAPS  H20R 1944   0.198   6.108   7.706  0.2558  0.5382  0.8918
   15SAPS  H20S 1945   0.364   6.065   7.750 -0.4838 -0.4313  0.5466
   15SAPS  H20T 1946   0.224   6.003   7.838 -2.0556 -1.1301 -0.7800
   15SAPS   C33 1947   0.214   5.363   6.661  1.0137 -0.5920  0.7037
   15SAPS   H3X 1948   0.141   5.317   6.592  1.0898  0.4752 -0.1003
   15SAPS   H3Y 1949   0.161   5.448   6.710  0.6307 -0.4912  0.1221
   15SAPS   C34 1950   0.225   5.248   6.761  0.1715  0.7380 -0.2588
   15SAPS   H4X 1951   0.278   5.167   6.706  0.3046  1.4695 -1.2066
   15SAPS   H4Y 1952   0.124   5.204   6.774  0.7350 -0.5024  0.0592
   15SAPS   C35 1953   0.289   5.279   6.901  0.2505 -0.2157  0.4139
   15SAPS   H5X 1954   0.238   5.361   6.956 -2.8287 -2.3759  0.9126
   15SAPS   H5Y 1955   0.390   5.318   6.874 -0.2010  0.5310 -0.1970
   15SAPS   C36 1956   0.315   5.146   6.983  0.6425 -0.0154 -0.6825
   15SAPS   H6X 1957   0.375   5.075   6.921 -0.3537 -2.5137  1.1308
   15SAPS   H6Y 1958   0.218   5.094   6.998  1.3313 -0.6527  1.8070
   15SAPS   C37 1959   0.376   5.162   7.126  0.2116  0.3718  0.1266
   15SAPS   H7X 1960   0.343   5.263   7.160 -0.3514 -0.0860  0.9591
   15SAPS   H7Y 1961   0.483   5.188   7.109  0.2776 -1.5694 -2.7828
   15SAPS   C38 1962   0.368   5.046   7.227 -0.2666  0.4399  0.7156
   15SAPS   H8X 1963   0.436   4.968   7.187 -1.4625 -0.3913  0.2782
   15SAPS   H8Y 1964   0.262   5.013   7.235 -0.5015  1.2706  1.1088
   15SAPS   C39 1965   0.426   5.092   7.367 -0.1417  0.2382 -0.1426
   15SAPS   H9X 1966   0.362   5.180   7.389 -0.5859 -0.8451  3.2096
   15SAPS   H9Y 1967   0.533   5.122   7.359 -0.5346  1.7118  0.1389
   15SAPS  C310 1968   0.421   4.991   7.479 -0.0341  0.9138  0.0506
   15SAPS  H10X 1969   0.470   4.891   7.475 -0.4480  0.6765  0.7491
   15SAPS  H10Y 1970   0.311   4.975   7.483 -0.1153  0.5338 -2.5504
   15SAPS  C311 1971   0.451   5.057   7.615  0.3788 -0.2549 -0.7856
   15SAPS  H11X 1972   0.370   5.131   7.627  2.1241  1.6484 -0.4038
   15SAPS  H11Y 1973   0.555   5.096   7.623  0.8348 -1.5272 -0.3038
   15SAPS  C312 1974   0.431   4.950   7.727  0.3932  0.4090 -0.6895
   15SAPS  H12X 1975   0.481   4.852   7.708 -0.3803  0.2396 -1.9332
   15SAPS  H12Y 1976   0.326   4.915   7.717 -0.1591  1.7832  0.2839
   15SAPS  C313 1977   0.459   4.994   7.864 -0.5995  0.6778 -0.4316
   15SAPS  H13X 1978   0.392   5.074   7.902 -0.4704 -0.1255  1.5509
   15SAPS  H13Y 1979   0.565   5.027   7.867 -0.2765 -0.3553 -0.0810
   15SAPS  C314 1980   0.428   4.879   7.955 -0.0476 -0.0838 -0.0217
   15SAPS  H14X 1981   0.497   4.798   7.923  0.0558 -0.1095  0.2665
   15SAPS  H14Y 1982   0.325   4.836   7.946  0.0057 -0.4963  1.1619
   15SAPS  C315 1983   0.455   4.904   8.099  0.3460 -0.6247  0.9032
   15SAPS  H15X 1984   0.390   4.987   8.133 -0.1598  0.0353 -1.5199
   15SAPS  H15Y 1985   0.564   4.923   8.114 -0.4745  3.8737  1.8257
   15SAPS  C316 1986   0.444   4.781   8.183  0.5132  0.1938  0.2134
   15SAPS  H16X 1987   0.500   4.698   8.135  0.0160 -0.3056  0.4910
   15SAPS  H16Y 1988   0.339   4.749   8.172  0.8481 -1.6405  1.9898
   15SAPS  C317 1989   0.479   4.793   8.329  0.0300 -0.7403  0.1668
   15SAPS  H17X 1990   0.588   4.789   8.347  0.2445 -0.2691 -1.0074
   15SAPS  H17Y 1991   0.452   4.696   8.377 -3.5463 -0.5616 -1.3195
   15SAPS  C318 1992   0.419   4.919   8.396 -0.4174 -0.2102 -0.1221
   15SAPS  H18X 1993   0.459   5.009   8.344 -0.0181  0.8646  2.0112
   15SAPS  H18Y 1994   0.445   4.928   8.503  0.7942  0.8146 -0.4801
   15SAPS  H18Z 1995   0.309   4.922   8.383 -0.3375 -2.1449 -1.4808
   16SAPS     N 1996   2.114   0.609   6.551 -0.4539 -0.8073 -0.6290
   16SAPS   HN1 1997   2.060   0.698   6.556 -0.1412 -0.6025 -0.8658
   16SAPS   HN2 1998   2.056   0.534   6.509  0.7574 -1.5761 -0.9480
   16SAPS   HN3 1999   2.140   0.568   6.643  1.3019  1.3613 -0.1003
   16SAPS   C12 2000   2.228   0.627   6.450 -0.4108  0.8181 -0.3826
   16SAPS  H12A 2001   2.307   0.555   6.461 -1.7841 -0.5074  1.0959
   16SAPS   C13 2002   2.181   0.620   6.305  0.0176  0.0673  0.1305
   16SAPS  O13A 2003   2.055   0.616   6.280 -0.4658 -0.1626 -0.0486
   16SAPS  O13B 2004   2.262   0.611   6.210 -0.0109  0.0228 -0.1791
   16SAPS   C11 2005   2.290   0.766   6.481  1.3364  0.6128 -0.1577
   16SAPS  H11A 2006   2.211   0.843   6.472  0.8962  0.3032  0.9540
   16SAPS  H11B 2007   2.378   0.787   6.417  0.3380  2.4728 -0.9725
   16SAPS     P 2008   2.381   0.893   6.691 -0.0145 -0.4044 -0.1971
   16SAPS   O13 2009   2.526   0.885   6.714  1.0374  0.2580  0.0266
   16SAPS   O14 2010   2.344   1.008   6.607 -0.4307  0.0365 -0.4626
   16SAPS   O12 2011   2.343   0.758   6.608  0.0130 -1.0080 -0.2183
   16SAPS   O11 2012   2.302   0.881   6.821  0.7094  0.1089 -0.3654
   16SAPS    C1 2013   2.286   0.751   6.874  0.6827  0.7252 -0.9066
   16SAPS    HA 2014   2.199   0.713   6.816  0.5357 -0.3046 -0.0299
   16SAPS    HB 2015   2.375   0.685   6.877 -1.8719 -2.8283  2.7935
   16SAPS    C2 2016   2.234   0.768   7.016 -0.5150  0.0903 -0.5563
   16SAPS    HS 2017   2.318   0.772   7.089 -2.1326 -0.1938  1.3565
   16SAPS   O21 2018   2.146   0.657   7.040  0.3593 -0.1571  0.3893
   16SAPS   C21 2019   2.141   0.604   7.160  0.3442 -0.9163  0.4966
   16SAPS   O22 2020   2.191   0.646   7.260 -0.2124  0.0642 -0.7986
   16SAPS   C22 2021   2.070   0.472   7.151  0.5521  0.6117  0.0469
   16SAPS   H2R 2022   1.964   0.488   7.121  0.1352  1.3955  1.9131
   16SAPS   H2S 2023   2.111   0.400   7.077  0.9849  1.0110 -0.1018
   16SAPS    C3 2024   2.155   0.909   7.026  0.0878 -0.0941 -1.0679
   16SAPS    HX 2025   2.074   0.903   6.950 -1.6845 -0.5960  0.7936
   16SAPS    HY 2026   2.228   0.990   7.008  1.5652 -1.1081  0.2481
   16SAPS   O31 2027   2.091   0.943   7.156  0.0692 -0.1636 -0.8297
   16SAPS   C31 2028   1.978   0.891   7.195  0.5426 -0.6757 -0.4100
   16SAPS   O32 2029   1.909   0.810   7.130  0.4840 -0.3665  0.4356
   16SAPS   C32 2030   1.939   0.966   7.321 -0.7472 -0.1915 -0.6475
   16SAPS   H2X 2031   1.829   0.955   7.329 -0.8160  0.1411 -1.1514
   16SAPS   H2Y 2032   1.972   1.072   7.320 -0.5477 -0.2197  0.9306
   16SAPS   C23 2033   2.072   0.397   7.282  0.4234  0.5370  0.1723
   16SAPS   H3R 2034   2.127   0.449   7.363  0.4345  2.5415 -1.0999
   16SAPS   H3S 2035   2.121   0.298   7.270 -1.3096 -0.5317  1.5288
   16SAPS   C24 2036   1.929   0.355   7.318 -0.2867 -0.1592 -0.4148
   16SAPS   H4R 2037   1.930   0.289   7.408  1.1833  0.8739  0.3420
   16SAPS   H4S 2038   1.896   0.305   7.224 -2.8312 -0.1321  0.4195
   16SAPS   C25 2039   1.839   0.473   7.348 -0.3517  0.0755  0.0608
   16SAPS   H5R 2040   1.770   0.501   7.267  0.6500 -0.2862 -0.9480
   16SAPS   C26 2041   1.831   0.545   7.460  0.1656  0.1181 -0.6407
   16SAPS   H6R 2042   1.753   0.620   7.481  0.5181  0.2973  0.0708
   16SAPS   C27 2043   1.913   0.519   7.587 -0.4583  0.0006 -0.1201
   16SAPS   H7R 2044   1.940   0.610   7.646 -2.1116  0.0907  0.5521
   16SAPS   H7S 2045   2.014   0.484   7.558 -0.3701  2.1436 -2.5260
   16SAPS   C28 2046   1.843   0.414   7.677 -0.1025 -0.2513 -0.1700
   16SAPS   H8R 2047   1.857   0.311   7.642  2.6045 -0.9337  2.6787
   16SAPS   C29 2048   1.775   0.440   7.788 -0.5365  0.1657 -0.0573
   16SAPS   H9R 2049   1.723   0.359   7.840 -1.0537  0.2714 -0.4005
   16SAPS  C210 2050   1.747   0.568   7.860 -0.2910 -0.0166 -0.5441
   16SAPS  H10R 2051   1.638   0.567   7.882 -0.3848 -3.6018 -0.9568
   16SAPS  H10S 2052   1.758   0.655   7.791  3.3311 -0.2349 -0.3164
   16SAPS  C211 2053   1.815   0.596   7.985  0.0807 -0.3261 -0.0212
   16SAPS  H11R 2054   1.908   0.654   7.979  0.3643 -0.8156 -0.4041
   16SAPS  C212 2055   1.779   0.551   8.106  0.0548 -0.3471  0.0785
   16SAPS  H12R 2056   1.853   0.567   8.186  2.2437  2.1879 -2.3479
   16SAPS  C213 2057   1.668   0.456   8.140 -0.1427 -0.0907 -0.2544
   16SAPS  H13R 2058   1.712   0.367   8.189 -0.6880 -0.2555 -0.0593
   16SAPS  H13S 2059   1.624   0.419   8.045  1.7388  1.0153 -1.5921
   16SAPS  C214 2060   1.556   0.520   8.221 -0.8936  0.1924  0.6282
   16SAPS  H14R 2061   1.524   0.616   8.178 -0.8296 -0.2677 -0.4776
   16SAPS  C215 2062   1.509   0.487   8.341  0.6061 -0.8614 -0.4236
   16SAPS  H15R 2063   1.429   0.549   8.385  2.3638  1.6014 -0.6231
   16SAPS  C216 2064   1.547   0.362   8.421 -0.3783  0.5818  0.0882
   16SAPS  H16R 2065   1.646   0.321   8.392 -0.6941  0.6674 -1.1193
   16SAPS  H16S 2066   1.481   0.279   8.391 -2.1646  1.6936  0.8740
   16SAPS  C217 2067   1.555   0.385   8.572 -0.5929  0.3048 -0.3228
   16SAPS  H17R 2068   1.461   0.415   8.623 -1.1543 -1.2586 -0.4337
   16SAPS  H17S 2069   1.630   0.465   8.590 -0.3643  0.2721 -1.1200
   16SAPS  C218 2070   1.592   0.265   8.662 -0.3521  0.7997 -0.1900
   16SAPS  H18R 2071   1.610   0.311   8.762  0.4862 -0.2264  0.1489
   16SAPS  H18S 2072   1.692   0.223   8.638 -1.1941 -1.4293  0.1016
   16SAPS  C219 2073   1.481   0.166   8.673  0.1305  0.1979  0.2193
   16SAPS  H19R 2074   1.451   0.119   8.577  3.8847 -0.9239 -0.4824
   16SAPS  H19S 2075   1.396   0.217   8.723 -0.0908 -0.0025  0.0482
   16SAPS  C220 2076   1.520   0.051   8.768 -0.1764 -0.2161  0.4894
   16SAPS  H20R 2077   1.621   0.013   8.741 -0.4502 -1.3957  1.0702
   16SAPS  H20S 2078   1.461  -0.043   8.764 -1.7272  0.7415  0.6097
   16SAPS  H20T 2079   1.514   0.098   8.868  2.1874  0.9406  0.1246
   16SAPS   C33 2080   1.992   0.897   7.453  0.6136 -0.2919  0.0941
   16SAPS   H3X 2081   2.102   0.913   7.458  0.2770  1.7003  1.7694
   16SAPS   H3Y 2082   1.961   0.793   7.433 -1.2631  0.4441 -0.9393
   16SAPS   C34 2083   1.916   0.944   7.573 -0.7260  0.1614  0.0427
   16SAPS   H4X 2084   1.957   0.904   7.668  1.7829 -1.0159 -1.4847
   16SAPS   H4Y 2085   1.810   0.911   7.575 -0.7394  0.0954 -1.1639
   16SAPS   C35 2086   1.937   1.095   7.587  0.7009 -0.0690  0.0657
   16SAPS   H5X 2087   1.844   1.144   7.550  0.9655  0.5682  0.2292
   16SAPS   H5Y 2088   2.020   1.124   7.519  1.0913  0.3108  0.6987
   16SAPS   C36 2089   1.966   1.143   7.732  0.3204  0.3316  0.5820
   16SAPS   H6X 2090   2.065   1.096   7.754  0.4773  0.4505  0.1208
   16SAPS   H6Y 2091   1.882   1.098   7.789 -1.3581 -0.3334 -2.3632
   16SAPS   C37 2092   1.965   1.293   7.757  0.2684 -0.4937 -0.2140
   16SAPS   H7X 2093   1.860   1.324   7.737  0.8232  0.2847 -1.9265
   16SAPS   H7Y 2094   2.032   1.342   7.684 -0.0701 -0.1910 -0.3196
   16SAPS   C38 2095   1.993   1.333   7.900 -0.5123 -0.4915 -0.0280
   16SAPS   H8X 2096   1.974   1.442   7.910 -1.8488 -0.6231 -1.0077
   16SAPS   H8Y 2097   2.102   1.312   7.910 -0.5059 -0.6793 -0.4612
   16SAPS   C39 2098   1.914   1.260   8.004  0.2780 -0.3011  0.0972
   16SAPS   H9X 2099   1.929   1.150   7.998  1.3426 -0.1559  0.0452
   16SAPS   H9Y 2100   1.807   1.284   7.985  0.3953  0.6592  0.6108
   16SAPS  C310 2101   1.950   1.315   8.143  0.2409 -0.3725  0.1302
   16SAPS  H10X 2102   1.958   1.425   8.132 -1.6029 -0.4744 -2.7954
   16SAPS  H10Y 2103   2.050   1.274   8.165  1.2041  2.9084  2.3095
   16SAPS  C311 2104   1.860   1.272   8.253  0.4451 -0.1021 -0.2806
   16SAPS  H11X 2105   1.863   1.163   8.276  1.3073  0.0288  0.2193
   16SAPS  H11Y 2106   1.762   1.297   8.207  0.6498  0.5748 -0.3472
   16SAPS  C312 2107   1.873   1.351   8.380  0.3098 -0.3217  0.8136
   16SAPS  H12X 2108   1.885   1.459   8.361 -1.2457 -0.2165  0.3866
   16SAPS  H12Y 2109   1.959   1.323   8.445  1.5661  1.6455  0.0416
   16SAPS  C313 2110   1.741   1.345   8.463  0.3961 -1.3717  0.0050
   16SAPS  H13X 2111   1.701   1.242   8.478 -0.5018 -1.1061 -0.5051
   16SAPS  H13Y 2112   1.653   1.377   8.402  0.2078 -2.7438 -0.4757
   16SAPS  C314 2113   1.734   1.444   8.593  0.1168 -0.2460  0.6677
   16SAPS  H14X 2114   1.628   1.438   8.624  0.1814  0.0765  0.9441
   16SAPS  H14Y 2115   1.760   1.544   8.553 -2.0984 -0.3067 -1.0430
   16SAPS  C315 2116   1.837   1.413   8.699  0.4163 -0.3821 -0.1840
   16SAPS  H15X 2117   1.862   1.305   8.691 -1.2048 -0.8150  0.4588
   16SAPS  H15Y 2118   1.776   1.415   8.792  1.6331  2.0222  0.5930
   16SAPS  C316 2119   1.960   1.509   8.705  0.6747 -0.4121  0.4986
   16SAPS  H16X 2120   1.933   1.617   8.715  3.2732  0.4808 -1.5592
   16SAPS  H16Y 2121   2.010   1.501   8.606  0.4644 -3.3282  0.6030
   16SAPS  C317 2122   2.056   1.489   8.823  0.0611 -0.5468  0.4758
   16SAPS  H17X 2123   2.142   1.553   8.794 -0.5080 -0.3240 -0.7897
   16SAPS  H17Y 2124   2.093   1.385   8.812 -0.6742 -0.7031 -0.7077
   16SAPS  C318 2125   2.002   1.520   8.964  0.3970  0.4336 -0.2889
   16SAPS  H18X 2126   1.953   1.619   8.958 -2.0849 -0.7483  0.0923
   16SAPS  H18Y 2127   2.076   1.503   9.045 -2.9639 -4.0955  2.0807
   16SAPS  H18Z 2128   1.917   1.452   8.984  0.3703  0.5601  0.0197
   17SAPC     N 2129   0.534   3.502  10.769  0.1814 -0.8325 -0.3962
   17SAPC   C12 2130   0.458   3.390  10.707 -0.2174 -0.0810 -0.0579
   17SAPC  H12A 2131   0.380   3.355  10.773  0.1623 -3.3832 -1.2602
   17SAPC  H12B 2132   0.518   3.301  10.696 -0.7055 -0.6292  1.5661
   17SAPC   C13 2133   0.549   3.476  10.915  0.0212  0.1594 -0.4443
   17SAPC  H13A 2134   0.470   3.417  10.959  1.0903  0.5693  2.0689
   17SAPC  H13B 2135   0.633   3.410  10.930  0.7717  0.9929 -0.9944
   17SAPC  H13C 2136   0.563   3.572  10.961 -4.4316  0.6899  0.0189
   17SAPC   C14 2137   0.670   3.507  10.719 -0.3744  0.3088  0.5253
   17SAPC  H14A 2138   0.673   3.525  10.613 -0.8188 -0.2045  0.4250
   17SAPC  H14B 2139   0.718   3.593  10.763 -0.1840  0.2375  0.4581
   17SAPC  H14C 2140   0.729   3.422  10.750  0.0610  1.1218  2.0275
   17SAPC   C15 2141   0.468   3.635  10.745  0.4668  0.3911 -0.6337
   17SAPC  H15A 2142   0.522   3.718  10.789  0.2833 -0.5529  1.4126
   17SAPC  H15B 2143   0.464   3.665  10.642  2.3471 -0.6584 -1.0330
   17SAPC  H15C 2144   0.366   3.632  10.781  0.6579  0.0529 -0.1077
   17SAPC   C11 2145   0.400   3.419  10.566  0.1223 -0.0963 -0.2125
   17SAPC  H11A 2146   0.310   3.483  10.576  0.3573 -0.2113  3.2849
   17SAPC  H11B 2147   0.354   3.320  10.547 -0.1783 -0.5932  2.7962
   17SAPC     P 2148   0.460   3.563  10.375  0.0516  0.3537  0.0809
   17SAPC   O13 2149   0.444   3.688  10.454 -0.0894 -0.2141  0.1725
   17SAPC   O14 2150   0.564   3.575  10.274 -0.7128  0.6185  0.1224
   17SAPC   O12 2151   0.506   3.450  10.474 -0.3802 -0.3604 -0.0182
   17SAPC   O11 2152   0.328   3.499  10.317 -0.8721  0.3039  0.1579
   17SAPC    C1 2153   0.326   3.391  10.226  0.1039 -0.1811  0.1804
   17SAPC    HA 2154   0.431   3.354  10.222  0.8139  1.7707  0.1457
   17SAPC    HB 2155   0.264   3.305  10.259 -0.3264  0.5319  1.2743
   17SAPC    C2 2156   0.283   3.435  10.080 -0.7946 -0.0139 -0.8680
   17SAPC    HS 2157   0.276   3.346  10.015  2.3562 -0.6165 -0.4378
   17SAPC   O21 2158   0.377   3.525  10.026 -0.2358 -0.0306 -0.2515
   17SAPC   C21 2159   0.496   3.474   9.984  0.3123  0.3079  0.4455
   17SAPC   O22 2160   0.517   3.353   9.973  0.9812 -0.4916  0.5347
   17SAPC   C22 2161   0.596   3.580   9.923  0.4842  0.3194 -0.4271
   17SAPC   H2R 2162   0.649   3.628  10.008  0.2474  0.8120 -0.5557
   17SAPC   H2S 2163   0.664   3.511   9.868  1.1897 -0.5184  1.4652
   17SAPC    C3 2164   0.142   3.501  10.088 -0.0303  0.7877  0.3496
   17SAPC    HX 2165   0.125   3.591  10.152 -0.7305 -0.0131  1.3094
   17SAPC    HY 2166   0.088   3.424  10.147  2.3497 -1.3564 -0.1789
   17SAPC   O31 2167   0.080   3.495   9.959  0.2953  0.7043  0.3207
   17SAPC   C31 2168   0.112   3.597   9.882 -0.1120  0.4217 -0.3284
   17SAPC   O32 2169   0.167   3.697   9.919  0.4927  0.4513 -0.1778
   17SAPC   C32 2170   0.070   3.566   9.737 -0.1985  0.1367  0.4497
   17SAPC   H2X 2171   0.157   3.591   9.672 -0.4664  2.1352  0.8230
   17SAPC   H2Y 2172  -0.003   3.647   9.719  0.7059  0.8104 -0.2671
   17SAPC   C23 2173   0.525   3.677   9.825  0.6629 -0.5365 -0.0351
   17SAPC   H3R 2174   0.576   3.774   9.843  2.8419 -1.6437 -0.0598
   17SAPC   H3S 2175   0.417   3.699   9.842  1.2134  0.5556  2.3611
   17SAPC   C24 2176   0.561   3.636   9.677  0.0189 -0.1205 -0.3875
   17SAPC   H4R 2177   0.669   3.612   9.665  0.3856  1.6422 -0.7055
   17SAPC   H4S 2178   0.552   3.728   9.616  0.8068 -0.7452 -1.4725
   17SAPC   C25 2179   0.489   3.515   9.621 -0.5104  0.4892  0.1196
   17SAPC   H5R 2180   0.476   3.428   9.686 -0.2061  1.3791  1.3978
   17SAPC   C26 2181   0.422   3.512   9.510  0.0199 -0.0659  0.5548
   17SAPC   H6R 2182   0.366   3.423   9.479 -0.9820  0.7794 -0.0916
   17SAPC   C27 2183   0.422   3.625   9.404  0.2246  0.5569 -0.2274
   17SAPC   H7R 2184   0.420   3.589   9.299 -2.5475  2.1552 -0.7436
   17SAPC   H7S 2185   0.514   3.687   9.409 -0.6411  1.8124  0.3387
   17SAPC   C28 2186   0.300   3.711   9.436 -0.2674  0.6046 -0.4931
   17SAPC   H8R 2187   0.286   3.725   9.544  1.6039 -0.1246 -0.1375
   17SAPC   C29 2188   0.211   3.761   9.349  0.0600 -0.3395  1.0450
   17SAPC   H9R 2189   0.121   3.814   9.384 -0.6504  0.7325 -2.1834
   17SAPC  C210 2190   0.202   3.736   9.202 -0.8547  0.1254  0.4560
   17SAPC  H10R 2191   0.290   3.680   9.164 -0.9809 -0.2323  0.6896
   17SAPC  H10S 2192   0.202   3.833   9.147 -1.7587  0.1290  0.4581
   17SAPC  C211 2193   0.071   3.667   9.164  0.1803 -0.1502  0.1415
   17SAPC  H11R 2194  -0.010   3.740   9.152 -1.5528 -1.6721  2.4194
   17SAPC  C212 2195   0.058   3.538   9.135 -0.4311 -0.1472  0.7897
   17SAPC  H12R 2196  -0.038   3.486   9.119 -0.1663 -0.1289 -0.9155
   17SAPC  C213 2197   0.171   3.436   9.149  0.3169 -0.0614  0.0198
   17SAPC  H13R 2198   0.117   3.340   9.167 -2.5151  1.6421  1.0474
   17SAPC  H13S 2199   0.225   3.467   9.241 -1.8131  2.6709  0.4439
   17SAPC  C214 2200   0.273   3.425   9.047  0.1669  0.4251 -0.1601
   17SAPC  H14R 2201   0.368   3.477   9.066  1.0529 -0.6009 -1.6819
   17SAPC  C215 2202   0.254   3.354   8.933 -0.1908 -0.4754 -0.0048
   17SAPC  H15R 2203   0.340   3.342   8.866  0.2758  1.2105  0.2713
   17SAPC  C216 2204   0.127   3.276   8.898  0.5446  0.4430 -0.2076
   17SAPC  H16R 2205   0.048   3.353   8.906 -1.0206 -0.8144 -2.8167
   17SAPC  H16S 2206   0.102   3.199   8.974 -2.5396 -1.9230 -3.4471
   17SAPC  C217 2207   0.124   3.202   8.763 -0.5991  0.1335  0.6278
   17SAPC  H17R 2208   0.142   3.278   8.685  4.1401 -0.5753  0.9170
   17SAPC  H17S 2209   0.020   3.164   8.752 -0.8184  1.1919 -1.0769
   17SAPC  C218 2210   0.226   3.088   8.731 -0.0671  0.0125 -0.2524
   17SAPC  H18R 2211   0.326   3.132   8.748 -0.1544  0.9320 -2.0176
   17SAPC  H18S 2212   0.238   3.048   8.628  1.5708 -0.5285  0.1302
   17SAPC  C219 2213   0.201   2.972   8.828 -0.0770  0.4529  0.5264
   17SAPC  H19R 2214   0.256   2.995   8.922 -0.4329  0.6318  0.6922
   17SAPC  H19S 2215   0.253   2.887   8.779 -0.6940 -0.0068  0.6498
   17SAPC  C220 2216   0.061   2.929   8.861  1.0768 -0.2598 -0.4879
   17SAPC  H20R 2217  -0.015   2.953   8.783 -0.0025  0.1526  0.6739
   17SAPC  H20S 2218   0.030   2.977   8.956 -1.1798 -1.4592 -0.5875
   17SAPC  H20T 2219   0.048   2.821   8.883  1.7187 -0.2133  0.1235
   17SAPC   C33 2220  -0.001   3.434   9.685  0.0420 -0.0798 -0.2627
   17SAPC   H3X 2221  -0.077   3.393   9.755 -0.0931  0.0546 -0.3285
   17SAPC   H3Y 2222   0.075   3.356   9.665  1.3061  1.2387 -0.7158
   17SAPC   C34 2223  -0.070   3.472   9.548  0.3437  0.1642 -0.4553
   17SAPC   H4X 2224   0.008   3.501   9.474  1.4893  1.3763  1.1603
   17SAPC   H4Y 2225  -0.147   3.550   9.565 -0.0423 -0.4515  0.7001
   17SAPC   C35 2226  -0.148   3.350   9.499  0.1527  0.9630 -0.4502
   17SAPC   H5X 2227  -0.209   3.306   9.581  2.5142  0.1327  0.9144
   17SAPC   H5Y 2228  -0.079   3.264   9.481 -2.1120 -0.7634 -1.1262
   17SAPC   C36 2229  -0.236   3.376   9.375  0.7025  0.3440  0.3982
   17SAPC   H6X 2230  -0.184   3.431   9.293 -0.6880  1.9875  0.5914
   17SAPC   H6Y 2231  -0.324   3.433   9.411  0.9074  0.4929  0.6607
   17SAPC   C37 2232  -0.290   3.247   9.325 -0.1536  0.2463  0.0458
   17SAPC   H7X 2233  -0.358   3.204   9.401 -1.3415 -0.4979 -1.4028
   17SAPC   H7Y 2234  -0.206   3.176   9.312 -0.4878 -0.1925  0.2963
   17SAPC   C38 2235  -0.375   3.269   9.193 -0.8786 -0.0816 -0.4865
   17SAPC   H8X 2236  -0.426   3.367   9.201 -0.2576  0.1090  1.6407
   17SAPC   H8Y 2237  -0.446   3.185   9.184  0.4094 -1.1807 -0.6304
   17SAPC   C39 2238  -0.280   3.276   9.069  0.7012 -0.2256  0.2121
   17SAPC   H9X 2239  -0.256   3.172   9.038  2.1357  0.3824 -0.7801
   17SAPC   H9Y 2240  -0.188   3.328   9.102 -0.0803 -0.0899  2.2626
   17SAPC  C310 2241  -0.346   3.349   8.953  0.2211  0.5647 -0.8468
   17SAPC  H10X 2242  -0.366   3.453   8.986 -1.9277  0.3018 -1.2469
   17SAPC  H10Y 2243  -0.447   3.305   8.939  1.6959 -3.3578  0.3124
   17SAPC  C311 2244  -0.262   3.345   8.820 -0.3743  0.0984  0.0001
   17SAPC  H11X 2245  -0.245   3.236   8.808  0.9486  0.5014 -1.8822
   17SAPC  H11Y 2246  -0.165   3.392   8.848 -0.4273 -0.0578  0.4624
   17SAPC  C312 2247  -0.341   3.405   8.699  0.5378 -0.4615  0.6465
   17SAPC  H12X 2248  -0.272   3.403   8.611 -3.6662 -1.5103 -2.7751
   17SAPC  H12Y 2249  -0.366   3.510   8.727  0.3190 -0.9538  2.3400
   17SAPC  C313 2250  -0.468   3.326   8.669  0.3015  0.3804  0.3372
   17SAPC  H13X 2251  -0.534   3.337   8.757 -0.7478  0.9784 -0.5081
   17SAPC  H13Y 2252  -0.449   3.217   8.662  1.3573  0.5975 -0.4357
   17SAPC  C314 2253  -0.525   3.366   8.534 -1.2525 -0.0420  0.1957
   17SAPC  H14X 2254  -0.439   3.354   8.465 -0.0950  0.4326  1.5355
   17SAPC  H14Y 2255  -0.544   3.475   8.550 -2.4540 -0.3355  0.8262
   17SAPC  C315 2256  -0.644   3.276   8.492 -0.8854 -0.2761 -0.4529
   17SAPC  H15X 2257  -0.719   3.265   8.573 -0.6387 -1.9817 -0.4360
   17SAPC  H15Y 2258  -0.615   3.175   8.455 -2.1373 -1.1667  0.9360
   17SAPC  C316 2259  -0.721   3.350   8.380 -0.2708  0.4328  0.1914
   17SAPC  H16X 2260  -0.792   3.421   8.427 -1.2732 -0.4310 -0.0055
   17SAPC  H16Y 2261  -0.786   3.283   8.321  0.1537  0.5110 -0.3665
   17SAPC  C317 2262  -0.638   3.418   8.261  0.1995 -0.5567 -0.1306
   17SAPC  H17X 2263  -0.598   3.520   8.283 -0.5705  0.3616 -2.8143
   17SAPC  H17Y 2264  -0.709   3.442   8.179 -1.6806 -1.8976  1.0402
   17SAPC  C318 2265  -0.537   3.327   8.185  0.1978 -0.1641 -0.1833
   17SAPC  H18X 2266  -0.581   3.235   8.141 -0.9720  0.6646 -0.7820
   17SAPC  H18Y 2267  -0.504   3.390   8.100 -1.4808  0.2502 -0.5615
   17SAPC  H18Z 2268  -0.456   3.292   8.253 -0.5060 -3.3786 -0.9060
   18SAPC     N 2269   1.138   3.991  10.514 -0.5849 -0.5062 -0.1342
   18SAPC   C12 2270   1.046   3.912  10.430 -0.3446  0.3162  0.4348
   18SAPC  H12A 2271   1.022   3.980  10.349 -1.9720 -0.7912 -0.0524
   18SAPC  H12B 2272   0.958   3.886  10.487  0.0807  2.7449  2.2735
   18SAPC   C13 2273   1.190   3.907  10.627  0.9633 -0.4332 -0.3530
   18SAPC  H13A 2274   1.118   3.896  10.706  1.5830 -1.4859  0.0650
   18SAPC  H13B 2275   1.224   3.810  10.595  0.7226 -0.3109 -0.9999
   18SAPC  H13C 2276   1.273   3.955  10.676 -0.1461  2.6291 -1.3140
   18SAPC   C14 2277   1.261   4.036  10.438  0.5974  0.5911 -0.1246
   18SAPC  H14A 2278   1.225   4.095  10.355 -1.5118  2.8924  2.3228
   18SAPC  H14B 2279   1.326   4.106  10.489 -0.2710  2.6866 -1.7952
   18SAPC  H14C 2280   1.310   3.946  10.404  0.2265  0.4775 -0.3562
   18SAPC   C15 2281   1.077   4.119  10.569 -0.0743  0.0043  0.8230
   18SAPC  H15A 2282   1.140   4.172  10.639 -0.4930 -0.6332  1.7035
   18SAPC  H15B 2283   1.062   4.196  10.495  0.0756 -0.3357  0.4372
   18SAPC  H15C 2284   0.983   4.107  10.623 -0.0378  0.1828  0.9256
   18SAPC   C11 2285   1.091   3.776  10.385 -0.5523 -0.0138  0.5348
   18SAPC  H11A 2286   1.186   3.783  10.328 -2.1758  0.1360 -2.2728
   18SAPC  H11B 2287   1.007   3.749  10.317 -1.4646  0.8446  1.3204
   18SAPC     P 2288   1.004   3.561  10.503 -0.1860 -0.2553 -0.0539
   18SAPC   O13 2289   1.044   3.477  10.617  0.6814 -0.5390 -0.4925
   18SAPC   O14 2290   0.863   3.607  10.498  0.2308 -0.0571  0.1308
   18SAPC   O12 2291   1.108   3.675  10.495 -0.4536  0.2187 -0.3287
   18SAPC   O11 2292   1.032   3.476  10.373 -0.3953  0.3919  0.0395
   18SAPC    C1 2293   1.165   3.448  10.329  0.4523 -0.4696  0.0406
   18SAPC    HA 2294   1.212   3.534  10.278 -1.9174  0.4795 -0.6001
   18SAPC    HB 2295   1.231   3.411  10.411  0.8548 -1.0320 -0.5307
   18SAPC    C2 2296   1.180   3.330  10.228 -0.5950 -0.2947 -0.0244
   18SAPC    HS 2297   1.279   3.344  10.181 -1.2970 -2.2426 -2.1673
   18SAPC   O21 2298   1.073   3.331  10.124 -0.3038 -0.5661 -0.2467
   18SAPC   C21 2299   1.084   3.424  10.033 -0.3468  0.9532  0.0808
   18SAPC   O22 2300   1.169   3.510  10.019 -0.4522 -0.3621 -0.6010
   18SAPC   C22 2301   0.965   3.420   9.936 -0.2353 -0.0221  0.3981
   18SAPC   H2R 2302   0.871   3.420   9.995 -0.1720 -0.3906  0.5025
   18SAPC   H2S 2303   0.967   3.516   9.880  0.3642 -0.0315  0.4001
   18SAPC    C3 2304   1.192   3.187  10.290  0.4210 -0.4669 -0.4348
   18SAPC    HX 2305   1.101   3.161  10.349  0.6396 -0.4420 -0.0828
   18SAPC    HY 2306   1.269   3.188  10.370 -2.9956  0.1124  2.9939
   18SAPC   O31 2307   1.218   3.085  10.184  0.2196 -0.2247 -0.0506
   18SAPC   C31 2308   1.103   3.024  10.146  0.6444  0.3519  0.4952
   18SAPC   O32 2309   0.997   3.021  10.208  0.2189 -0.6182  0.5420
   18SAPC   C32 2310   1.122   2.978  10.000 -0.0933  0.1601 -0.2363
   18SAPC   H2X 2311   1.218   3.016   9.960 -1.1901  1.9767 -1.2395
   18SAPC   H2Y 2312   1.042   3.031   9.943 -0.3982  0.8828  0.8391
   18SAPC   C23 2313   0.964   3.308   9.815 -0.4471 -1.0482  0.2505
   18SAPC   H3R 2314   0.976   3.207   9.859  2.0372 -1.2462 -0.8266
   18SAPC   H3S 2315   1.043   3.321   9.738 -0.4907 -1.7798  0.0742
   18SAPC   C24 2316   0.826   3.307   9.751  0.4957 -0.2543  0.5825
   18SAPC   H4R 2317   0.817   3.392   9.680  0.2550  0.6335  1.6739
   18SAPC   H4S 2318   0.762   3.319   9.841  1.8630  1.1480  1.3845
   18SAPC   C25 2319   0.792   3.174   9.686 -0.8634  0.0579  0.1276
   18SAPC   H5R 2320   0.798   3.088   9.754 -3.2507  1.5606  2.3320
   18SAPC   C26 2321   0.755   3.153   9.556 -0.5399  1.0265 -0.4807
   18SAPC   H6R 2322   0.738   3.049   9.525 -0.4470  0.7994  0.2278
   18SAPC   C27 2323   0.730   3.264   9.459  0.2274  0.2699  0.3043
   18SAPC   H7R 2324   0.717   3.363   9.508 -0.7810  0.3595 -0.1471
   18SAPC   H7S 2325   0.635   3.255   9.403  0.9261  1.3907 -1.1181
   18SAPC   C28 2326   0.837   3.264   9.353 -0.1989  0.5934  0.0571
   18SAPC   H8R 2327   0.937   3.254   9.397  1.2871  1.8652 -2.8524
   18SAPC   C29 2328   0.820   3.285   9.217  0.6629  0.0133 -0.4524
   18SAPC   H9R 2329   0.908   3.289   9.152  0.9661  2.0222  0.0538
   18SAPC  C210 2330   0.693   3.300   9.145  1.1937  0.0181  0.1972
   18SAPC  H10R 2331   0.620   3.222   9.176  1.0408 -0.1432 -0.5696
   18SAPC  H10S 2332   0.713   3.272   9.040  1.4894 -1.0986  0.5487
   18SAPC  C211 2333   0.634   3.439   9.161  0.0385  0.3493  0.6681
   18SAPC  H11R 2334   0.595   3.466   9.260 -1.6253  0.0218  0.1188
   18SAPC  C212 2335   0.632   3.532   9.061 -0.0308  0.1035  0.3169
   18SAPC  H12R 2336   0.603   3.636   9.082  1.6624  0.2568  2.0246
   18SAPC  C213 2337   0.688   3.518   8.924 -0.4530  0.7522 -0.3303
   18SAPC  H13R 2338   0.613   3.478   8.853  2.0485 -3.1726 -0.9641
   18SAPC  H13S 2339   0.769   3.442   8.920  0.2633  1.5100 -0.3350
   18SAPC  C214 2340   0.741   3.643   8.854 -0.7870  0.2780 -0.1856
   18SAPC  H14R 2341   0.832   3.681   8.903 -0.5615 -0.8444  0.2840
   18SAPC  C215 2342   0.681   3.716   8.757  0.4010  0.0469 -0.3752
   18SAPC  H15R 2343   0.742   3.801   8.725  1.2355  0.0809  1.2316
   18SAPC  C216 2344   0.549   3.698   8.694  0.1762  0.3960 -0.1277
   18SAPC  H16R 2345   0.521   3.591   8.692  1.4275  0.0549 -0.3388
   18SAPC  H16S 2346   0.556   3.722   8.585  3.3731  0.3802  0.0128
   18SAPC  C217 2347   0.432   3.767   8.765 -0.3528 -0.0268  0.0608
   18SAPC  H17R 2348   0.449   3.877   8.772 -2.8146  0.4305 -0.6459
   18SAPC  H17S 2349   0.427   3.725   8.868 -0.5177 -2.3500 -0.8692
   18SAPC  C218 2350   0.297   3.733   8.701 -0.0201 -0.5798 -0.0930
   18SAPC  H18R 2351   0.288   3.623   8.692  0.9035 -0.6521 -0.1838
   18SAPC  H18S 2352   0.296   3.794   8.607  2.6476 -0.4023 -0.0601
   18SAPC  C219 2353   0.187   3.780   8.791  0.2636  0.0558 -0.2954
   18SAPC  H19R 2354   0.212   3.883   8.824  3.1942 -0.2881 -1.3199
   18SAPC  H19S 2355   0.182   3.714   8.880  0.7873 -1.3783 -1.2966
   18SAPC  C220 2356   0.050   3.798   8.723  0.2265  0.6835 -0.5034
   18SAPC  H20R 2357   0.044   3.871   8.640 -0.2410 -0.3900 -1.4346
   18SAPC  H20S 2358  -0.028   3.822   8.799  1.3337  0.2174  0.8068
   18SAPC  H20T 2359   0.015   3.700   8.685 -0.2935  2.0541 -3.6811
   18SAPC   C33 2360   1.113   2.828  10.001  0.5696  0.9119  0.5444
   18SAPC   H3X 2361   1.050   2.796  10.087 -0.4690  1.3062 -0.0652
   18SAPC   H3Y 2362   1.212   2.778  10.012 -0.2776 -0.7723  0.5875
   18SAPC   C34 2363   1.053   2.783   9.868 -0.3798 -0.5084  0.2276
   18SAPC   H4X 2364   1.092   2.856   9.794  2.3233 -0.9759  1.1126
   18SAPC   H4Y 2365   0.944   2.783   9.888 -0.4822  0.5845 -0.3111
   18SAPC   C35 2366   1.100   2.640   9.835 -0.1782  0.3245 -0.2114
   18SAPC   H5X 2367   1.026   2.631   9.753  0.3390  0.8558 -0.7418
   18SAPC   H5Y 2368   1.083   2.577   9.925  1.2779 -2.2598 -1.6839
   18SAPC   C36 2369   1.245   2.625   9.774 -0.1532 -0.2330 -0.1961
   18SAPC   H6X 2370   1.310   2.625   9.864 -0.7871 -1.5315  0.2840
   18SAPC   H6Y 2371   1.273   2.704   9.702  1.6081 -0.0815  0.6278
   18SAPC   C37 2372   1.270   2.491   9.701  0.1276 -0.5173  0.1091
   18SAPC   H7X 2373   1.233   2.400   9.752 -0.1628 -0.9741 -0.8891
   18SAPC   H7Y 2374   1.379   2.473   9.690  0.3053  0.3590  0.4139
   18SAPC   C38 2375   1.212   2.488   9.560 -0.2483 -0.0654 -0.2362
   18SAPC   H8X 2376   1.220   2.584   9.505 -0.0700 -0.2266 -0.4941
   18SAPC   H8Y 2377   1.104   2.465   9.574 -0.4009  1.4096  1.2368
   18SAPC   C39 2378   1.284   2.384   9.467 -0.0981  0.4531 -0.5261
   18SAPC   H9X 2379   1.294   2.291   9.527 -0.1819  1.3049  0.8440
   18SAPC   H9Y 2380   1.379   2.435   9.442  0.9109 -1.1110  0.0418
   18SAPC  C310 2381   1.200   2.359   9.334 -0.1347 -0.0109 -0.2993
   18SAPC  H10X 2382   1.170   2.462   9.304 -0.3308  0.0335  0.0523
   18SAPC  H10Y 2383   1.108   2.306   9.368  1.4498 -1.7440  1.4182
   18SAPC  C311 2384   1.258   2.278   9.220 -0.6601  0.4001  0.2305
   18SAPC  H11X 2385   1.355   2.331   9.206 -1.2479  1.7857  1.3640
   18SAPC  H11Y 2386   1.196   2.275   9.127 -0.4493  1.2651  0.0617
   18SAPC  C312 2387   1.287   2.128   9.245  0.5868 -0.1306 -0.2976
   18SAPC  H12X 2388   1.193   2.072   9.261 -0.6111  2.3994  2.0805
   18SAPC  H12Y 2389   1.352   2.120   9.335 -2.3508 -3.1926  1.6597
   18SAPC  C313 2390   1.363   2.058   9.125  0.4457 -0.1999 -0.1518
   18SAPC  H13X 2391   1.452   2.115   9.091 -0.0645  0.5048 -0.3330
   18SAPC  H13Y 2392   1.293   2.052   9.039 -0.2683 -1.7060  0.5139
   18SAPC  C314 2393   1.411   1.919   9.164 -0.6328  0.2946 -0.7609
   18SAPC  H14X 2394   1.336   1.863   9.224 -0.9761  0.8741 -0.6496
   18SAPC  H14Y 2395   1.497   1.926   9.235 -1.4449 -1.4353  0.4260
   18SAPC  C315 2396   1.458   1.848   9.038 -0.4314 -0.0837  0.4208
   18SAPC  H15X 2397   1.522   1.923   8.987 -0.4617  0.3442  1.0002
   18SAPC  H15Y 2398   1.370   1.818   8.977 -1.4544  0.4868  1.5917
   18SAPC  C316 2399   1.554   1.735   9.074  0.2666 -0.1979 -0.3568
   18SAPC  H16X 2400   1.499   1.660   9.135  1.3444 -1.2509 -0.6672
   18SAPC  H16Y 2401   1.644   1.772   9.127 -0.7772  1.8837  0.0209
   18SAPC  C317 2402   1.597   1.660   8.940  0.5331  0.7694  0.3684
   18SAPC  H17X 2403   1.669   1.589   8.988  0.1663  0.1411 -0.0069
   18SAPC  H17Y 2404   1.645   1.738   8.876  0.4913 -1.1463 -2.0895
   18SAPC  C318 2405   1.492   1.591   8.849  0.9800  0.1425  0.1704
   18SAPC  H18X 2406   1.407   1.661   8.832  1.5335  0.8317  0.2086
   18SAPC  H18Y 2407   1.439   1.502   8.890 -1.3039  0.7873 -1.2560
   18SAPC  H18Z 2408   1.535   1.571   8.749  2.2282 -3.1353  1.3010
   19SAPC     N 2409   0.062   4.648  10.672 -0.1353  0.1179  0.2924
   19SAPC   C12 2410  -0.018   4.580  10.558 -0.3940 -0.4770  0.4814
   19SAPC  H12A 2411   0.055   4.534  10.493  0.7952  0.8566  0.8493
   19SAPC  H12B 2412  -0.066   4.663  10.508 -2.1412 -0.8033  1.5598
   19SAPC   C13 2413   0.161   4.561  10.736 -0.1964 -0.5604  0.1753
   19SAPC  H13A 2414   0.105   4.484  10.788  1.6401 -0.6286  2.1148
   19SAPC  H13B 2415   0.226   4.523  10.658  0.8822 -1.6307  1.5838
   19SAPC  H13C 2416   0.229   4.604  10.808  1.5278 -0.6694 -1.3536
   19SAPC   C14 2417   0.138   4.770  10.613  0.0145  0.3012  0.5082
   19SAPC  H14A 2418   0.192   4.810  10.697 -2.0941  0.2964  1.8832
   19SAPC  H14B 2419   0.204   4.739  10.533  0.1328  0.8711  0.3879
   19SAPC  H14C 2420   0.070   4.841  10.569  2.7638  3.4780  1.1695
   19SAPC   C15 2421  -0.044   4.694  10.776  0.2799  0.1007 -0.0553
   19SAPC  H15A 2422  -0.091   4.776  10.725 -0.7122  1.2963  2.6939
   19SAPC  H15B 2423  -0.126   4.626  10.792 -0.3508  1.1975  1.4760
   19SAPC  H15C 2424  -0.002   4.715  10.874 -1.4796 -0.7027  0.8962
   19SAPC   C11 2425  -0.134   4.482  10.603  0.2988 -0.0717 -1.0061
   19SAPC  H11A 2426  -0.096   4.407  10.675 -0.4001  1.8688  1.4445
   19SAPC  H11B 2427  -0.150   4.424  10.509 -0.1037 -1.8572  0.1508
   19SAPC     P 2428  -0.379   4.576  10.565  0.8224  0.0527  0.0033
   19SAPC   O13 2429  -0.427   4.455  10.500 -0.1051 -0.1871  0.2914
   19SAPC   O14 2430  -0.487   4.625  10.654  0.2213 -0.1823  0.0108
   19SAPC   O12 2431  -0.250   4.544  10.651  0.0306 -0.2269 -0.5099
   19SAPC   O11 2432  -0.345   4.686  10.461  0.2479  0.2079 -0.5068
   19SAPC    C1 2433  -0.354   4.820  10.505  0.1955  0.7089  0.6574
   19SAPC    HA 2434  -0.453   4.847  10.549 -0.6752  0.4022 -1.0653
   19SAPC    HB 2435  -0.274   4.849  10.576  0.3824  1.3516  0.1847
   19SAPC    C2 2436  -0.340   4.915  10.381 -0.0480 -0.3065  0.5782
   19SAPC    HS 2437  -0.360   5.022  10.399  1.1501  0.3041 -1.5829
   19SAPC   O21 2438  -0.414   4.859  10.269 -0.3367 -0.0518  0.2473
   19SAPC   C21 2439  -0.544   4.907  10.268  0.2938 -0.2267 -0.1955
   19SAPC   O22 2440  -0.586   4.988  10.346  0.2507 -0.5806  0.0572
   19SAPC   C22 2441  -0.615   4.860  10.148 -0.6638  0.1335 -0.1401
   19SAPC   H2R 2442  -0.565   4.767  10.115 -1.5162 -0.5590  0.4839
   19SAPC   H2S 2443  -0.714   4.822  10.183 -0.5291 -0.6514 -0.5903
   19SAPC    C3 2444  -0.193   4.916  10.331 -0.0298  0.2024 -0.7659
   19SAPC    HX 2445  -0.150   4.814  10.320  2.6271  1.2972 -0.9108
   19SAPC    HY 2446  -0.130   4.961  10.411  3.1687 -3.7610 -0.8795
   19SAPC   O31 2447  -0.179   4.994  10.221  0.6100  0.4946  0.1138
   19SAPC   C31 2448  -0.084   4.966  10.130 -0.2235 -0.2471  0.2537
   19SAPC   O32 2449  -0.011   4.873  10.127 -0.1711 -0.2581  0.3464
   19SAPC   C32 2450  -0.078   5.090  10.035 -0.1919  0.0712 -0.3912
   19SAPC   H2X 2451   0.022   5.133  10.055  0.0354 -0.5032 -0.2900
   19SAPC   H2Y 2452  -0.160   5.156  10.072 -0.4722 -0.6957  0.3877
   19SAPC   C23 2453  -0.620   4.971  10.042 -0.2976  0.9514  0.3999
   19SAPC   H3R 2454  -0.668   5.060  10.088 -0.9748  1.6225 -1.5434
   19SAPC   H3S 2455  -0.684   4.943   9.955  1.8666  2.5180 -1.7889
   19SAPC   C24 2456  -0.481   4.986   9.983  0.5750  0.4161 -0.2674
   19SAPC   H4R 2457  -0.444   4.883   9.965 -0.9910 -0.2970  0.4759
   19SAPC   H4S 2458  -0.417   5.033  10.061  1.6158  1.4718 -1.7218
   19SAPC   C25 2459  -0.488   5.068   9.857  0.0305 -0.3281 -0.0633
   19SAPC   H5R 2460  -0.452   5.169   9.877  0.1035 -0.6428  1.4676
   19SAPC   C26 2461  -0.512   5.026   9.733  0.6344 -0.0235 -0.5774
   19SAPC   H6R 2462  -0.492   5.095   9.649  2.6867 -1.4615 -1.3262
   19SAPC   C27 2463  -0.541   4.888   9.689 -0.3682 -0.4668 -0.3049
   19SAPC   H7R 2464  -0.608   4.884   9.601 -0.7532  1.5282 -0.1163
   19SAPC   H7S 2465  -0.587   4.828   9.771  1.8531 -1.3290  0.3489
   19SAPC   C28 2466  -0.408   4.815   9.664 -0.1065  0.6428  0.1640
   19SAPC   H8R 2467  -0.335   4.818   9.746 -2.6910  1.8869  2.5344
   19SAPC   C29 2468  -0.375   4.739   9.561  0.5928  0.4088 -0.4080
   19SAPC   H9R 2469  -0.272   4.700   9.559  0.0948 -0.8717 -1.7487
   19SAPC  C210 2470  -0.456   4.690   9.438 -0.4571  0.1995 -0.8988
   19SAPC  H10R 2471  -0.555   4.657   9.475  0.0736  0.7796  1.1078
   19SAPC  H10S 2472  -0.412   4.604   9.382  1.1670 -0.9629  2.0199
   19SAPC  C211 2473  -0.471   4.814   9.355 -0.4464  0.2274  0.0535
   19SAPC  H11R 2474  -0.448   4.903   9.415  0.5438 -1.7747  2.7516
   19SAPC  C212 2475  -0.470   4.819   9.222 -0.4396  0.3546  0.0730
   19SAPC  H12R 2476  -0.488   4.913   9.167  0.8515 -0.0203 -1.0159
   19SAPC  C213 2477  -0.474   4.703   9.130  0.3993 -1.0529 -0.1636
   19SAPC  H13R 2478  -0.568   4.645   9.143 -0.2103 -0.0367  0.0124
   19SAPC  H13S 2479  -0.393   4.634   9.163  1.6576  0.6845  0.4722
   19SAPC  C214 2480  -0.484   4.740   8.981  0.9513  0.2235 -0.4185
   19SAPC  H14R 2481  -0.563   4.809   8.950  0.5203  0.2222  0.6808
   19SAPC  C215 2482  -0.390   4.709   8.885 -0.2036  0.4112  0.3190
   19SAPC  H15R 2483  -0.410   4.743   8.783  0.9575 -0.2817 -0.1513
   19SAPC  C216 2484  -0.268   4.618   8.892  0.5475 -0.4233 -0.0344
   19SAPC  H16R 2485  -0.265   4.570   8.992  0.0660  0.5790  0.4800
   19SAPC  H16S 2486  -0.176   4.679   8.879  2.1219 -2.8913 -0.6152
   19SAPC  C217 2487  -0.273   4.509   8.781  0.0555  0.1677  1.1772
   19SAPC  H17R 2488  -0.366   4.448   8.789  1.5491 -2.4240 -0.3019
   19SAPC  H17S 2489  -0.190   4.438   8.803  0.3546  0.2715  0.3814
   19SAPC  C218 2490  -0.259   4.561   8.639 -0.4724 -0.9334 -0.1061
   19SAPC  H18R 2491  -0.152   4.588   8.625 -0.2365 -1.7338  0.1419
   19SAPC  H18S 2492  -0.309   4.658   8.617  1.6390  0.2119  0.0213
   19SAPC  C219 2493  -0.298   4.447   8.540  0.2935 -0.0733 -0.3431
   19SAPC  H19R 2494  -0.297   4.498   8.441  1.4126  2.4779  0.9223
   19SAPC  H19S 2495  -0.403   4.425   8.567  0.8359 -0.5089  1.4660
   19SAPC  C220 2496  -0.206   4.327   8.526 -0.0490 -1.0293 -0.1141
   19SAPC  H20R 2497  -0.230   4.246   8.598 -1.5456 -1.9651 -1.6186
   19SAPC  H20S 2498  -0.100   4.356   8.544  0.3397 -1.3082 -1.7658
   19SAPC  H20T 2499  -0.220   4.291   8.421  0.2841  0.4367 -0.6740
   19SAPC   C33 2500  -0.087   5.049   9.893  0.0235 -0.1628  0.3683
   19SAPC   H3X 2501  -0.161   4.967   9.885 -2.5571  2.3096 -1.8277
   19SAPC   H3Y 2502   0.008   4.998   9.867  1.5167  0.6470  3.9250
   19SAPC   C34 2503  -0.107   5.164   9.798  0.4303  0.5748  0.4305
   19SAPC   H4X 2504  -0.018   5.229   9.791 -0.2993  1.6836  1.2650
   19SAPC   H4Y 2505  -0.195   5.219   9.837  0.8819  1.4955  0.1429
   19SAPC   C35 2506  -0.147   5.112   9.655 -0.1870 -0.1358 -0.0067
   19SAPC   H5X 2507  -0.237   5.047   9.666 -0.7767  0.6177 -0.4050
   19SAPC   H5Y 2508  -0.064   5.053   9.611  0.5282  1.0540 -0.2422
   19SAPC   C36 2509  -0.172   5.225   9.559  0.0608 -0.2270 -0.8240
   19SAPC   H6X 2510  -0.074   5.278   9.551 -1.6835  3.0272 -1.4172
   19SAPC   H6Y 2511  -0.256   5.290   9.592 -0.4580  0.1433 -2.8112
   19SAPC   C37 2512  -0.209   5.170   9.422 -0.1849 -0.3770 -0.1733
   19SAPC   H7X 2513  -0.257   5.250   9.361 -2.7936 -2.1189 -0.4966
   19SAPC   H7Y 2514  -0.283   5.089   9.439  1.7026 -1.9350  0.7000
   19SAPC   C38 2515  -0.087   5.113   9.347  0.4887  0.0050  0.1328
   19SAPC   H8X 2516  -0.036   5.034   9.407  0.3763  1.3575  2.0302
   19SAPC   H8Y 2517  -0.013   5.195   9.338  2.0115 -0.4555  6.2853
   19SAPC   C39 2518  -0.128   5.055   9.213  0.0224 -0.0495 -0.0568
   19SAPC   H9X 2519  -0.177   5.140   9.160 -1.2614  1.3148  3.1984
   19SAPC   H9Y 2520  -0.214   4.985   9.221 -1.6134  1.9710  0.3585
   19SAPC  C310 2521  -0.005   4.997   9.135  0.7127 -1.3557 -1.0670
   19SAPC  H10X 2522   0.009   4.898   9.183  1.9018  0.2778  2.0601
   19SAPC  H10Y 2523   0.079   5.069   9.146 -0.4328 -0.0170 -0.8728
   19SAPC  C311 2524  -0.039   4.984   8.986 -0.5159  0.9888  0.6476
   19SAPC  H11X 2525  -0.057   5.086   8.944  0.0169  0.7894 -0.0875
   19SAPC  H11Y 2526  -0.137   4.934   8.991 -1.1886  2.1671 -0.2756
   19SAPC  C312 2527   0.061   4.901   8.907 -1.0069 -0.6590  0.5021
   19SAPC  H12X 2528   0.089   4.801   8.945  2.5557 -0.4254 -1.2931
   19SAPC  H12Y 2529   0.160   4.950   8.895 -2.0405  1.4672  0.3785
   19SAPC  C313 2530   0.006   4.890   8.762  0.0734 -0.3299 -0.0289
   19SAPC  H13X 2531   0.009   4.992   8.720  0.9127 -0.4413 -0.2383
   19SAPC  H13Y 2532  -0.103   4.868   8.767 -0.0711  0.3103 -0.3294
   19SAPC  C314 2533   0.094   4.787   8.682  0.2187  0.6149 -0.7172
   19SAPC  H14X 2534   0.066   4.685   8.717 -1.7242  0.7847 -1.7048
   19SAPC  H14Y 2535   0.200   4.806   8.710 -0.3804  3.0365  0.0360
   19SAPC  C315 2536   0.062   4.804   8.536 -0.4176 -0.7514  0.6774
   19SAPC  H15X 2537   0.113   4.895   8.496  0.5010 -1.3515  0.4877
   19SAPC  H15Y 2538  -0.047   4.820   8.518 -0.5686 -0.2035  2.0608
   19SAPC  C316 2539   0.100   4.680   8.455 -0.0863  0.2558  0.2751
   19SAPC  H16X 2540   0.036   4.594   8.485  1.0182 -0.6042  0.2095
   19SAPC  H16Y 2541   0.205   4.652   8.480  0.2950  1.0502 -0.3782
   19SAPC  C317 2542   0.091   4.702   8.303  0.1430  0.3740 -0.4708
   19SAPC  H17X 2543   0.129   4.602   8.272  1.3425  0.7025 -0.0440
   19SAPC  H17Y 2544   0.162   4.781   8.272  0.7646  0.1040  0.2679
   19SAPC  C318 2545  -0.044   4.741   8.240 -0.2207 -0.4809  0.2836
   19SAPC  H18X 2546  -0.073   4.840   8.283  0.9921 -0.5854  1.3944
   19SAPC  H18Y 2547  -0.119   4.663   8.266  0.2988 -1.0041  0.2327
   19SAPC  H18Z 2548  -0.032   4.761   8.132  3.4048  0.2165  0.7319
   20SAPC     N 2549   6.461   1.847  10.783  0.5577 -0.0088  0.5380
   20SAPC   C12 2550   6.323   1.785  10.785  1.4635  0.2626 -0.1499
   20SAPC  H12A 2551   6.314   1.760  10.890  0.7709  5.1608  1.1059
   20SAPC  H12B 2552   6.314   1.693  10.729 -0.2756  0.4343 -0.1615
   20SAPC   C13 2553   6.468   1.951  10.902 -0.3918 -0.3623 -0.2380
   20SAPC  H13A 2554   6.564   2.001  10.900  0.2517 -1.5549  0.0736
   20SAPC  H13B 2555   6.388   2.022  10.894 -1.4163 -1.4265  0.3241
   20SAPC  H13C 2556   6.452   1.905  10.999  0.0548  0.3715  0.1902
   20SAPC   C14 2557   6.569   1.747  10.811  0.1734  0.1985  0.7192
   20SAPC  H14A 2558   6.603   1.707  10.716 -0.8588 -1.2447  0.9356
   20SAPC  H14B 2559   6.653   1.799  10.856  1.7327 -0.3910 -1.4464
   20SAPC  H14C 2560   6.536   1.660  10.865 -2.4939  0.8463  0.2021
   20SAPC   C15 2561   6.486   1.924  10.663 -0.0482 -0.6586 -0.1552
   20SAPC  H15A 2562   6.577   1.981  10.667 -1.2794  1.5955 -2.7998
   20SAPC  H15B 2563   6.487   1.868  10.570 -1.6786 -0.2819 -0.4132
   20SAPC  H15C 2564   6.417   2.007  10.663  0.9452  0.2445  3.2074
   20SAPC   C11 2565   6.196   1.873  10.768 -0.3523  0.0348  0.7420
   20SAPC  H11A 2566   6.099   1.819  10.760 -0.3873  0.3813 -1.8245
   20SAPC  H11B 2567   6.212   1.917  10.667 -2.2451 -0.2945  0.2899
   20SAPC     P 2568   6.068   2.078  10.846 -0.0984  0.1425 -0.3771
   20SAPC   O13 2569   5.942   2.004  10.866 -0.3410  0.0050  0.1452
   20SAPC   O14 2570   6.091   2.183  10.944  0.2747  0.1507  0.4052
   20SAPC   O12 2571   6.190   1.983  10.855 -0.2251  0.3126  0.2562
   20SAPC   O11 2572   6.075   2.139  10.696 -0.3828  0.2839  0.5929
   20SAPC    C1 2573   6.198   2.202  10.672 -0.1282  0.0548 -0.3066
   20SAPC    HA 2574   6.201   2.303  10.717 -1.2766 -0.3626  0.7481
   20SAPC    HB 2575   6.281   2.138  10.710 -0.5632 -0.0648  0.4540
   20SAPC    C2 2576   6.232   2.212  10.520 -0.3034  0.6571  0.0140
   20SAPC    HS 2577   6.158   2.282  10.476  0.1239  0.7445 -0.5787
   20SAPC   O21 2578   6.221   2.080  10.467  0.0641 -0.5492 -0.0069
   20SAPC   C21 2579   6.116   2.058  10.399  0.6228 -0.3703 -0.2448
   20SAPC   O22 2580   6.019   2.134  10.391 -0.7587  0.4959 -0.3178
   20SAPC   C22 2581   6.120   1.919  10.340  0.0726  0.1596  0.3873
   20SAPC   H2R 2582   6.183   1.942  10.252 -1.1875  2.2539  0.0049
   20SAPC   H2S 2583   6.175   1.856  10.414 -0.8530 -1.0652  0.0529
   20SAPC    C3 2584   6.374   2.265  10.505 -0.7302  0.0895  0.5288
   20SAPC    HX 2585   6.437   2.184  10.549 -1.9087 -2.1870 -1.8129
   20SAPC    HY 2586   6.393   2.355  10.567  1.8047 -0.9802  1.3685
   20SAPC   O31 2587   6.413   2.290  10.367  0.3675 -0.4168 -0.9339
   20SAPC   C31 2588   6.448   2.186  10.290  0.1948 -0.1805  0.3018
   20SAPC   O32 2589   6.481   2.074  10.329 -0.1406  0.4369 -0.2626
   20SAPC   C32 2590   6.429   2.223  10.145  0.5681  0.8745  0.4409
   20SAPC   H2X 2591   6.472   2.324  10.129 -1.9009  2.1871  1.9042
   20SAPC   H2Y 2592   6.322   2.230  10.116  0.4993 -2.9374 -0.5913
   20SAPC   C23 2593   5.982   1.864  10.300  0.0209  0.3919 -0.2236
   20SAPC   H3R 2594   6.002   1.789  10.220  1.5321 -0.3811  0.8589
   20SAPC   H3S 2595   5.922   1.944  10.251  1.3539  1.9798  0.6619
   20SAPC   C24 2596   5.902   1.809  10.420  0.4510 -0.5396 -0.1084
   20SAPC   H4R 2597   5.792   1.820  10.408  0.4328 -1.6497 -0.9655
   20SAPC   H4S 2598   5.914   1.874  10.510 -0.4933  1.7390 -1.5717
   20SAPC   C25 2599   5.935   1.668  10.462 -0.1358  0.0510  0.9344
   20SAPC   H5R 2600   6.037   1.656  10.501  0.4296 -3.6019 -1.4305
   20SAPC   C26 2601   5.861   1.560  10.455 -0.1822 -0.5094 -1.0442
   20SAPC   H6R 2602   5.907   1.464  10.482  2.1105  0.6975 -0.5951
   20SAPC   C27 2603   5.717   1.555  10.399  0.3351  1.0699  0.5139
   20SAPC   H7R 2604   5.718   1.594  10.295 -1.8322  1.0872  0.4659
   20SAPC   H7S 2605   5.647   1.630  10.442  1.5830  2.8293 -0.4659
   20SAPC   C28 2606   5.668   1.412  10.395  0.2418  1.2020 -0.3746
   20SAPC   H8R 2607   5.637   1.365  10.490 -1.7985  0.8057 -1.2069
   20SAPC   C29 2608   5.662   1.331  10.291 -0.0934 -0.1778 -0.4708
   20SAPC   H9R 2609   5.623   1.230  10.313 -1.2137  0.5785  1.0909
   20SAPC  C210 2610   5.701   1.375  10.151  0.1537 -0.0392  0.5800
   20SAPC  H10R 2611   5.652   1.472  10.128  2.6139  0.7648 -1.4007
   20SAPC  H10S 2612   5.657   1.307  10.075 -1.0026  0.4469  0.7901
   20SAPC  C211 2613   5.846   1.394  10.126 -0.3439  0.1364 -0.5913
   20SAPC  H11R 2614   5.902   1.396  10.221 -3.0946 -2.6217  1.2236
   20SAPC  C212 2615   5.911   1.412  10.011  0.4964  0.2211  0.0137
   20SAPC  H12R 2616   6.019   1.423  10.025  0.3001  2.2104  0.1681
   20SAPC  C213 2617   5.867   1.430   9.869  0.3895  0.9044  0.4911
   20SAPC  H13R 2618   5.760   1.462   9.866 -0.3828 -1.2302  2.7618
   20SAPC  H13S 2619   5.878   1.331   9.819 -0.0322  1.3722 -0.5327
   20SAPC  C214 2620   5.951   1.528   9.783 -0.3242  0.3010  0.5757
   20SAPC  H14R 2621   6.001   1.603   9.846  0.9958  0.0142 -0.1224
   20SAPC  C215 2622   5.968   1.524   9.652 -0.3233  0.6890  0.7450
   20SAPC  H15R 2623   6.037   1.593   9.602 -2.9587  1.2087 -2.3703
   20SAPC  C216 2624   5.910   1.420   9.558 -0.2435 -0.7141 -0.6223
   20SAPC  H16R 2625   5.840   1.349   9.609  1.8344 -3.1927 -1.0935
   20SAPC  H16S 2626   5.980   1.352   9.505 -0.9327 -1.9620  0.0201
   20SAPC  C217 2627   5.825   1.479   9.443  0.0980 -0.6158  0.4253
   20SAPC  H17R 2628   5.742   1.542   9.481  0.0534 -0.4182 -0.0027
   20SAPC  H17S 2629   5.780   1.398   9.382  0.5233  0.7662 -1.7790
   20SAPC  C218 2630   5.903   1.554   9.333  0.1442  0.2411 -0.4134
   20SAPC  H18R 2631   6.003   1.589   9.367  1.1973  0.7513 -3.8298
   20SAPC  H18S 2632   5.838   1.639   9.303 -0.4322 -0.0430  0.0057
   20SAPC  C219 2633   5.945   1.474   9.209 -0.1343  0.9985 -0.5262
   20SAPC  H19R 2634   5.859   1.420   9.162  0.1281  0.5433 -0.4879
   20SAPC  H19S 2635   6.021   1.403   9.246  0.2216  1.4484 -0.3926
   20SAPC  C220 2636   6.022   1.555   9.098  0.7453  0.3449  0.0202
   20SAPC  H20R 2637   6.005   1.500   9.003  1.5080 -0.5811  0.4018
   20SAPC  H20S 2638   6.130   1.566   9.125  1.3497  1.1626 -2.6019
   20SAPC  H20T 2639   5.989   1.661   9.092  0.1621  0.1962  0.5089
   20SAPC   C33 2640   6.518   2.135  10.052 -0.1604 -0.1523 -0.2728
   20SAPC   H3X 2641   6.473   2.034  10.046  1.2245 -0.7532 -0.7026
   20SAPC   H3Y 2642   6.616   2.125  10.103 -0.9945 -0.6282  1.2357
   20SAPC   C34 2643   6.521   2.182   9.902  0.3728 -0.1521  0.5425
   20SAPC   H4X 2644   6.576   2.279   9.901  0.2825 -0.0821  1.7634
   20SAPC   H4Y 2645   6.413   2.200   9.883  0.4047  1.4840  1.8400
   20SAPC   C35 2646   6.569   2.073   9.808 -0.6800  0.3246 -0.4742
   20SAPC   H5X 2647   6.532   2.108   9.709 -0.8757  0.3306 -0.3999
   20SAPC   H5Y 2648   6.546   1.968   9.833 -0.6967  0.3394 -0.4284
   20SAPC   C36 2649   6.722   2.070   9.807 -0.1605  0.2014  0.3874
   20SAPC   H6X 2650   6.773   2.025   9.895  1.7493  0.4142 -0.5784
   20SAPC   H6Y 2651   6.772   2.169   9.809 -0.7412  0.5208 -0.8817
   20SAPC   C37 2652   6.770   1.988   9.678  0.4037 -0.9477  0.0532
   20SAPC   H7X 2653   6.716   2.025   9.589 -1.0552  1.0881  1.7197
   20SAPC   H7Y 2654   6.741   1.882   9.695  1.5945 -1.4787 -1.1411
   20SAPC   C38 2655   6.917   1.993   9.665  0.0421 -0.3920 -0.3244
   20SAPC   H8X 2656   6.951   1.956   9.764 -2.1342  1.0960  1.0283
   20SAPC   H8Y 2657   6.952   2.098   9.651  0.3213 -0.5582 -0.8863
   20SAPC   C39 2658   6.975   1.914   9.551  0.6031 -0.2309  0.3018
   20SAPC   H9X 2659   6.929   1.813   9.545 -0.4618  0.1420  2.0540
   20SAPC   H9Y 2660   7.081   1.891   9.572  0.9115  0.9257  0.0770
   20SAPC  C310 2661   6.980   1.998   9.419 -0.0500  0.8898  0.5455
   20SAPC  H10X 2662   7.038   2.092   9.427  1.1393  0.3879 -1.7334
   20SAPC  H10Y 2663   6.873   2.023   9.403 -0.3356 -1.7219 -2.1646
   20SAPC  C311 2664   7.019   1.910   9.294 -0.3279 -0.4583  0.1430
   20SAPC  H11X 2665   6.947   1.827   9.278  1.9308 -2.3306 -0.5990
   20SAPC  H11Y 2666   7.117   1.869   9.327 -0.1814  1.2849  2.0141
   20SAPC  C312 2667   7.015   1.991   9.172  0.2135 -0.0412 -0.0177
   20SAPC  H12X 2668   7.072   2.084   9.191 -0.1359  0.1914 -0.0963
   20SAPC  H12Y 2669   6.909   2.019   9.154 -0.5058 -2.5276  0.2204
   20SAPC  C313 2670   7.073   1.921   9.046 -0.0301 -0.0505  0.1300
   20SAPC  H13X 2671   7.013   1.828   9.034 -0.8865  0.5738 -0.4870
   20SAPC  H13Y 2672   7.179   1.895   9.069 -0.8694 -2.6169  1.3291
   20SAPC  C314 2673   7.061   2.001   8.917 -0.2848  1.0238  0.3164
   20SAPC  H14X 2674   7.120   2.094   8.934  1.3275  0.2968 -1.0720
   20SAPC  H14Y 2675   6.955   2.020   8.891 -0.5423 -0.8799 -0.0710
   20SAPC  C315 2676   7.136   1.937   8.794  0.4587  0.0891  0.8187
   20SAPC  H15X 2677   7.132   2.003   8.705  1.3928 -2.8092 -1.4546
   20SAPC  H15Y 2678   7.091   1.838   8.771 -1.1208  0.6539  1.4362
   20SAPC  C316 2679   7.287   1.910   8.809  0.0224 -0.7253  0.5026
   20SAPC  H16X 2680   7.295   1.847   8.900  2.0505 -2.1301 -0.5913
   20SAPC  H16Y 2681   7.340   2.006   8.830  0.0071 -0.2894 -1.4052
   20SAPC  C317 2682   7.352   1.837   8.690 -0.1269  0.2781 -0.5480
   20SAPC  H17X 2683   7.461   1.846   8.709  0.0449  1.0804 -1.8577
   20SAPC  H17Y 2684   7.338   1.887   8.592  1.4222 -0.8599 -1.3615
   20SAPC  C318 2685   7.306   1.693   8.692  0.3029  0.8468  0.1722
   20SAPC  H18X 2686   7.203   1.681   8.652  0.3352  1.5202 -0.1251
   20SAPC  H18Y 2687   7.307   1.650   8.794  0.3390 -1.9795 -0.9693
   20SAPC  H18Z 2688   7.358   1.629   8.617 -0.4547 -0.6774  0.9184
   21SAPC     N 2689   6.731   0.512  10.663 -0.0248 -0.9083  0.5609
   21SAPC   C12 2690   6.635   0.506  10.776 -1.5407 -0.0435 -0.3607
   21SAPC  H12A 2691   6.675   0.542  10.870  0.5088 -2.7255 -0.1330
   21SAPC  H12B 2692   6.613   0.401  10.791  1.7259 -0.8627 -0.8965
   21SAPC   C13 2693   6.768   0.657  10.634 -0.7154 -0.2828  0.7169
   21SAPC  H13A 2694   6.811   0.701  10.723 -1.5996 -1.0130  1.5185
   21SAPC  H13B 2695   6.842   0.673  10.557  1.3430 -0.2110  2.6668
   21SAPC  H13C 2696   6.685   0.718  10.602  0.9564  0.9533 -1.4337
   21SAPC   C14 2697   6.858   0.439  10.692  0.2611 -0.4732  0.3380
   21SAPC  H14A 2698   6.935   0.446  10.616 -0.4209  3.4051 -0.0855
   21SAPC  H14B 2699   6.909   0.491  10.771  1.5277  0.4856 -1.0724
   21SAPC  H14C 2700   6.844   0.343  10.738  3.3678 -0.2747  1.8301
   21SAPC   C15 2701   6.656   0.461  10.544  0.0923 -0.1652  1.0639
   21SAPC  H15A 2702   6.566   0.514  10.518  0.6111 -0.8863 -2.4547
   21SAPC  H15B 2703   6.715   0.455  10.453 -1.0782 -2.9454  0.4384
   21SAPC  H15C 2704   6.618   0.362  10.562 -2.9978  0.6288 -0.7827
   21SAPC   C11 2705   6.493   0.563  10.758 -0.6116  0.4357 -0.2382
   21SAPC  H11A 2706   6.448   0.574  10.859  0.7815  0.6182  0.3717
   21SAPC  H11B 2707   6.434   0.493  10.696  0.2360  0.1583 -0.7401
   21SAPC     P 2708   6.352   0.749  10.658  0.3900  0.5657  0.6083
   21SAPC   O13 2709   6.278   0.737  10.786  0.0688 -0.3649 -0.0603
   21SAPC   O14 2710   6.380   0.879  10.602 -0.2956 -0.3898 -0.2984
   21SAPC   O12 2711   6.490   0.685  10.693 -0.1008 -0.2019 -0.1544
   21SAPC   O11 2712   6.288   0.651  10.549  0.3138 -0.2991 -0.0780
   21SAPC    C1 2713   6.158   0.586  10.554  0.6500 -0.2656  0.2014
   21SAPC    HA 2714   6.165   0.477  10.536  1.0396 -0.6162  2.4174
   21SAPC    HB 2715   6.111   0.594  10.654  3.5999  2.4294  1.4948
   21SAPC    C2 2716   6.070   0.648  10.440 -0.1030 -0.1520 -0.4183
   21SAPC    HS 2717   6.041   0.751  10.471  1.9743  0.1882  0.4564
   21SAPC   O21 2718   5.961   0.561  10.418  0.4797  0.1744  0.1328
   21SAPC   C21 2719   5.850   0.615  10.377  0.2852 -0.4155 -0.5094
   21SAPC   O22 2720   5.815   0.732  10.397 -0.1060  0.2674  0.4648
   21SAPC   C22 2721   5.770   0.510  10.301 -0.6227 -0.0285 -0.0265
   21SAPC   H2R 2722   5.843   0.451  10.242 -0.9290 -1.1748  0.7344
   21SAPC   H2S 2723   5.727   0.440  10.376  0.5120  0.4160  1.0641
   21SAPC    C3 2724   6.151   0.679  10.306  0.3586 -0.2583  0.4138
   21SAPC    HX 2725   6.174   0.577  10.268  1.9531  0.4533 -0.5452
   21SAPC    HY 2726   6.244   0.727  10.341 -0.2827 -0.6240  2.6577
   21SAPC   O31 2727   6.070   0.756  10.208 -0.6212  0.0714 -0.0443
   21SAPC   C31 2728   6.088   0.892  10.227 -0.7503 -0.4279  0.5258
   21SAPC   O32 2729   6.155   0.938  10.319  0.0186  0.2828  0.3844
   21SAPC   C32 2730   6.028   0.978  10.119  0.3614 -0.0761  0.5116
   21SAPC   H2X 2731   5.950   1.047  10.157  0.2309  0.7545 -1.1967
   21SAPC   H2Y 2732   5.978   0.912  10.046  2.2171 -1.3132  0.3124
   21SAPC   C23 2733   5.662   0.567  10.203  0.1029 -0.4613  0.0550
   21SAPC   H3R 2734   5.722   0.632  10.136 -0.7082  0.6492  0.3835
   21SAPC   H3S 2735   5.583   0.622  10.259 -1.6839  0.0014 -2.8519
   21SAPC   C24 2736   5.593   0.450  10.130  0.1274  0.2774 -0.2277
   21SAPC   H4R 2737   5.538   0.402  10.214  0.2325  1.3185  0.4463
   21SAPC   H4S 2738   5.670   0.374  10.105 -0.0109 -1.0002  2.9389
   21SAPC   C25 2739   5.496   0.497  10.020 -0.9028  0.1402 -0.2195
   21SAPC   H5R 2740   5.400   0.545  10.045 -0.9124 -0.5343  1.0617
   21SAPC   C26 2741   5.533   0.498   9.889  0.2193 -0.0692 -0.2429
   21SAPC   H6R 2742   5.457   0.540   9.823  1.3562 -1.1438 -2.2837
   21SAPC   C27 2743   5.659   0.446   9.835  0.0285 -0.3651  0.4821
   21SAPC   H7R 2744   5.646   0.336   9.818 -0.9140 -0.3359  0.9536
   21SAPC   H7S 2745   5.739   0.446   9.911  0.8111  0.1171 -0.3348
   21SAPC   C28 2746   5.723   0.529   9.726 -0.0373 -0.5248  0.6620
   21SAPC   H8R 2747   5.776   0.619   9.760 -1.7081  0.6029  0.3485
   21SAPC   C29 2748   5.722   0.485   9.597 -0.0374  1.1802  0.3301
   21SAPC   H9R 2749   5.762   0.549   9.517 -1.0146 -0.3034 -1.3875
   21SAPC  C210 2750   5.650   0.363   9.543 -0.6374  0.1807 -0.9087
   21SAPC  H10R 2751   5.662   0.270   9.603  1.0460  0.5446 -0.6599
   21SAPC  H10S 2752   5.684   0.345   9.439 -0.6183  1.0732 -1.0596
   21SAPC  C211 2753   5.499   0.382   9.532  1.8631  0.6648  0.2133
   21SAPC  H11R 2754   5.449   0.431   9.617  1.4910  1.1135 -0.2600
   21SAPC  C212 2755   5.416   0.345   9.428 -0.5234  0.4289  0.5493
   21SAPC  H12R 2756   5.316   0.389   9.428 -0.1420  1.3477 -1.0108
   21SAPC  C213 2757   5.448   0.273   9.297  1.4412 -0.4754 -0.3655
   21SAPC  H13R 2758   5.384   0.183   9.290  0.7544  0.1853 -2.6617
   21SAPC  H13S 2759   5.552   0.234   9.298  1.9463  0.8375  1.5589
   21SAPC  C214 2760   5.420   0.357   9.176 -0.2658 -0.4222 -0.2262
   21SAPC  H14R 2761   5.316   0.367   9.142 -0.2078  3.3361  0.4366
   21SAPC  C215 2762   5.517   0.428   9.110 -0.1013  0.0902 -0.3973
   21SAPC  H15R 2763   5.486   0.495   9.028  1.4415  1.4790  0.1346
   21SAPC  C216 2764   5.659   0.444   9.138  0.2523  0.2971  1.1030
   21SAPC  H16R 2765   5.699   0.388   9.226  1.5488  0.4038  0.5892
   21SAPC  H16S 2766   5.659   0.554   9.155  0.8857  0.5954 -0.7215
   21SAPC  C217 2767   5.749   0.408   9.011  0.1667 -0.3800 -0.3680
   21SAPC  H17R 2768   5.734   0.299   8.994 -1.7550 -0.3415  0.8666
   21SAPC  H17S 2769   5.855   0.424   9.041  0.1095 -1.8995  0.7324
   21SAPC  C218 2770   5.724   0.496   8.881 -0.5020 -0.6133 -0.7147
   21SAPC  H18R 2771   5.626   0.473   8.834 -0.3776  1.4025 -2.0242
   21SAPC  H18S 2772   5.810   0.463   8.820 -0.5899  1.5261 -2.0604
   21SAPC  C219 2773   5.739   0.650   8.910  0.4166 -0.0089 -0.1848
   21SAPC  H19R 2774   5.837   0.686   8.946 -0.2443 -1.4375  3.1983
   21SAPC  H19S 2775   5.659   0.680   8.981  1.0118  3.4956 -0.9101
   21SAPC  C220 2776   5.724   0.728   8.780  0.1231  0.1159  0.0399
   21SAPC  H20R 2777   5.626   0.703   8.733 -0.8528  0.7724  1.6780
   21SAPC  H20S 2778   5.795   0.713   8.696  1.0277 -1.5697  1.0752
   21SAPC  H20T 2779   5.726   0.838   8.795  0.3641 -0.0252  1.0453
   21SAPC   C33 2780   6.128   1.080  10.056  0.1883  0.4597 -0.2072
   21SAPC   H3X 2781   6.234   1.049  10.069  0.2828 -0.1630 -2.2583
   21SAPC   H3Y 2782   6.117   1.168  10.122  0.9741 -0.9494  1.8488
   21SAPC   C34 2783   6.113   1.071   9.908  0.8009  0.5207 -0.8169
   21SAPC   H4X 2784   6.006   1.084   9.880 -0.8590 -1.5642  3.9392
   21SAPC   H4Y 2785   6.142   0.969   9.873 -1.7231  0.1594 -2.0258
   21SAPC   C35 2786   6.199   1.178   9.835  0.6415 -0.3861  0.1982
   21SAPC   H5X 2787   6.308   1.175   9.857  0.7913  0.3605 -0.4076
   21SAPC   H5Y 2788   6.165   1.277   9.872 -1.7810 -0.9548 -0.4366
   21SAPC   C36 2789   6.171   1.167   9.689  0.0269 -0.1947  0.1250
   21SAPC   H6X 2790   6.066   1.198   9.671  1.1831  2.8608 -1.9008
   21SAPC   H6Y 2791   6.173   1.062   9.655  2.0555  0.4526 -1.9441
   21SAPC   C37 2792   6.252   1.261   9.599  0.4385 -0.3377  0.6144
   21SAPC   H7X 2793   6.337   1.307   9.654  1.0781 -1.2343  0.3858
   21SAPC   H7Y 2794   6.191   1.347   9.562 -1.3448 -1.8076  0.0638
   21SAPC   C38 2795   6.301   1.192   9.471 -0.4367 -0.4508 -0.5575
   21SAPC   H8X 2796   6.210   1.170   9.412 -2.0109  2.3792  0.7100
   21SAPC   H8Y 2797   6.347   1.094   9.495 -2.0164 -1.4427 -1.4849
   21SAPC   C39 2798   6.384   1.268   9.363 -0.4324  0.8462  0.1296
   21SAPC   H9X 2799   6.486   1.287   9.402 -1.2070  1.4643  1.8923
   21SAPC   H9Y 2800   6.333   1.362   9.334 -1.3029  0.2566 -0.2443
   21SAPC  C310 2801   6.395   1.187   9.231 -0.8837 -0.5117 -1.2426
   21SAPC  H10X 2802   6.291   1.197   9.195 -1.5997 -1.0004  0.6145
   21SAPC  H10Y 2803   6.410   1.079   9.257 -0.1130 -0.3732 -1.1039
   21SAPC  C311 2804   6.499   1.241   9.129  0.1221  0.3135 -0.7795
   21SAPC  H11X 2805   6.600   1.203   9.157 -0.2564 -1.2605 -1.4732
   21SAPC  H11Y 2806   6.502   1.352   9.131 -1.2603  0.3435  0.0107
   21SAPC  C312 2807   6.463   1.197   8.989  0.0082 -0.2985 -0.1234
   21SAPC  H12X 2808   6.374   1.131   8.994 -0.0042 -0.1783  1.3287
   21SAPC  H12Y 2809   6.536   1.120   8.954 -2.2169 -1.5845 -2.0572
   21SAPC  C313 2810   6.453   1.315   8.894 -0.3692 -0.4876  0.2760
   21SAPC  H13X 2811   6.436   1.272   8.792  1.4212 -0.4820 -0.0479
   21SAPC  H13Y 2812   6.541   1.383   8.894 -1.9241  1.5493 -0.8106
   21SAPC  C314 2813   6.317   1.390   8.916 -0.3704  0.0286  0.1948
   21SAPC  H14X 2814   6.312   1.432   9.019 -1.3604 -0.5858  0.4066
   21SAPC  H14Y 2815   6.239   1.312   8.908  0.8927 -1.1189 -1.3180
   21SAPC  C315 2816   6.278   1.497   8.806 -0.3788 -0.7446  0.9226
   21SAPC  H15X 2817   6.169   1.478   8.794 -0.5763  0.1358  1.2897
   21SAPC  H15Y 2818   6.330   1.485   8.709  3.5077  1.2504  2.6587
   21SAPC  C316 2819   6.311   1.644   8.852  0.5467  0.1635 -0.7081
   21SAPC  H16X 2820   6.421   1.654   8.857  0.6971 -1.2057 -1.0058
   21SAPC  H16Y 2821   6.272   1.645   8.956  0.4234  1.4355 -0.7673
   21SAPC  C317 2822   6.250   1.749   8.759  0.0336  0.6368 -0.3157
   21SAPC  H17X 2823   6.209   1.713   8.663 -0.7726 -0.7744  0.5367
   21SAPC  H17Y 2824   6.333   1.813   8.723  0.3817 -0.3144 -1.2413
   21SAPC  C318 2825   6.151   1.846   8.811 -0.5002  0.1976  0.6182
   21SAPC  H18X 2826   6.058   1.800   8.852 -0.1014 -1.4483 -0.2914
   21SAPC  H18Y 2827   6.126   1.912   8.725 -0.4932 -1.4586 -0.6733
   21SAPC  H18Z 2828   6.196   1.906   8.892  2.2307  1.6587 -1.8988
   22SAPC     N 2829   5.314   5.195  10.636  0.4853 -0.7432  0.0140
   22SAPC   C12 2830   5.343   5.062  10.577 -0.3869 -0.2774  0.4453
   22SAPC  H12A 2831   5.451   5.067  10.574 -0.4081 -0.5393 -4.0605
   22SAPC  H12B 2832   5.298   5.064  10.479  0.6771 -0.2098 -0.0529
   22SAPC   C13 2833   5.171   5.210  10.646  0.3788  0.3025  0.2195
   22SAPC  H13A 2834   5.124   5.131  10.703  2.9598 -0.4290  1.4171
   22SAPC  H13B 2835   5.146   5.307  10.687 -1.0874  0.4996 -1.0928
   22SAPC  H13C 2836   5.126   5.201  10.549 -0.4983 -0.0076  0.6432
   22SAPC   C14 2837   5.380   5.226  10.767 -0.0658 -0.3125 -0.0872
   22SAPC  H14A 2838   5.486   5.208  10.753 -0.0286  0.7143 -1.1922
   22SAPC  H14B 2839   5.353   5.326  10.799  0.1360 -0.1358 -0.4616
   22SAPC  H14C 2840   5.359   5.155  10.846  0.1301 -1.2772 -0.8884
   22SAPC   C15 2841   5.360   5.304  10.546 -0.0828 -0.6703 -0.7201
   22SAPC  H15A 2842   5.348   5.403  10.588 -2.7111 -0.7134 -1.2869
   22SAPC  H15B 2843   5.464   5.279  10.529 -0.3125 -1.4945 -0.9434
   22SAPC  H15C 2844   5.302   5.308  10.455 -0.1101  2.1578 -0.6127
   22SAPC   C11 2845   5.326   4.927  10.655  0.0196 -1.5777  0.2631
   22SAPC  H11A 2846   5.328   4.835  10.594  1.7505 -1.0750 -0.4575
   22SAPC  H11B 2847   5.224   4.941  10.696  0.3165 -0.6630  0.6946
   22SAPC     P 2848   5.564   4.925  10.750  0.3848  0.4395  0.1961
   22SAPC   O13 2849   5.621   5.042  10.821 -0.1859 -0.6442 -0.1266
   22SAPC   O14 2850   5.626   4.793  10.781 -0.4948 -0.4459  0.2354
   22SAPC   O12 2851   5.411   4.916  10.771 -0.5589 -0.1471 -0.7709
   22SAPC   O11 2852   5.582   4.952  10.601  0.1305  0.3431  0.1887
   22SAPC    C1 2853   5.710   4.967  10.536 -0.3700 -0.4669 -0.5551
   22SAPC    HA 2854   5.747   5.071  10.543  1.2532 -1.1200  1.1367
   22SAPC    HB 2855   5.797   4.909  10.575 -0.8617 -0.3260  0.7464
   22SAPC    C2 2856   5.710   4.923  10.386 -0.3498  0.2569  0.4893
   22SAPC    HS 2857   5.811   4.935  10.342 -0.5710 -1.1506 -0.4194
   22SAPC   O21 2858   5.600   4.973  10.303  0.4767  0.3972 -0.4893
   22SAPC   C21 2859   5.569   5.107  10.302 -0.0402  0.5894  0.2279
   22SAPC   O22 2860   5.625   5.193  10.364 -0.1846 -0.2114  0.0629
   22SAPC   C22 2861   5.451   5.132  10.206 -0.5836 -0.4784  0.0528
   22SAPC   H2R 2862   5.373   5.054  10.221 -0.3683 -0.4729  1.2498
   22SAPC   H2S 2863   5.419   5.238  10.219  2.5872  0.6957 -1.2132
   22SAPC    C3 2864   5.674   4.766  10.374  0.1152 -0.4245 -1.1322
   22SAPC    HX 2865   5.577   4.743  10.423  0.2213  2.1176  0.3820
   22SAPC    HY 2866   5.751   4.710  10.432 -0.1571 -1.2149 -1.5353
   22SAPC   O31 2867   5.661   4.722  10.243  0.1953  0.2862  0.3384
   22SAPC   C31 2868   5.777   4.685  10.190  0.2598 -0.4153 -0.1436
   22SAPC   O32 2869   5.873   4.662  10.255 -0.5054 -0.0760  0.4804
   22SAPC   C32 2870   5.765   4.667  10.043  0.0219  0.5650 -0.5206
   22SAPC   H2X 2871   5.663   4.707  10.023 -0.7338 -1.3497 -0.6787
   22SAPC   H2Y 2872   5.763   4.558  10.017 -1.2322  0.1965  1.0517
   22SAPC   C23 2873   5.476   5.113  10.059 -0.3952 -0.0472  0.0479
   22SAPC   H3R 2874   5.508   5.014  10.020 -1.1210  0.1978 -1.2210
   22SAPC   H3S 2875   5.547   5.187  10.016  1.8758 -3.7179 -2.8535
   22SAPC   C24 2876   5.349   5.153   9.972  0.2120 -1.0022 -0.2669
   22SAPC   H4R 2877   5.384   5.165   9.867  1.1978  0.4818  0.2130
   22SAPC   H4S 2878   5.334   5.257  10.008  0.3035 -0.8080 -0.7891
   22SAPC   C25 2879   5.231   5.067   9.992  0.2044 -0.3970 -0.2978
   22SAPC   H5R 2880   5.181   5.088  10.088 -2.5965 -0.6350 -1.6540
   22SAPC   C26 2881   5.177   4.977   9.911  0.4237  0.3593  0.6802
   22SAPC   H6R 2882   5.076   4.944   9.939 -0.6669  1.2133 -2.0488
   22SAPC   C27 2883   5.225   4.942   9.773  0.0320  1.0447 -0.5209
   22SAPC   H7R 2884   5.336   4.935   9.775  0.0046  0.5071 -0.8571
   22SAPC   H7S 2885   5.203   5.034   9.714  2.7001  2.8036  1.1418
   22SAPC   C28 2886   5.172   4.806   9.726  0.5045 -0.4926 -0.9028
   22SAPC   H8R 2887   5.073   4.774   9.761  0.3251 -0.7764 -1.6501
   22SAPC   C29 2888   5.229   4.735   9.637 -0.2453 -0.4754 -0.2115
   22SAPC   H9R 2889   5.168   4.647   9.614 -1.1692  0.3689 -1.0613
   22SAPC  C210 2890   5.351   4.755   9.544  0.6848  0.5619 -0.2889
   22SAPC  H10R 2891   5.366   4.865   9.553 -0.6860  0.6394  1.2712
   22SAPC  H10S 2892   5.334   4.746   9.435  2.1560  3.5424 -0.8158
   22SAPC  C211 2893   5.486   4.699   9.588 -0.0984  0.2086  0.4811
   22SAPC  H11R 2894   5.484   4.680   9.696  0.1485 -2.2032  0.0879
   22SAPC  C212 2895   5.597   4.668   9.517  0.1068 -0.4504 -0.3883
   22SAPC  H12R 2896   5.682   4.623   9.570  1.6882  0.4084 -2.1808
   22SAPC  C213 2897   5.603   4.696   9.363  0.1179 -0.2104  0.4687
   22SAPC  H13R 2898   5.554   4.791   9.333 -0.9364 -1.1599 -0.8790
   22SAPC  H13S 2899   5.549   4.614   9.311  0.9348  0.4813 -1.4848
   22SAPC  C214 2900   5.737   4.694   9.299  0.0208 -0.4495 -0.7672
   22SAPC  H14R 2901   5.819   4.696   9.373 -2.4181  0.7490  1.9967
   22SAPC  C215 2902   5.769   4.713   9.170 -0.2704 -1.1096 -0.9128
   22SAPC  H15R 2903   5.875   4.725   9.143 -0.1340  1.9939  0.7998
   22SAPC  C216 2904   5.681   4.748   9.055  0.7903 -0.5648  0.5806
   22SAPC  H16R 2905   5.702   4.854   9.029 -1.1367 -0.7411 -1.8911
   22SAPC  H16S 2906   5.572   4.742   9.076  1.0853  0.5248  2.5706
   22SAPC  C217 2907   5.731   4.672   8.923 -0.9091 -0.2222  0.0884
   22SAPC  H17R 2908   5.712   4.564   8.942 -2.7019  0.0686 -0.0020
   22SAPC  H17S 2909   5.841   4.681   8.904 -0.3116 -2.7483  2.0729
   22SAPC  C218 2910   5.645   4.704   8.797 -0.0797 -0.8059 -0.3670
   22SAPC  H18R 2911   5.543   4.722   8.837  0.6441 -0.7159  1.4868
   22SAPC  H18S 2912   5.654   4.612   8.734  1.8205 -0.5235 -0.5433
   22SAPC  C219 2913   5.691   4.830   8.721  0.5585 -0.0506 -0.3195
   22SAPC  H19R 2914   5.686   4.807   8.612  1.1577  0.9232 -0.5640
   22SAPC  H19S 2915   5.799   4.847   8.742  0.3986 -2.9591  3.2010
   22SAPC  C220 2916   5.604   4.957   8.737 -0.2734  0.2980 -0.3083
   22SAPC  H20R 2917   5.626   4.999   8.837 -0.7434 -1.0051  0.3458
   22SAPC  H20S 2918   5.494   4.945   8.731 -0.3639  1.4956 -1.4736
   22SAPC  H20T 2919   5.633   5.041   8.669  0.4554 -0.5420 -1.0507
   22SAPC   C33 2920   5.874   4.726   9.965 -0.5058  0.4065 -0.2449
   22SAPC   H3X 2921   5.884   4.669   9.870  0.8360 -1.8340  1.2220
   22SAPC   H3Y 2922   5.974   4.725  10.012 -1.0787 -2.0340  1.0292
   22SAPC   C34 2923   5.846   4.873   9.910  0.5613 -0.4072  0.2572
   22SAPC   H4X 2924   5.940   4.891   9.852  0.2014  1.2019  0.1397
   22SAPC   H4Y 2925   5.845   4.954   9.987  0.8347  0.2884 -0.4690
   22SAPC   C35 2926   5.722   4.883   9.824 -0.1659  0.2321  0.3039
   22SAPC   H5X 2927   5.635   4.862   9.891  0.2950 -0.7674  0.5981
   22SAPC   H5Y 2928   5.726   4.815   9.737  1.5186  0.1564  0.4193
   22SAPC   C36 2929   5.697   5.025   9.771 -0.1331 -0.0721  0.5275
   22SAPC   H6X 2930   5.726   5.102   9.845  1.3810 -0.0180 -0.0971
   22SAPC   H6Y 2931   5.586   5.029   9.762 -0.2637 -3.0492  0.3337
   22SAPC   C37 2932   5.770   5.058   9.639  0.0456 -0.0945 -0.2762
   22SAPC   H7X 2933   5.879   5.038   9.638  0.0100 -0.2901 -0.5818
   22SAPC   H7Y 2934   5.758   5.168   9.628  2.0656  0.2340  0.6717
   22SAPC   C38 2935   5.716   4.989   9.515  0.3270 -0.2022 -1.0002
   22SAPC   H8X 2936   5.607   5.010   9.505  0.2609  0.9812  1.6861
   22SAPC   H8Y 2937   5.731   4.880   9.518 -0.4171 -0.2799  0.1730
   22SAPC   C39 2938   5.785   5.035   9.381  0.0320 -0.2552  0.3243
   22SAPC   H9X 2939   5.740   4.975   9.300  1.4811 -0.4336 -0.3695
   22SAPC   H9Y 2940   5.895   5.020   9.381 -0.0789 -1.0740  0.8119
   22SAPC  C310 2941   5.772   5.180   9.333  0.6032  0.5227 -0.5886
   22SAPC  H10X 2942   5.824   5.230   9.417  0.2312 -0.9476  0.5380
   22SAPC  H10Y 2943   5.664   5.206   9.327  0.9141  1.9614 -0.2363
   22SAPC  C311 2944   5.849   5.215   9.207  0.2377  0.1019  0.3879
   22SAPC  H11X 2945   5.958   5.198   9.225 -0.1085 -1.9887  0.5507
   22SAPC  H11Y 2946   5.828   5.324   9.202 -0.9179 -0.1365  0.0772
   22SAPC  C312 2947   5.814   5.137   9.082  0.3723  0.3549  0.4202
   22SAPC  H12X 2948   5.719   5.171   9.037 -0.9340 -0.6532  2.3376
   22SAPC  H12Y 2949   5.797   5.034   9.121  1.2368  0.2442  0.5232
   22SAPC  C313 2950   5.921   5.137   8.971  0.9272 -0.1180 -0.4279
   22SAPC  H13X 2951   5.956   5.242   8.956  0.1279  0.2857  0.4948
   22SAPC  H13Y 2952   5.873   5.121   8.872 -3.5797  0.1109  1.6133
   22SAPC  C314 2953   6.044   5.046   8.994 -0.3774 -0.5040 -0.3871
   22SAPC  H14X 2954   6.019   4.949   8.947  1.3446 -0.0807 -2.2893
   22SAPC  H14Y 2955   6.061   5.036   9.103  3.4387  0.8092 -0.7828
   22SAPC  C315 2956   6.183   5.103   8.949  0.3440  0.8239 -0.0965
   22SAPC  H15X 2957   6.270   5.042   8.982  0.2427 -0.6731 -2.4364
   22SAPC  H15Y 2958   6.185   5.203   8.996 -1.9842  0.9936 -0.3171
   22SAPC  C316 2959   6.200   5.124   8.797 -0.0180  1.0195  0.2829
   22SAPC  H16X 2960   6.274   5.202   8.773  0.6348 -0.2971 -2.1120
   22SAPC  H16Y 2961   6.101   5.158   8.761 -0.5688 -2.0465 -1.3137
   22SAPC  C317 2962   6.220   4.993   8.715 -0.5708 -0.2329 -0.2232
   22SAPC  H17X 2963   6.141   4.920   8.740 -1.1994 -0.0711 -1.7332
   22SAPC  H17Y 2964   6.317   4.943   8.734 -1.6491 -2.2888  0.0234
   22SAPC  C318 2965   6.215   5.021   8.570  0.3725 -0.6410 -0.4475
   22SAPC  H18X 2966   6.247   4.931   8.513  0.2906 -0.9559 -0.0009
   22SAPC  H18Y 2967   6.284   5.101   8.535  1.0193  0.0960  2.3975
   22SAPC  H18Z 2968   6.115   5.052   8.535 -0.2621 -0.2365  1.6668
   23SAPC     N 2969   6.260   0.028  10.689 -0.4459  0.2537 -0.4727
   23SAPC   C12 2970   6.354   0.074  10.575  0.1283 -0.0437 -0.3141
   23SAPC  H12A 2971   6.301   0.078  10.481  1.3826 -1.1205 -1.0733
   23SAPC  H12B 2972   6.426  -0.006  10.571  0.3465  0.0572  1.2793
   23SAPC   C13 2973   6.221  -0.116  10.677  0.6446  0.1275 -0.5762
   23SAPC  H13A 2974   6.173  -0.146  10.585 -2.4817  0.9793  0.7064
   23SAPC  H13B 2975   6.305  -0.182  10.687 -0.0940 -0.8518 -0.7526
   23SAPC  H13C 2976   6.161  -0.148  10.761  1.4967  0.8205  0.2953
   23SAPC   C14 2977   6.331   0.055  10.820 -0.6314 -0.0848 -0.4491
   23SAPC  H14A 2978   6.275   0.015  10.903  2.9363 -2.6148  0.8592
   23SAPC  H14B 2979   6.427   0.008  10.830 -0.5435  0.1136 -0.3562
   23SAPC  H14C 2980   6.324   0.161  10.840  0.4982  0.5578 -3.2476
   23SAPC   C15 2981   6.125   0.101  10.693  0.2079  0.0230  0.6577
   23SAPC  H15A 2982   6.059   0.058  10.620  1.9078  0.9763 -1.4781
   23SAPC  H15B 2983   6.086   0.097  10.794  0.6107  1.7359  0.9047
   23SAPC  H15C 2984   6.142   0.206  10.672  0.6642  0.1200  1.4675
   23SAPC   C11 2985   6.420   0.211  10.584 -0.2926  0.0325  0.1837
   23SAPC  H11A 2986   6.348   0.295  10.589 -0.4740 -0.0671 -0.7157
   23SAPC  H11B 2987   6.465   0.227  10.484 -2.5716 -1.3817 -1.1220
   23SAPC     P 2988   6.647   0.124  10.680 -0.1028 -0.1454 -0.3880
   23SAPC   O13 2989   6.755   0.177  10.767 -0.0163 -0.5270 -0.0981
   23SAPC   O14 2990   6.610  -0.018  10.698  0.0248  0.0242 -0.0890
   23SAPC   O12 2991   6.521   0.221  10.685 -0.0903 -0.6833 -0.1336
   23SAPC   O11 2992   6.697   0.146  10.531 -0.4924  0.3503 -0.6419
   23SAPC    C1 2993   6.836   0.129  10.511 -0.4773  0.0179  0.4411
   23SAPC    HA 2994   6.897   0.158  10.599 -0.2313 -1.8719  0.9249
   23SAPC    HB 2995   6.847   0.019  10.496  0.5846  0.2723 -0.6314
   23SAPC    C2 2996   6.894   0.195  10.375  0.3018  0.0206 -0.0136
   23SAPC    HS 2997   6.887   0.304  10.389  1.9045  0.0490  0.7407
   23SAPC   O21 2998   6.822   0.147  10.266  0.5362  0.0976 -0.2726
   23SAPC   C21 2999   6.724   0.221  10.225  0.1919  0.4606  0.2895
   23SAPC   O22 3000   6.683   0.322  10.279 -0.1638 -0.3351 -0.0933
   23SAPC   C22 3001   6.672   0.179  10.085 -0.2779 -0.0797  0.4857
   23SAPC   H2R 3002   6.592   0.248  10.052 -0.2020  0.2023  0.8941
   23SAPC   H2S 3003   6.758   0.193  10.016 -1.2769 -1.3844 -1.0517
   23SAPC    C3 3004   7.048   0.160  10.355 -0.1905  0.6889  0.3199
   23SAPC    HX 3005   7.050   0.050  10.344 -1.9865  0.6098  0.6529
   23SAPC    HY 3006   7.103   0.189  10.448  2.2497 -3.3803  0.2569
   23SAPC   O31 3007   7.114   0.209  10.239  0.5636 -0.1468  0.7521
   23SAPC   C31 3008   7.236   0.154  10.221  1.0952  0.2380 -0.5025
   23SAPC   O32 3009   7.286   0.079  10.300  0.1792 -0.0704  0.3748
   23SAPC   C32 3010   7.287   0.191  10.087  0.4514 -0.5828 -1.0497
   23SAPC   H2X 3011   7.208   0.235  10.023 -0.1000  1.9814  1.3055
   23SAPC   H2Y 3012   7.340   0.103  10.045  4.3636  1.5810 -0.8540
   23SAPC   C23 3013   6.621   0.032  10.077 -0.3331  0.1398 -0.5341
   23SAPC   H3R 3014   6.530   0.022  10.140  1.3467 -0.0978  1.9290
   23SAPC   H3S 3015   6.698  -0.039  10.116 -0.9509  1.0395  2.4330
   23SAPC   C24 3016   6.585  -0.001   9.933 -0.5091 -0.5146 -0.1579
   23SAPC   H4R 3017   6.502   0.066   9.904  0.6920  1.1635  0.2331
   23SAPC   H4S 3018   6.539  -0.102   9.938 -2.7811  0.6220  3.1277
   23SAPC   C25 3019   6.704  -0.005   9.839 -0.5995 -0.2494 -0.4598
   23SAPC   H5R 3020   6.803  -0.009   9.887 -0.5041  3.4436 -0.2274
   23SAPC   C26 3021   6.693   0.002   9.706  0.3937  0.0173  0.4939
   23SAPC   H6R 3022   6.782  -0.018   9.644  1.3904  1.3140  1.4770
   23SAPC   C27 3023   6.568   0.016   9.619  0.3777  0.1405  1.4083
   23SAPC   H7R 3024   6.475   0.004   9.679  0.6201  0.3279  1.8293
   23SAPC   H7S 3025   6.554  -0.075   9.558  0.3173  1.0818  0.0059
   23SAPC   C28 3026   6.569   0.141   9.528  0.4127  0.1959  0.2408
   23SAPC   H8R 3027   6.542   0.235   9.578  1.7127  0.0501  1.2636
   23SAPC   C29 3028   6.602   0.153   9.400  0.3044  0.4361 -0.1142
   23SAPC   H9R 3029   6.592   0.250   9.349  0.6905  1.1479  1.1392
   23SAPC  C210 3030   6.640   0.053   9.300 -0.9814 -0.4141 -0.4811
   23SAPC  H10R 3031   6.609   0.093   9.201 -2.9834 -1.8041 -0.4549
   23SAPC  H10S 3032   6.571  -0.033   9.317  0.1246 -1.1573  0.2907
   23SAPC  C211 3033   6.782   0.006   9.303  0.2150  0.8199  0.1788
   23SAPC  H11R 3034   6.834   0.004   9.400 -0.6465  2.7851  0.7078
   23SAPC  C212 3035   6.834  -0.050   9.192 -0.3300 -0.2670 -0.7353
   23SAPC  H12R 3036   6.937  -0.087   9.202 -1.2999 -2.7255  0.5607
   23SAPC  C213 3037   6.776  -0.089   9.056  0.2360 -0.7626 -0.4064
   23SAPC  H13R 3038   6.665  -0.092   9.057  0.2620 -2.3078 -0.8898
   23SAPC  H13S 3039   6.807  -0.194   9.036  0.7893 -0.7883  0.5896
   23SAPC  C214 3040   6.827   0.001   8.946 -0.3811  0.6699  0.3151
   23SAPC  H14R 3041   6.861   0.099   8.983 -1.1312  0.8892  0.4329
   23SAPC  C215 3042   6.840  -0.026   8.813  0.2149 -0.4306  0.0208
   23SAPC  H15R 3043   6.881   0.056   8.752 -0.8799 -1.7926 -2.6234
   23SAPC  C216 3044   6.800  -0.153   8.738 -0.3259  0.2877  0.0088
   23SAPC  H16R 3045   6.716  -0.129   8.670  0.4326  3.7488  0.2281
   23SAPC  H16S 3046   6.753  -0.232   8.801 -1.0432  0.2698 -0.5498
   23SAPC  C217 3047   6.918  -0.224   8.665 -0.2679 -0.3095  0.0240
   23SAPC  H17R 3048   6.880  -0.318   8.618  1.2384  0.7772 -3.5442
   23SAPC  H17S 3049   6.998  -0.245   8.740 -1.3672  0.1325  1.3380
   23SAPC  C218 3050   6.980  -0.132   8.561 -0.7599  0.2602  0.2277
   23SAPC  H18R 3051   7.040  -0.048   8.602  0.4347 -0.7565  0.5812
   23SAPC  H18S 3052   6.893  -0.101   8.499 -1.5469 -0.0842  1.1499
   23SAPC  C219 3053   7.080  -0.214   8.473 -0.0831 -0.0167  0.4272
   23SAPC  H19R 3054   7.029  -0.299   8.423 -2.3214  1.0623  0.8335
   23SAPC  H19S 3055   7.154  -0.259   8.543 -0.3430 -1.3450 -0.1402
   23SAPC  C220 3056   7.156  -0.131   8.376  0.0504  0.6026 -0.0535
   23SAPC  H20R 3057   7.243  -0.188   8.336 -0.4123  0.8979 -1.5168
   23SAPC  H20S 3058   7.182  -0.038   8.431 -1.1561  0.2605  1.1304
   23SAPC  H20T 3059   7.093  -0.106   8.288 -1.0935  2.3677  1.2290
   23SAPC   C33 3060   7.394   0.301  10.102  0.3122 -0.4308 -0.5284
   23SAPC   H3X 3061   7.478   0.269  10.167 -0.6132 -0.8598  0.4742
   23SAPC   H3Y 3062   7.345   0.385  10.156  0.7362  0.3261 -1.2941
   23SAPC   C34 3063   7.446   0.347   9.967 -0.0605 -0.6469  0.2363
   23SAPC   H4X 3064   7.533   0.413   9.986  0.8579 -1.1996 -1.9395
   23SAPC   H4Y 3065   7.372   0.413   9.916  2.9686  2.1642 -0.7327
   23SAPC   C35 3066   7.478   0.247   9.853 -1.6368  0.0593 -0.0024
   23SAPC   H5X 3067   7.399   0.171   9.833  0.4593 -1.7739 -1.7034
   23SAPC   H5Y 3068   7.566   0.190   9.891  0.6490  1.7038 -2.6188
   23SAPC   C36 3069   7.509   0.311   9.714 -0.1932 -0.4916 -0.1094
   23SAPC   H6X 3070   7.601   0.373   9.719 -0.8356  0.5261 -0.8091
   23SAPC   H6Y 3071   7.427   0.379   9.684  0.0112 -0.0540  0.3103
   23SAPC   C37 3072   7.529   0.222   9.594 -0.5273  0.5678 -0.5073
   23SAPC   H7X 3073   7.459   0.135   9.598  1.3277 -0.9847 -1.2840
   23SAPC   H7Y 3074   7.634   0.185   9.592 -0.7923 -0.2399 -0.0576
   23SAPC   C38 3075   7.510   0.297   9.469 -0.2295  0.0653  0.2487
   23SAPC   H8X 3076   7.568   0.391   9.476  0.2361 -0.1060 -1.0829
   23SAPC   H8Y 3077   7.401   0.321   9.466  0.1332  1.6454 -1.6004
   23SAPC   C39 3078   7.544   0.213   9.342 -0.3176 -0.1844 -0.1222
   23SAPC   H9X 3079   7.482   0.121   9.351 -1.6957  0.5588 -1.6561
   23SAPC   H9Y 3080   7.650   0.183   9.333 -1.1117 -3.6301  1.0677
   23SAPC  C310 3081   7.507   0.289   9.208 -0.2314 -0.2783  0.1040
   23SAPC  H10X 3082   7.567   0.382   9.205  1.1146 -1.1587 -0.3906
   23SAPC  H10Y 3083   7.400   0.314   9.225 -0.0404 -0.8273  2.2892
   23SAPC  C311 3084   7.522   0.204   9.080 -0.8926  0.7358  0.0585
   23SAPC  H11X 3085   7.444   0.246   9.012 -1.0499  2.8212  1.4968
   23SAPC  H11Y 3086   7.504   0.095   9.096  0.2615  0.7136  1.2112
   23SAPC  C312 3087   7.653   0.216   9.006  0.2837  0.6825 -0.2951
   23SAPC  H12X 3088   7.681   0.324   9.007  0.0487  0.7534  1.7530
   23SAPC  H12Y 3089   7.649   0.187   8.899  0.8085  0.8789 -0.3682
   23SAPC  C313 3090   7.775   0.142   9.069  0.3600 -0.0685 -0.4421
   23SAPC  H13X 3091   7.755   0.035   9.046 -3.1941  0.8384 -2.0355
   23SAPC  H13Y 3092   7.772   0.165   9.177 -1.0871 -1.7849 -0.0908
   23SAPC  C314 3093   7.905   0.189   9.010  0.1837  1.0564  0.4724
   23SAPC  H14X 3094   7.901   0.298   8.990 -0.3811  1.0816  0.7051
   23SAPC  H14Y 3095   7.908   0.139   8.911  0.9346  0.6097  0.7182
   23SAPC  C315 3096   8.014   0.172   9.111  0.2539 -0.6852 -0.2692
   23SAPC  H15X 3097   8.048   0.066   9.123  1.8850  0.1612  3.0681
   23SAPC  H15Y 3098   7.999   0.213   9.213 -0.3622  1.1596 -1.0879
   23SAPC  C316 3099   8.131   0.258   9.055  0.2267 -0.2243 -0.1342
   23SAPC  H16X 3100   8.099   0.363   9.039 -0.2365 -0.3827 -0.2383
   23SAPC  H16Y 3101   8.165   0.211   8.960 -1.7982 -0.6698 -0.6692
   23SAPC  C317 3102   8.242   0.287   9.159  0.0195 -0.3485 -0.4954
   23SAPC  H17X 3103   8.278   0.197   9.214 -2.8215 -0.3494  1.4830
   23SAPC  H17Y 3104   8.196   0.354   9.236  1.0596  3.2426 -2.8935
   23SAPC  C318 3105   8.362   0.360   9.096  0.3744 -0.0559 -0.1356
   23SAPC  H18X 3106   8.323   0.449   9.043 -0.3124  0.4087  1.1434
   23SAPC  H18Y 3107   8.412   0.286   9.030 -0.6009  0.1684 -1.1414
   23SAPC  H18Z 3108   8.434   0.397   9.171  1.5518 -1.1413 -0.6957
   24SAPC     N 3109   2.232   0.643  11.268 -0.8570 -0.4587 -0.2153
   24SAPC   C12 3110   2.168   0.774  11.233 -0.2304  0.1687 -0.0784
   24SAPC  H12A 3111   2.233   0.859  11.252  2.2830 -1.2607 -1.8853
   24SAPC  H12B 3112   2.086   0.780  11.303 -0.7784 -1.2564 -0.5685
   24SAPC   C13 3113   2.135   0.528  11.260  0.8398  0.7843  0.1901
   24SAPC  H13A 3114   2.176   0.432  11.287  0.9215  0.7718  0.0234
   24SAPC  H13B 3115   2.060   0.545  11.336  0.7081  0.9228  0.0298
   24SAPC  H13C 3116   2.078   0.528  11.169  3.5388 -0.4478 -1.5494
   24SAPC   C14 3117   2.342   0.605  11.181  0.0745  0.0243  0.5136
   24SAPC  H14A 3118   2.311   0.618  11.079  0.9518  2.3779  0.5214
   24SAPC  H14B 3119   2.430   0.664  11.199  0.7717 -0.0553 -2.4023
   24SAPC  H14C 3120   2.366   0.500  11.193  0.3013 -0.0831 -0.8571
   24SAPC   C15 3121   2.281   0.646  11.411  0.5422  0.9687 -0.2257
   24SAPC  H15A 3122   2.319   0.548  11.438 -1.1691  0.0847 -0.9067
   24SAPC  H15B 3123   2.364   0.712  11.426  0.7778  0.1894  2.1852
   24SAPC  H15C 3124   2.204   0.685  11.477  3.1714  0.1741  3.4789
   24SAPC   C11 3125   2.111   0.781  11.091 -0.3753 -0.5347  0.4120
   24SAPC  H11A 3126   2.049   0.873  11.092 -1.1927 -1.0806  0.0660
   24SAPC  H11B 3127   2.037   0.701  11.069  0.1707 -0.6798 -0.9714
   24SAPC     P 3128   2.299   0.901  10.964  0.2798 -0.0940  0.1206
   24SAPC   O13 3129   2.342   0.962  11.094 -0.3594 -0.6531  0.1661
   24SAPC   O14 3130   2.403   0.873  10.863 -0.1628  0.2890 -0.2282
   24SAPC   O12 3131   2.220   0.774  10.995 -0.5189  0.5194 -0.2489
   24SAPC   O11 3132   2.190   0.986  10.892 -0.2493 -1.0829  0.6142
   24SAPC    C1 3133   2.073   0.944  10.804  0.0246  0.5605 -0.4552
   24SAPC    HA 3134   2.035   0.845  10.838 -0.1979  0.6708 -0.3817
   24SAPC    HB 3135   1.987   1.013  10.819 -0.6217  0.1434 -2.1312
   24SAPC    C2 3136   2.109   0.940  10.650 -0.5059  0.0362 -0.0749
   24SAPC    HS 3137   2.010   0.909  10.610 -0.6207  0.2940  0.0076
   24SAPC   O21 3138   2.226   0.861  10.617 -0.1063  0.0323 -0.0081
   24SAPC   C21 3139   2.215   0.800  10.499 -0.2600 -0.5883  0.6550
   24SAPC   O22 3140   2.114   0.801  10.429 -0.2081 -0.0501 -0.1424
   24SAPC   C22 3141   2.345   0.720  10.476 -0.1246 -1.0572  0.2559
   24SAPC   H2R 3142   2.414   0.753  10.558 -0.3878 -0.3243  0.1896
   24SAPC   H2S 3143   2.307   0.618  10.497  0.4510 -1.2142  0.5661
   24SAPC    C3 3144   2.142   1.093  10.608 -0.4094  0.2333 -0.2602
   24SAPC    HX 3145   2.235   1.113  10.666 -1.7279 -0.4029  2.1365
   24SAPC    HY 3146   2.065   1.163  10.648  1.6291  1.4845  1.5715
   24SAPC   O31 3147   2.160   1.105  10.468  0.4418  0.0678  0.3440
   24SAPC   C31 3148   2.045   1.109  10.400  0.5987 -0.4555  0.6274
   24SAPC   O32 3149   1.933   1.110  10.448  0.1275  0.0682  0.0820
   24SAPC   C32 3150   2.086   1.088  10.253  0.3329  0.6720  0.0327
   24SAPC   H2X 3151   2.177   1.024  10.250 -0.2487 -0.1603  0.1023
   24SAPC   H2Y 3152   2.106   1.185  10.202 -0.0719  0.9657  0.4235
   24SAPC   C23 3153   2.403   0.737  10.327  0.2355  0.0954 -0.1140
   24SAPC   H3R 3154   2.320   0.706  10.260  0.0645 -0.2054  0.2373
   24SAPC   H3S 3155   2.487   0.667  10.307 -0.6358 -0.8585 -0.4477
   24SAPC   C24 3156   2.468   0.875  10.308 -0.2486  0.4901 -0.5307
   24SAPC   H4R 3157   2.381   0.944  10.314 -2.3312 -1.8718 -2.6376
   24SAPC   H4S 3158   2.502   0.875  10.202  0.3992 -0.6478 -0.3369
   24SAPC   C25 3159   2.585   0.917  10.402 -0.1772 -1.2866 -0.3334
   24SAPC   H5R 3160   2.547   0.933  10.504  1.4008  0.6767 -0.0365
   24SAPC   C26 3161   2.708   0.958  10.373 -0.5366  0.6505 -0.2150
   24SAPC   H6R 3162   2.773   0.990  10.455  0.4942 -0.6162 -0.5121
   24SAPC   C27 3163   2.769   0.959  10.236  0.3114 -0.6179 -0.3984
   24SAPC   H7R 3164   2.693   0.944  10.156  1.4307  0.3198 -1.6687
   24SAPC   H7S 3165   2.833   0.870  10.225  2.1581  0.5386  0.6804
   24SAPC   C28 3166   2.870   1.074  10.209 -0.5501 -0.2697 -0.1063
   24SAPC   H8R 3167   2.927   1.107  10.297  1.7695 -2.6499 -0.6539
   24SAPC   C29 3168   2.919   1.111  10.088 -0.7121  1.1820 -0.5439
   24SAPC   H9R 3169   2.987   1.197  10.088 -0.2592  0.8325  0.1447
   24SAPC  C210 3170   2.874   1.064   9.945 -0.2492  0.3382  0.5498
   24SAPC  H10R 3171   2.835   1.157   9.899  0.7800  0.3908 -0.2358
   24SAPC  H10S 3172   2.785   0.997   9.951  0.6417 -1.0099 -0.8035
   24SAPC  C211 3173   2.976   1.000   9.861 -0.5573  0.8845 -0.0272
   24SAPC  H11R 3174   3.076   0.989   9.906 -0.8056 -2.3920 -0.1414
   24SAPC  C212 3175   2.958   0.980   9.733 -0.4335 -0.0898 -0.1813
   24SAPC  H12R 3176   3.045   0.956   9.671  0.7384  0.2135  1.3173
   24SAPC  C213 3177   2.831   1.000   9.659  0.2210 -0.4217 -0.0080
   24SAPC  H13R 3178   2.745   1.037   9.719 -0.0109  0.3461 -0.7961
   24SAPC  H13S 3179   2.810   0.899   9.618  1.1597 -1.5799  2.3080
   24SAPC  C214 3180   2.861   1.091   9.542  0.2058 -0.1070  0.1832
   24SAPC  H14R 3181   2.891   1.188   9.585 -0.9095 -0.7137  2.4133
   24SAPC  C215 3182   2.858   1.060   9.409 -0.2430 -0.5122  0.0157
   24SAPC  H15R 3183   2.878   1.145   9.342 -2.5316  1.4477  1.7404
   24SAPC  C216 3184   2.822   0.925   9.354 -0.6937 -0.4750 -0.2421
   24SAPC  H16R 3185   2.771   0.938   9.256 -2.3257 -0.3471  0.6079
   24SAPC  H16S 3186   2.755   0.869   9.422  1.5096  0.2751  2.6277
   24SAPC  C217 3187   2.953   0.853   9.327  0.3980  0.2445 -0.0519
   24SAPC  H17R 3188   3.018   0.851   9.417  0.6116  0.4888 -0.2000
   24SAPC  H17S 3189   3.014   0.898   9.245  0.0826  2.5753  0.9682
   24SAPC  C218 3190   2.922   0.717   9.274 -0.4609 -0.5087  0.1395
   24SAPC  H18R 3191   2.831   0.673   9.319 -0.9282  0.4271  0.1215
   24SAPC  H18S 3192   3.004   0.644   9.290 -1.4644 -1.6766  0.0009
   24SAPC  C219 3193   2.881   0.710   9.126  0.2108 -0.1198  0.4240
   24SAPC  H19R 3194   2.962   0.741   9.056 -1.0243  0.0082 -0.9651
   24SAPC  H19S 3195   2.793   0.772   9.101  1.4083  0.8342 -1.4626
   24SAPC  C220 3196   2.843   0.568   9.092 -0.1609  0.0776 -0.1586
   24SAPC  H20R 3197   2.771   0.520   9.162 -0.3093  1.8196  0.9242
   24SAPC  H20S 3198   2.932   0.502   9.090 -0.2201 -0.0290  0.5919
   24SAPC  H20T 3199   2.790   0.563   8.995 -2.3643 -1.9531  1.1015
   24SAPC   C33 3200   1.990   0.998  10.171  0.2362  0.0908 -0.4435
   24SAPC   H3X 3201   1.887   1.040  10.180 -0.3869 -1.3220 -0.8802
   24SAPC   H3Y 3202   1.987   0.899  10.221  0.9076  0.0208 -0.5429
   24SAPC   C34 3203   2.038   0.979  10.029  0.0147 -1.0541  0.3626
   24SAPC   H4X 3204   2.129   0.917  10.017 -0.4692 -1.2559 -2.8853
   24SAPC   H4Y 3205   2.054   1.080   9.985  1.4654  0.0041  3.2255
   24SAPC   C35 3206   1.930   0.900   9.943 -0.0786  0.6765  0.1302
   24SAPC   H5X 3207   1.836   0.960   9.939  0.6112  1.8451  1.1569
   24SAPC   H5Y 3208   1.917   0.803   9.996 -0.1907 -0.6598 -2.2669
   24SAPC   C36 3209   1.980   0.888   9.803 -0.2191  0.1434  0.8993
   24SAPC   H6X 3210   2.068   0.821   9.809  0.8177  1.4095  0.2180
   24SAPC   H6Y 3211   2.023   0.987   9.775 -1.8352  0.3483 -0.9509
   24SAPC   C37 3212   1.869   0.851   9.700 -0.4126  0.9647 -0.6561
   24SAPC   H7X 3213   1.789   0.928   9.695 -1.7403 -0.4665 -2.4335
   24SAPC   H7Y 3214   1.816   0.762   9.741  2.4426 -0.8053 -0.7085
   24SAPC   C38 3215   1.943   0.818   9.571  0.0377 -0.4554 -0.3337
   24SAPC   H8X 3216   2.027   0.749   9.597  2.1203  1.6068 -1.4424
   24SAPC   H8Y 3217   1.983   0.916   9.540 -0.5038 -0.3712 -0.7839
   24SAPC   C39 3218   1.843   0.753   9.476  0.7095  0.3488  0.4743
   24SAPC   H9X 3219   1.757   0.822   9.462 -0.8286 -1.0027  2.8212
   24SAPC   H9Y 3220   1.799   0.658   9.513 -0.0178  0.3315 -0.4087
   24SAPC  C310 3221   1.909   0.726   9.336 -0.2722 -0.0931 -0.4626
   24SAPC  H10X 3222   1.995   0.662   9.366 -0.0140 -0.3593 -1.7606
   24SAPC  H10Y 3223   1.954   0.817   9.291  2.0637 -0.9241  0.1226
   24SAPC  C311 3224   1.833   0.662   9.222  0.1334 -0.0353 -1.2592
   24SAPC  H11X 3225   1.743   0.727   9.207 -1.3717 -1.4215  1.3764
   24SAPC  H11Y 3226   1.793   0.566   9.259 -0.6087  1.5080  2.1514
   24SAPC  C312 3227   1.904   0.638   9.086 -0.4061 -0.0262  0.3474
   24SAPC  H12X 3228   2.002   0.597   9.120  0.1243  3.3989  3.2798
   24SAPC  H12Y 3229   1.916   0.744   9.054  1.4154 -0.9890 -2.3056
   24SAPC  C313 3230   1.825   0.553   8.979  0.0403  0.1248 -0.1518
   24SAPC  H13X 3231   1.716   0.570   8.995 -0.4516 -1.1164 -2.0113
   24SAPC  H13Y 3232   1.842   0.447   9.008  0.2348  0.1155 -0.2969
   24SAPC  C314 3233   1.882   0.593   8.844  0.9963  0.0874  0.5788
   24SAPC  H14X 3234   1.870   0.703   8.833 -2.5537 -0.3169 -0.0896
   24SAPC  H14Y 3235   1.811   0.543   8.774  1.5483 -0.4068  0.3701
   24SAPC  C315 3236   2.018   0.526   8.807 -0.6431 -0.1595  0.7477
   24SAPC  H15X 3237   2.024   0.422   8.845 -0.3945 -0.4366 -0.0447
   24SAPC  H15Y 3238   2.093   0.585   8.864 -1.1480  2.2645 -1.0338
   24SAPC  C316 3239   2.062   0.530   8.657  0.5262 -0.5268  0.0586
   24SAPC  H16X 3240   1.970   0.507   8.598 -1.1880  0.7541  2.1235
   24SAPC  H16Y 3241   2.145   0.459   8.640  0.5077 -0.8461  1.2372
   24SAPC  C317 3242   2.098   0.671   8.611  0.4816  0.7884 -0.5448
   24SAPC  H17X 3243   2.201   0.681   8.651  1.1113 -0.2299 -1.8830
   24SAPC  H17Y 3244   2.036   0.749   8.661 -0.1954 -0.0558 -0.0327
   24SAPC  C318 3245   2.098   0.694   8.458 -0.1962 -0.0329  0.0193
   24SAPC  H18X 3246   2.116   0.801   8.432 -0.6724  0.2486  0.8561
   24SAPC  H18Y 3247   1.992   0.690   8.427 -0.6444  1.7231  1.3107
   24SAPC  H18Z 3248   2.169   0.620   8.413 -1.2848 -0.8902 -0.3013
   25SAPC     N 3249   5.066   4.446   5.781  0.3365 -0.3131  0.2628
   25SAPC   C12 3250   5.083   4.461   5.928 -0.7155  0.6124  0.2372
   25SAPC  H12A 3251   5.099   4.362   5.967 -2.0425  0.9781  1.7855
   25SAPC  H12B 3252   4.988   4.491   5.970 -1.4159 -1.5493  0.2346
   25SAPC   C13 3253   4.928   4.396   5.751  0.3855 -0.0875  0.7573
   25SAPC  H13A 3254   4.916   4.373   5.646  2.4318  1.1798  0.2100
   25SAPC  H13B 3255   4.909   4.307   5.809 -0.6813  0.1379  0.7694
   25SAPC  H13C 3256   4.856   4.469   5.784  0.1568  0.2501 -0.4578
   25SAPC   C14 3257   5.094   4.565   5.701  0.0125  0.4870 -0.8809
   25SAPC  H14A 3258   5.095   4.535   5.597 -0.1212 -1.1342 -0.4243
   25SAPC  H14B 3259   5.014   4.635   5.720  1.3208  2.1724 -1.4189
   25SAPC  H14C 3260   5.194   4.598   5.724  0.2755  0.8041 -2.4054
   25SAPC   C15 3261   5.158   4.348   5.730  0.1542  0.0714  0.4143
   25SAPC  H15A 3262   5.145   4.316   5.628  0.3028  1.3390 -0.0044
   25SAPC  H15B 3263   5.257   4.390   5.739 -0.5732  1.9376 -0.0681
   25SAPC  H15C 3264   5.157   4.254   5.784  2.2557 -0.9290 -1.1933
   25SAPC   C11 3265   5.184   4.566   5.984  1.2294 -0.4885 -0.3270
   25SAPC  H11A 3266   5.179   4.570   6.095  1.2190  3.4952 -0.4052
   25SAPC  H11B 3267   5.152   4.664   5.945  1.6798  0.7645  2.3415
   25SAPC     P 3268   5.415   4.445   6.033 -0.4740  0.1256  0.0870
   25SAPC   O13 3269   5.371   4.303   6.003  0.2793  0.3025 -0.5081
   25SAPC   O14 3270   5.559   4.478   6.019 -0.1967 -0.0443 -0.5833
   25SAPC   O12 3271   5.322   4.543   5.948  0.1495 -0.1388 -0.6037
   25SAPC   O11 3272   5.378   4.473   6.185  0.0432 -0.7163 -0.0716
   25SAPC    C1 3273   5.385   4.609   6.231 -0.6377 -0.9588 -0.0747
   25SAPC    HA 3274   5.406   4.690   6.157 -1.4850  1.5839  2.3684
   25SAPC    HB 3275   5.293   4.638   6.286 -1.0849  0.0133 -1.3174
   25SAPC    C2 3276   5.497   4.604   6.333 -0.8958  0.0691  0.4281
   25SAPC    HS 3277   5.573   4.558   6.267 -1.1010  1.4876 -0.8391
   25SAPC   O21 3278   5.458   4.525   6.444 -0.3406  0.3690  0.0957
   25SAPC   C21 3279   5.560   4.455   6.488 -0.4278 -0.0701 -1.2550
   25SAPC   O22 3280   5.678   4.471   6.463  0.5096 -0.2895  0.2438
   25SAPC   C22 3281   5.517   4.376   6.614 -0.0290 -0.0486 -0.5330
   25SAPC   H2R 3282   5.488   4.449   6.691  3.9363 -1.4807  2.5208
   25SAPC   H2S 3283   5.430   4.317   6.580 -0.8687  0.5496  0.5625
   25SAPC    C3 3284   5.549   4.745   6.381  0.5787  0.5343 -0.1647
   25SAPC    HX 3285   5.463   4.815   6.385  1.4186  1.5157  1.0280
   25SAPC    HY 3286   5.622   4.782   6.305  1.3197  0.7522  0.6482
   25SAPC   O31 3287   5.597   4.745   6.514 -0.3043 -0.4877  0.0261
   25SAPC   C31 3288   5.727   4.782   6.534 -0.2559  0.2405 -0.2961
   25SAPC   O32 3289   5.809   4.798   6.452  0.1399 -0.4600  0.0963
   25SAPC   C32 3290   5.751   4.795   6.688 -0.2789 -0.3459  0.3029
   25SAPC   H2X 3291   5.673   4.725   6.726 -1.9058  1.5241  0.4800
   25SAPC   H2Y 3292   5.730   4.899   6.722 -0.8913 -0.6042  0.7253
   25SAPC   C23 3293   5.626   4.273   6.668 -0.0384 -0.2991  0.7307
   25SAPC   H3R 3294   5.659   4.229   6.571  0.2531  0.9197  0.2649
   25SAPC   H3S 3295   5.578   4.185   6.715  0.3927 -1.0824 -0.2750
   25SAPC   C24 3296   5.737   4.334   6.755 -0.4350  0.2863 -0.2199
   25SAPC   H4R 3297   5.776   4.432   6.721  1.3821 -0.3623 -0.0244
   25SAPC   H4S 3298   5.822   4.263   6.754 -1.0503 -0.4730 -0.0619
   25SAPC   C25 3299   5.666   4.336   6.889 -0.0528  0.7785 -0.2482
   25SAPC   H5R 3300   5.557   4.349   6.879  0.0285  0.1899 -2.1770
   25SAPC   C26 3301   5.731   4.338   7.011  0.1423  0.3662 -0.3363
   25SAPC   H6R 3302   5.667   4.343   7.101  0.2228 -0.3493 -0.2389
   25SAPC   C27 3303   5.881   4.327   7.035  0.6899 -0.1866  0.2093
   25SAPC   H7R 3304   5.922   4.421   7.079  0.1106  0.3572 -0.3955
   25SAPC   H7S 3305   5.938   4.308   6.942 -3.0682 -1.1641 -1.9881
   25SAPC   C28 3306   5.920   4.218   7.135 -0.3254 -0.1129  0.6112
   25SAPC   H8R 3307   5.959   4.126   7.089 -0.2460 -0.1693  0.7923
   25SAPC   C29 3308   5.913   4.227   7.268 -0.4134 -0.0952 -0.1850
   25SAPC   H9R 3309   5.954   4.145   7.328 -0.8095 -0.5914 -0.5804
   25SAPC  C210 3310   5.871   4.333   7.363  0.4965  0.7281  0.3803
   25SAPC  H10R 3311   5.807   4.410   7.314 -3.1327 -2.5689 -0.2772
   25SAPC  H10S 3312   5.965   4.379   7.399  1.1869 -0.9366  0.6936
   25SAPC  C211 3313   5.794   4.279   7.485 -0.8056  0.2795  0.6395
   25SAPC  H11R 3314   5.850   4.282   7.580 -1.4846 -2.8496  1.1956
   25SAPC  C212 3315   5.677   4.205   7.477 -0.0074  0.2349 -0.4581
   25SAPC  H12R 3316   5.625   4.169   7.567  0.2425  0.1869 -0.3331
   25SAPC  C213 3317   5.606   4.169   7.352  0.4224  0.5327  0.7294
   25SAPC  H13R 3318   5.666   4.112   7.278 -0.7141  0.8075 -0.4305
   25SAPC  H13S 3319   5.586   4.263   7.295 -0.2504  0.1158  0.2684
   25SAPC  C214 3320   5.484   4.088   7.387  0.5367  0.2844 -0.4620
   25SAPC  H14R 3321   5.505   3.984   7.415 -2.0037 -0.2246 -0.2920
   25SAPC  C215 3322   5.357   4.123   7.379 -0.2210 -0.3603 -0.8436
   25SAPC  H15R 3323   5.273   4.055   7.397  0.0938  0.1279  2.8259
   25SAPC  C216 3324   5.311   4.258   7.339 -0.2230  0.2357  0.1881
   25SAPC  H16R 3325   5.388   4.338   7.341  0.5958 -0.5585  2.0434
   25SAPC  H16S 3326   5.265   4.278   7.438  1.7257 -1.3184  1.4502
   25SAPC  C217 3327   5.213   4.278   7.217  0.0354 -0.1612 -0.3948
   25SAPC  H17R 3328   5.181   4.383   7.200 -3.0060 -1.2884 -2.0418
   25SAPC  H17S 3329   5.121   4.219   7.233  0.2819 -0.4756 -0.1199
   25SAPC  C218 3330   5.283   4.245   7.084 -0.3651  0.5858 -0.3758
   25SAPC  H18R 3331   5.322   4.142   7.099 -0.5000  0.7116  0.8879
   25SAPC  H18S 3332   5.377   4.299   7.062  0.3018  0.7467  2.6127
   25SAPC  C219 3333   5.188   4.234   6.967 -1.1233  0.4246 -0.1402
   25SAPC  H19R 3334   5.103   4.305   6.964 -3.2482 -1.9783  0.9237
   25SAPC  H19S 3335   5.142   4.132   6.969 -0.4594  0.1044 -0.7236
   25SAPC  C220 3336   5.254   4.249   6.827 -0.2949  0.6494  0.9786
   25SAPC  H20R 3337   5.170   4.232   6.756 -1.0128  0.7964  1.7710
   25SAPC  H20S 3338   5.324   4.163   6.821 -1.3238 -0.0774 -0.7972
   25SAPC  H20T 3339   5.309   4.343   6.809 -2.0471  1.5482  0.1719
   25SAPC   C33 3340   5.894   4.757   6.738  0.1408  0.2539 -0.1144
   25SAPC   H3X 3341   5.964   4.842   6.719  0.5933  0.7183  3.3540
   25SAPC   H3Y 3342   5.932   4.686   6.661 -0.1833  1.1026 -1.0707
   25SAPC   C34 3343   5.899   4.702   6.879 -0.0465  0.2307 -0.0738
   25SAPC   H4X 3344   6.001   4.662   6.894  0.1451 -0.0157 -1.8982
   25SAPC   H4Y 3345   5.835   4.611   6.887  0.7046 -0.3922 -1.0111
   25SAPC   C35 3346   5.869   4.804   6.988  0.0534  0.5764 -0.7633
   25SAPC   H5X 3347   5.762   4.834   6.982 -0.5052 -1.4154 -1.3640
   25SAPC   H5Y 3348   5.934   4.892   6.972  0.3671  0.3003 -1.0108
   25SAPC   C36 3349   5.898   4.733   7.122  0.2379  0.2890  0.2340
   25SAPC   H6X 3350   6.005   4.707   7.134 -0.1987 -1.6056  0.1915
   25SAPC   H6Y 3351   5.851   4.633   7.123  2.7876 -0.9374  0.7914
   25SAPC   C37 3352   5.858   4.809   7.250  0.2636  0.0457  0.1568
   25SAPC   H7X 3353   5.749   4.833   7.248  0.3384  0.3310 -0.9616
   25SAPC   H7Y 3354   5.913   4.906   7.245  1.1758 -0.4134  1.0583
   25SAPC   C38 3355   5.870   4.722   7.374  0.1117 -0.3950  0.6718
   25SAPC   H8X 3356   5.971   4.678   7.386 -0.8526 -3.5501 -2.0911
   25SAPC   H8Y 3357   5.795   4.640   7.370  0.7517 -0.8741 -3.0003
   25SAPC   C39 3358   5.859   4.801   7.508 -0.6596  0.6022  0.4429
   25SAPC   H9X 3359   5.759   4.848   7.498 -2.3362 -3.1363 -1.2124
   25SAPC   H9Y 3360   5.929   4.887   7.517 -0.3223  0.2108  1.6286
   25SAPC  C310 3361   5.869   4.715   7.632  0.0472 -1.2021 -0.8267
   25SAPC  H10X 3362   5.968   4.665   7.631  0.1095 -1.2034  1.7076
   25SAPC  H10Y 3363   5.783   4.646   7.618 -0.4654 -1.3167  2.5140
   25SAPC  C311 3364   5.841   4.797   7.759  0.1442 -0.3725  0.9806
   25SAPC  H11X 3365   5.737   4.834   7.750 -0.7530 -3.2440 -1.0219
   25SAPC  H11Y 3366   5.912   4.882   7.755 -2.2719  1.6659  0.3799
   25SAPC  C312 3367   5.864   4.713   7.883 -0.1260  0.5858  0.7797
   25SAPC  H12X 3368   5.936   4.630   7.868 -0.0684  1.0567 -1.7314
   25SAPC  H12Y 3369   5.765   4.670   7.911  0.3765 -0.0067  1.6759
   25SAPC  C313 3370   5.920   4.794   8.009  0.3850  0.6666  0.4788
   25SAPC  H13X 3371   5.854   4.884   8.019  0.3345  0.9635 -2.0963
   25SAPC  H13Y 3372   6.022   4.833   7.992  1.3294 -1.5741  0.8841
   25SAPC  C314 3373   5.922   4.715   8.138 -0.3351  0.7838 -0.4231
   25SAPC  H14X 3374   5.983   4.767   8.215  0.2922 -0.9330  0.2666
   25SAPC  H14Y 3375   5.965   4.615   8.116  0.3505  0.5825  1.7506
   25SAPC  C315 3376   5.779   4.696   8.200  0.0966 -0.1118 -0.3110
   25SAPC  H15X 3377   5.709   4.668   8.118 -1.4026  0.9875  0.5646
   25SAPC  H15Y 3378   5.737   4.792   8.236  2.0087  1.5083 -2.2398
   25SAPC  C316 3379   5.777   4.588   8.314 -0.2622 -0.2017  0.3810
   25SAPC  H16X 3380   5.850   4.626   8.389  0.0734  1.2208 -0.6458
   25SAPC  H16Y 3381   5.813   4.494   8.266 -0.1970  0.3950 -0.7476
   25SAPC  C317 3382   5.633   4.558   8.368  0.4104  0.1532 -0.1678
   25SAPC  H17X 3383   5.587   4.648   8.415 -3.5884 -1.8308 -0.1128
   25SAPC  H17Y 3384   5.631   4.483   8.449 -0.0753 -1.2347 -1.4426
   25SAPC  C318 3385   5.528   4.516   8.265  0.1109  0.9284 -0.2664
   25SAPC  H18X 3386   5.430   4.487   8.308  0.7256  1.6984  1.7328
   25SAPC  H18Y 3387   5.574   4.427   8.217  0.2470  1.1400 -0.5261
   25SAPC  H18Z 3388   5.514   4.597   8.191 -0.9439  0.5582 -0.4884
   26SAPC     N 3389   5.567   0.259   6.027 -0.1765 -0.0155  0.2146
   26SAPC   C12 3390   5.611   0.125   6.065  0.6300 -0.1054  0.2071
   26SAPC  H12A 3391   5.674   0.136   6.152  0.7418 -0.3116  0.1537
   26SAPC  H12B 3392   5.676   0.083   5.990 -0.9073 -1.0062 -0.6395
   26SAPC   C13 3393   5.469   0.249   5.913 -1.4531  0.4835  0.0149
   26SAPC  H13A 3394   5.426   0.346   5.890  0.3969  0.6531 -2.9194
   26SAPC  H13B 3395   5.513   0.207   5.824 -2.1599  0.2257 -0.2110
   26SAPC  H13C 3396   5.388   0.186   5.947  0.4598 -1.4957  1.0262
   26SAPC   C14 3397   5.494   0.319   6.145 -0.4640 -0.3281  0.8210
   26SAPC  H14A 3398   5.565   0.355   6.218 -0.4645  0.2455  0.5478
   26SAPC  H14B 3399   5.430   0.402   6.119  0.4106  0.2667  0.5207
   26SAPC  H14C 3400   5.430   0.252   6.201 -1.0559  1.3335  2.1709
   26SAPC   C15 3401   5.687   0.342   5.987 -0.7841 -0.2147 -0.2620
   26SAPC  H15A 3402   5.655   0.443   5.968  0.9714 -0.1513 -3.2625
   26SAPC  H15B 3403   5.761   0.343   6.066  1.7112 -2.2870 -2.4760
   26SAPC  H15C 3404   5.748   0.304   5.907 -0.1422  1.1277 -0.4304
   26SAPC   C11 3405   5.511   0.012   6.088 -0.3407  0.8149 -0.3109
   26SAPC  H11A 3406   5.569  -0.083   6.081 -0.3050  0.9989 -2.8049
   26SAPC  H11B 3407   5.435   0.011   6.008 -1.8298  2.2871  1.0462
   26SAPC     P 3408   5.511  -0.021   6.342 -0.0569 -0.1932 -0.0420
   26SAPC   O13 3409   5.507  -0.169   6.343  0.5759 -0.7062 -0.2907
   26SAPC   O14 3410   5.637   0.044   6.340 -0.6445 -0.0880 -0.0244
   26SAPC   O12 3411   5.443   0.026   6.210 -0.4044 -0.8692  0.2475
   26SAPC   O11 3412   5.420   0.044   6.454 -0.7168  0.0139  0.1983
   26SAPC    C1 3413   5.294  -0.015   6.489  0.4096  1.1429  0.1994
   26SAPC    HA 3414   5.218   0.065   6.493 -2.2588 -1.3789  1.8034
   26SAPC    HB 3415   5.256  -0.098   6.426  1.0865  1.1595 -0.2400
   26SAPC    C2 3416   5.296  -0.062   6.637  0.3144  0.0441  0.5356
   26SAPC    HS 3417   5.365  -0.149   6.643  0.5140  0.3654  3.9815
   26SAPC   O21 3418   5.159  -0.102   6.675 -0.1647  0.2881 -0.3898
   26SAPC   C21 3419   5.162  -0.215   6.749 -0.1171 -0.3425 -0.5338
   26SAPC   O22 3420   5.260  -0.279   6.779  0.0022  0.2077 -0.0054
   26SAPC   C22 3421   5.019  -0.250   6.787  0.2851 -0.4471  0.1965
   26SAPC   H2R 3422   4.948  -0.199   6.719 -0.1492 -1.8112 -0.4082
   26SAPC   H2S 3423   5.004  -0.359   6.771  1.1833 -0.1415 -3.1085
   26SAPC    C3 3424   5.355   0.046   6.737 -0.4173 -0.0731  0.0713
   26SAPC    HX 3425   5.298   0.141   6.736 -1.1005 -0.4328  2.0386
   26SAPC    HY 3426   5.452   0.077   6.692 -1.3462 -0.8835 -2.5467
   26SAPC   O31 3427   5.371  -0.002   6.876 -0.3200 -0.3062 -0.3282
   26SAPC   C31 3428   5.483  -0.069   6.903  0.0207  0.1709  0.3485
   26SAPC   O32 3429   5.580  -0.081   6.832 -0.0225  0.1212 -0.4058
   26SAPC   C32 3430   5.481  -0.107   7.045  0.4912  0.6174  0.4002
   26SAPC   H2X 3431   5.414  -0.195   7.053  0.8137  0.3950  0.6612
   26SAPC   H2Y 3432   5.445  -0.025   7.110  1.7227  1.6935 -0.2307
   26SAPC   C23 3433   4.969  -0.209   6.931  0.3517 -0.3809 -0.0693
   26SAPC   H3R 3434   4.859  -0.208   6.913  0.5306  0.6818 -1.1913
   26SAPC   H3S 3435   4.995  -0.110   6.974 -3.3480 -0.5217  2.8146
   26SAPC   C24 3436   4.991  -0.324   7.038 -0.8188 -0.3723  0.1576
   26SAPC   H4R 3437   4.934  -0.412   7.002 -0.5353 -1.0865  1.4126
   26SAPC   H4S 3438   4.935  -0.289   7.127 -0.2956  0.3952  0.1826
   26SAPC   C25 3439   5.130  -0.362   7.074  0.3577 -0.0660  0.2613
   26SAPC   H5R 3440   5.181  -0.428   7.001  0.7292  0.0610  0.4057
   26SAPC   C26 3441   5.195  -0.323   7.185 -0.5610 -0.7353 -0.2517
   26SAPC   H6R 3442   5.300  -0.353   7.197 -0.9376 -1.9707  0.0600
   26SAPC   C27 3443   5.148  -0.219   7.280  0.1853 -0.3294  0.9931
   26SAPC   H7R 3444   5.082  -0.139   7.239  0.8194  0.6265  1.7979
   26SAPC   H7S 3445   5.237  -0.158   7.308 -0.5132  0.1055  2.3029
   26SAPC   C28 3446   5.069  -0.275   7.400 -1.0010 -0.2185  0.1496
   26SAPC   H8R 3447   4.960  -0.282   7.393 -1.1242 -0.3031  1.9019
   26SAPC   C29 3448   5.129  -0.321   7.511  0.4185  0.2548 -0.4168
   26SAPC   H9R 3449   5.062  -0.355   7.591 -0.5716  0.6021 -1.0718
   26SAPC  C210 3450   5.277  -0.329   7.550  0.0869  0.2681  0.7212
   26SAPC  H10R 3451   5.341  -0.309   7.461 -0.8728  0.2999  0.0187
   26SAPC  H10S 3452   5.306  -0.431   7.581 -2.1320 -1.6638 -3.2003
   26SAPC  C211 3453   5.318  -0.219   7.643  0.0070  0.3956  0.2157
   26SAPC  H11R 3454   5.353  -0.123   7.601  0.5900  0.0785 -0.0269
   26SAPC  C212 3455   5.320  -0.225   7.776  0.8141 -0.4560 -0.5105
   26SAPC  H12R 3456   5.346  -0.138   7.838  0.4435 -1.3008  0.8431
   26SAPC  C213 3457   5.280  -0.348   7.854 -0.0092 -0.2561 -0.3574
   26SAPC  H13R 3458   5.372  -0.369   7.912 -0.1265 -0.8071 -0.3708
   26SAPC  H13S 3459   5.273  -0.439   7.791 -0.5201 -0.4231 -0.0644
   26SAPC  C214 3460   5.160  -0.330   7.940 -0.6518  0.1701 -0.5399
   26SAPC  H14R 3461   5.065  -0.323   7.885 -0.2680 -0.7721 -1.3419
   26SAPC  C215 3462   5.154  -0.336   8.073 -0.0563  0.3229  0.0533
   26SAPC  H15R 3463   5.053  -0.319   8.112  0.0746 -1.3673  1.1961
   26SAPC  C216 3464   5.270  -0.359   8.158  0.3953  0.2132  0.7009
   26SAPC  H16R 3465   5.356  -0.393   8.095 -1.8525 -0.7565 -1.9609
   26SAPC  H16S 3466   5.245  -0.436   8.233 -0.0697 -1.5017 -1.1627
   26SAPC  C217 3467   5.317  -0.237   8.238  0.2226 -0.2814  0.5310
   26SAPC  H17R 3468   5.241  -0.173   8.288  0.6266  3.0608 -2.8292
   26SAPC  H17S 3469   5.365  -0.156   8.178 -2.6988  1.9778  1.1516
   26SAPC  C218 3470   5.418  -0.282   8.336  0.1210 -0.3340  0.1944
   26SAPC  H18R 3471   5.517  -0.274   8.286  0.2152  2.1060  0.7299
   26SAPC  H18S 3472   5.383  -0.379   8.378  1.3880 -2.0134 -2.5272
   26SAPC  C219 3473   5.435  -0.175   8.445  0.2651  0.2878 -0.1349
   26SAPC  H19R 3474   5.334  -0.158   8.487 -0.3463 -2.6017 -0.3615
   26SAPC  H19S 3475   5.460  -0.074   8.405 -2.6590  1.1715  0.1965
   26SAPC  C220 3476   5.537  -0.207   8.543  0.2952 -0.1341 -0.1050
   26SAPC  H20R 3477   5.518  -0.308   8.586  1.1054 -0.5659 -0.7501
   26SAPC  H20S 3478   5.539  -0.141   8.633  0.0892  2.0005 -1.6135
   26SAPC  H20T 3479   5.636  -0.222   8.495  0.8860  0.9899  0.7363
   26SAPC   C33 3480   5.622  -0.150   7.091 -0.0517  1.2257 -0.2001
   26SAPC   H3X 3481   5.703  -0.081   7.061 -0.2852  1.6799  0.2175
   26SAPC   H3Y 3482   5.627  -0.253   7.049 -1.2868  1.7370 -1.6630
   26SAPC   C34 3483   5.643  -0.146   7.247  0.3062 -0.0814  0.1907
   26SAPC   H4X 3484   5.543  -0.159   7.294 -0.1774 -1.1341 -1.1144
   26SAPC   H4Y 3485   5.675  -0.042   7.267  1.6240 -0.7146  1.4383
   26SAPC   C35 3486   5.733  -0.253   7.301 -0.0458 -0.1721  0.2925
   26SAPC   H5X 3487   5.837  -0.219   7.280 -0.3423  0.0487 -0.8710
   26SAPC   H5Y 3488   5.714  -0.357   7.266  0.3844 -0.2749  0.3641
   26SAPC   C36 3489   5.714  -0.272   7.456  0.1682  0.5812  0.3098
   26SAPC   H6X 3490   5.788  -0.351   7.481 -0.9305 -0.6932 -0.3801
   26SAPC   H6Y 3491   5.611  -0.310   7.471 -0.5365  2.3833  0.2252
   26SAPC   C37 3492   5.753  -0.155   7.546  0.1517  0.0623  0.1445
   26SAPC   H7X 3493   5.720  -0.053   7.515  2.3221  0.3401 -1.3170
   26SAPC   H7Y 3494   5.861  -0.153   7.521  0.0403  2.6621 -0.3033
   26SAPC   C38 3495   5.731  -0.183   7.695  0.2000 -0.0741  0.3095
   26SAPC   H8X 3496   5.782  -0.278   7.720  0.9864  0.3462  0.3395
   26SAPC   H8Y 3497   5.623  -0.188   7.719  0.0313 -1.3930 -0.6858
   26SAPC   C39 3498   5.789  -0.063   7.775  0.2021  0.0225 -0.0203
   26SAPC   H9X 3499   5.760   0.033   7.727 -3.0127 -1.2689 -0.7394
   26SAPC   H9Y 3500   5.900  -0.071   7.777  0.1697 -0.6870 -0.9170
   26SAPC  C310 3501   5.741  -0.069   7.919 -0.2185  0.1144 -0.4933
   26SAPC  H10X 3502   5.635  -0.104   7.925 -0.4225  1.0393  1.7280
   26SAPC  H10Y 3503   5.755   0.036   7.952  0.5587  0.1655 -0.9667
   26SAPC  C311 3504   5.821  -0.158   8.004  0.4024  0.5050 -0.9712
   26SAPC  H11X 3505   5.930  -0.139   7.998  1.0718 -2.9283 -0.1535
   26SAPC  H11Y 3506   5.820  -0.265   7.973  1.2034  0.9103 -2.4547
   26SAPC  C312 3507   5.782  -0.148   8.160 -0.3603 -1.0874 -0.7225
   26SAPC  H12X 3508   5.838  -0.233   8.205  1.9789  1.5452  1.4478
   26SAPC  H12Y 3509   5.672  -0.148   8.175 -0.5340  1.6442 -1.7862
   26SAPC  C313 3510   5.848  -0.022   8.226 -0.2394  0.0749  1.1188
   26SAPC  H13X 3511   5.808   0.075   8.190  0.4753  0.7704  2.1957
   26SAPC  H13Y 3512   5.953  -0.020   8.192 -1.1360 -1.9150 -1.9639
   26SAPC  C314 3513   5.855  -0.006   8.380  0.0382 -0.1377  0.2413
   26SAPC  H14X 3514   5.941  -0.068   8.411 -1.8839 -1.1432  3.9089
   26SAPC  H14Y 3515   5.764  -0.049   8.428 -0.6409 -0.5757 -1.3911
   26SAPC  C315 3516   5.859   0.147   8.422  0.0926 -0.1331  0.5434
   26SAPC  H15X 3517   5.767   0.193   8.380  0.0190 -0.9462 -0.1886
   26SAPC  H15Y 3518   5.950   0.177   8.365 -0.8714  0.9376 -0.4476
   26SAPC  C316 3519   5.878   0.191   8.564 -1.1436 -0.3624  0.0987
   26SAPC  H16X 3520   5.852   0.297   8.581 -0.3662  0.0246 -1.0296
   26SAPC  H16Y 3521   5.987   0.181   8.586 -1.5187 -0.2239  2.0960
   26SAPC  C317 3522   5.793   0.113   8.663  0.7588  0.0966 -0.0606
   26SAPC  H17X 3523   5.835   0.122   8.766 -0.1511  1.1956  0.2264
   26SAPC  H17Y 3524   5.799   0.005   8.637  1.8102  0.1788 -0.1661
   26SAPC  C318 3525   5.644   0.152   8.670 -0.7266  0.4421 -0.5050
   26SAPC  H18X 3526   5.603   0.084   8.748 -0.1908  0.3099 -0.3343
   26SAPC  H18Y 3527   5.600   0.132   8.570  0.8753  0.0044 -1.1360
   26SAPC  H18Z 3528   5.637   0.257   8.704  1.2996 -0.9948  4.7883
   27SAPC     N 3529   3.585   0.190   6.323 -0.1545  0.0334  0.3497
   27SAPC   C12 3530   3.488   0.149   6.425 -0.1594 -0.3609 -0.0401
   27SAPC  H12A 3531   3.508   0.196   6.520  1.3037  0.4787 -0.7506
   27SAPC  H12B 3532   3.483   0.044   6.452 -3.7620 -0.5510 -1.1223
   27SAPC   C13 3533   3.723   0.119   6.353  0.1899 -0.3458  0.4852
   27SAPC  H13A 3534   3.787   0.151   6.273 -0.0753  0.7900  0.7239
   27SAPC  H13B 3535   3.768   0.151   6.446  1.1655  1.7544 -0.6867
   27SAPC  H13C 3536   3.717   0.012   6.338  0.3461 -0.3647  0.5535
   27SAPC   C14 3537   3.548   0.148   6.187 -0.8301 -0.5272  0.3708
   27SAPC  H14A 3538   3.544   0.042   6.169 -0.7142 -0.3202 -0.9221
   27SAPC  H14B 3539   3.450   0.173   6.147 -0.4454  0.1653 -0.1483
   27SAPC  H14C 3540   3.625   0.184   6.120 -2.2102 -0.4836 -1.2545
   27SAPC   C15 3541   3.613   0.338   6.338  0.8663  0.4907  0.5365
   27SAPC  H15A 3542   3.684   0.368   6.262 -2.3629 -0.3593 -2.9861
   27SAPC  H15B 3543   3.519   0.390   6.331  0.5577  0.0129  1.0598
   27SAPC  H15C 3544   3.661   0.362   6.431 -0.6758 -2.2691  2.1366
   27SAPC   C11 3545   3.337   0.179   6.392 -1.2237 -0.0777  0.0200
   27SAPC  H11A 3546   3.307   0.095   6.325  0.8546 -3.6156  3.2781
   27SAPC  H11B 3547   3.317   0.280   6.352 -1.7283 -0.3041 -0.3018
   27SAPC     P 3548   3.281   0.222   6.646  0.3834  0.1361 -0.2668
   27SAPC   O13 3549   3.366   0.340   6.634  0.1206  0.2212 -0.0102
   27SAPC   O14 3550   3.144   0.237   6.705 -0.1860  0.2623 -0.1195
   27SAPC   O12 3551   3.260   0.153   6.507 -0.6615  0.2625  0.0950
   27SAPC   O11 3552   3.364   0.111   6.735  0.2839  0.7056  0.7171
   27SAPC    C1 3553   3.309  -0.025   6.720  0.1219  0.8966  0.1108
   27SAPC    HA 3554   3.198  -0.029   6.707  0.0899  0.4518  0.4853
   27SAPC    HB 3555   3.357  -0.074   6.633 -0.4137  2.6963 -1.2212
   27SAPC    C2 3556   3.331  -0.121   6.845  0.1800  0.2701  0.3734
   27SAPC    HS 3557   3.266  -0.206   6.817  1.6527 -0.8190  0.1872
   27SAPC   O21 3558   3.298  -0.068   6.975  0.1903 -0.0556  0.1868
   27SAPC   C21 3559   3.170  -0.049   7.002 -0.9203 -0.2009  0.1504
   27SAPC   O22 3560   3.077  -0.094   6.937 -0.1316  0.0423  0.2775
   27SAPC   C22 3561   3.160  -0.008   7.147  0.2493 -0.1514 -0.1444
   27SAPC   H2R 3562   3.227  -0.067   7.213  2.7807 -1.0319 -3.3882
   27SAPC   H2S 3563   3.179   0.101   7.157 -0.5799  0.0077 -0.3152
   27SAPC    C3 3564   3.474  -0.160   6.838 -0.4908  0.3550  0.4238
   27SAPC    HX 3565   3.541  -0.071   6.834  4.1497 -2.9053  0.9137
   27SAPC    HY 3566   3.502  -0.214   6.745 -0.4193  1.6273 -0.3052
   27SAPC   O31 3567   3.520  -0.245   6.944  0.3244 -0.4550  0.0469
   27SAPC   C31 3568   3.652  -0.242   6.976 -0.5343  0.4813 -0.3545
   27SAPC   O32 3569   3.741  -0.177   6.927 -0.5499  0.3156  0.2337
   27SAPC   C32 3570   3.682  -0.339   7.091  0.7083 -0.1280  0.7043
   27SAPC   H2X 3571   3.716  -0.438   7.055  5.0603  1.9086 -1.1065
   27SAPC   H2Y 3572   3.583  -0.364   7.135  0.3192 -1.7157 -0.9713
   27SAPC   C23 3573   3.012  -0.020   7.202 -0.6130  0.5015 -0.4886
   27SAPC   H3R 3574   2.992  -0.129   7.212  0.4412  0.3516  0.0307
   27SAPC   H3S 3575   2.941   0.024   7.129 -0.8020  0.1202 -0.5378
   27SAPC   C24 3576   2.968   0.065   7.323  0.3279 -0.4169 -0.0517
   27SAPC   H4R 3577   2.864   0.029   7.337  0.1020  1.0358  2.1716
   27SAPC   H4S 3578   2.959   0.174   7.305 -1.7317 -0.6034 -0.2473
   27SAPC   C25 3579   3.055   0.025   7.439 -0.4056 -0.0348 -0.0181
   27SAPC   H5R 3580   3.164   0.033   7.427 -0.5250  0.5145 -0.8504
   27SAPC   C26 3581   3.011  -0.023   7.554  0.2811  0.7558 -0.3112
   27SAPC   H6R 3582   3.080  -0.037   7.639 -0.1728  1.7597  0.2336
   27SAPC   C27 3583   2.866  -0.052   7.580 -0.0424 -0.1665  0.0512
   27SAPC   H7R 3584   2.832  -0.116   7.496  1.1357  0.8489 -1.2263
   27SAPC   H7S 3585   2.805   0.041   7.579 -1.5693 -1.1323 -2.0716
   27SAPC   C28 3586   2.852  -0.130   7.711 -0.1585 -0.1427  0.5582
   27SAPC   H8R 3587   2.914  -0.221   7.715 -1.3298 -1.0096 -0.6479
   27SAPC   C29 3588   2.779  -0.098   7.823  0.5657  0.0485  0.6522
   27SAPC   H9R 3589   2.763  -0.179   7.896 -1.7615  0.3332  0.4911
   27SAPC  C210 3590   2.686   0.019   7.849 -0.5937  0.6553  0.4793
   27SAPC  H10R 3591   2.686   0.102   7.775 -1.0287 -0.2852 -0.5805
   27SAPC  H10S 3592   2.706   0.074   7.944 -1.0016  1.9097 -0.1470
   27SAPC  C211 3593   2.542  -0.025   7.848  0.1849 -0.5296  0.5489
   27SAPC  H11R 3594   2.515  -0.035   7.742  1.7473  1.3368 -0.0525
   27SAPC  C212 3595   2.462  -0.059   7.954  0.3687 -1.2729  0.1670
   27SAPC  H12R 3596   2.359  -0.091   7.935 -0.0070  0.4541 -0.7920
   27SAPC  C213 3597   2.503  -0.064   8.099 -0.0264 -0.4348  0.3110
   27SAPC  H13R 3598   2.572   0.019   8.127  1.1101 -1.7961  1.6114
   27SAPC  H13S 3599   2.544  -0.163   8.127 -1.3130 -2.1523 -3.4867
   27SAPC  C214 3600   2.390  -0.029   8.191  0.1663 -0.1314  0.0392
   27SAPC  H14R 3601   2.293   0.004   8.152 -0.1548 -0.1533  0.8128
   27SAPC  C215 3602   2.395  -0.040   8.323  0.8886 -0.4545 -0.7518
   27SAPC  H15R 3603   2.305  -0.013   8.381  1.2699 -1.3659  0.2777
   27SAPC  C216 3604   2.518  -0.090   8.393  0.9798 -0.4089 -0.7818
   27SAPC  H16R 3605   2.615  -0.064   8.346  1.4551  1.0071  0.9348
   27SAPC  H16S 3606   2.509  -0.201   8.400 -1.6340 -0.1509  0.3427
   27SAPC  C217 3607   2.531  -0.034   8.535 -0.3901 -0.4346 -0.4229
   27SAPC  H17R 3608   2.433  -0.051   8.584 -0.5193 -2.8841 -1.4565
   27SAPC  H17S 3609   2.554   0.075   8.538  1.2895 -0.8000  0.6087
   27SAPC  C218 3610   2.649  -0.094   8.610 -0.0487 -0.1958  0.2861
   27SAPC  H18R 3611   2.746  -0.055   8.573 -1.1597  2.2802 -0.1267
   27SAPC  H18S 3612   2.658  -0.203   8.593  1.1843 -0.0528 -0.0021
   27SAPC  C219 3613   2.638  -0.077   8.762 -0.4068 -1.2729 -0.7594
   27SAPC  H19R 3614   2.673   0.024   8.794 -0.4563 -1.7669  0.8987
   27SAPC  H19S 3615   2.705  -0.144   8.820  1.2614 -0.1929 -1.4186
   27SAPC  C220 3616   2.502  -0.110   8.830 -0.2639  0.3309 -0.2310
   27SAPC  H20R 3617   2.421  -0.038   8.804 -4.1160 -3.3482  1.1011
   27SAPC  H20S 3618   2.509  -0.114   8.941  1.4129  1.6639 -0.2646
   27SAPC  H20T 3619   2.476  -0.213   8.799  0.8229 -0.2329  0.7056
   27SAPC   C33 3620   3.787  -0.282   7.188 -0.6254  0.1558 -0.3510
   27SAPC   H3X 3621   3.769  -0.177   7.218  0.0352 -0.0364  0.7358
   27SAPC   H3Y 3622   3.879  -0.281   7.126 -0.0240 -2.0780  0.4573
   27SAPC   C34 3623   3.778  -0.366   7.316  0.0873 -0.3301 -0.4473
   27SAPC   H4X 3624   3.818  -0.466   7.287 -0.4936 -1.1361  1.4575
   27SAPC   H4Y 3625   3.671  -0.388   7.337 -0.2385  1.7966  0.2284
   27SAPC   C35 3626   3.854  -0.321   7.443 -0.1631 -0.7690 -0.0446
   27SAPC   H5X 3627   3.830  -0.213   7.448  0.9480 -0.5853  1.5905
   27SAPC   H5Y 3628   3.962  -0.332   7.417 -0.1519 -3.4220  1.0181
   27SAPC   C36 3629   3.818  -0.391   7.569 -0.3935 -0.2792 -0.3457
   27SAPC   H6X 3630   3.845  -0.498   7.559 -1.1673 -0.7091  1.9361
   27SAPC   H6Y 3631   3.707  -0.392   7.580 -0.5335  0.8269 -1.4520
   27SAPC   C37 3632   3.872  -0.308   7.690  0.6044 -0.3508 -0.3655
   27SAPC   H7X 3633   3.818  -0.212   7.680 -0.7592 -1.1218 -0.4749
   27SAPC   H7Y 3634   3.981  -0.290   7.679  0.8789 -0.8781  1.3403
   27SAPC   C38 3635   3.830  -0.369   7.828  0.2287  0.8216 -0.1462
   27SAPC   H8X 3636   3.859  -0.477   7.833  1.0937  1.0674  0.2807
   27SAPC   H8Y 3637   3.719  -0.371   7.825  0.2255 -0.8073  0.3926
   27SAPC   C39 3638   3.899  -0.287   7.938 -0.0172  0.1630 -0.1058
   27SAPC   H9X 3639   3.873  -0.180   7.926  0.1106  0.2041 -0.0180
   27SAPC   H9Y 3640   4.009  -0.291   7.922 -0.1361  1.8977 -1.5847
   27SAPC  C310 3641   3.857  -0.317   8.081 -0.0872  0.7674 -0.5191
   27SAPC  H10X 3642   3.853  -0.426   8.103 -0.0553  0.9157  0.2416
   27SAPC  H10Y 3643   3.756  -0.274   8.097  0.0983  1.2196 -0.5629
   27SAPC  C311 3644   3.956  -0.259   8.187  0.4405  0.3916 -0.1853
   27SAPC  H11X 3645   3.942  -0.149   8.182  0.2813  0.3633 -0.3181
   27SAPC  H11Y 3646   4.062  -0.267   8.154  0.6275  0.1091  0.4599
   27SAPC  C312 3647   3.951  -0.315   8.331 -0.3195  0.1242 -0.2930
   27SAPC  H12X 3648   3.974  -0.424   8.328 -1.4670 -0.1124 -0.7494
   27SAPC  H12Y 3649   3.846  -0.300   8.366  0.7645  3.1859  1.7884
   27SAPC  C313 3650   4.037  -0.227   8.426  0.0309 -0.7625 -0.2224
   27SAPC  H13X 3651   4.001  -0.124   8.403 -1.6788 -0.9843  1.3338
   27SAPC  H13Y 3652   4.143  -0.232   8.394  0.2741 -0.8015  0.5691
   27SAPC  C314 3653   4.022  -0.265   8.572 -0.3561  0.0441  0.8879
   27SAPC  H14X 3654   4.059  -0.369   8.584  2.0041  0.6369 -0.9869
   27SAPC  H14Y 3655   3.915  -0.239   8.589  0.6510  4.0781  1.4356
   27SAPC  C315 3656   4.091  -0.170   8.665  1.2810  0.5894 -0.2542
   27SAPC  H15X 3657   4.052  -0.066   8.662  0.1266  0.1574 -0.6989
   27SAPC  H15Y 3658   4.201  -0.164   8.661  1.4113  1.1820  2.9913
   27SAPC  C316 3659   4.060  -0.224   8.809  0.0945  0.1858 -0.9165
   27SAPC  H16X 3660   4.098  -0.328   8.797 -0.1697 -0.2303  1.6782
   27SAPC  H16Y 3661   3.950  -0.219   8.822  0.2013  2.6970 -0.7555
   27SAPC  C317 3662   4.137  -0.153   8.919  0.0941  0.2391  0.0664
   27SAPC  H17X 3663   4.104  -0.047   8.913  0.6750  0.2956 -2.3469
   27SAPC  H17Y 3664   4.245  -0.145   8.895  0.0336 -0.8167 -0.5802
   27SAPC  C318 3665   4.113  -0.213   9.055  0.1534  0.3668 -0.3461
   27SAPC  H18X 3666   4.159  -0.148   9.132  0.6773  1.3106 -1.4411
   27SAPC  H18Y 3667   4.163  -0.312   9.052  1.5776  1.0848 -0.7626
   27SAPC  H18Z 3668   4.003  -0.220   9.071  0.0414  2.3220 -0.0926
   28SAPC     N 3669   2.685   4.048   6.381 -0.9042  0.1132  0.1202
   28SAPC   C12 3670   2.623   3.937   6.299 -0.5274  0.5228 -0.4854
   28SAPC  H12A 3671   2.581   3.859   6.360 -1.9422 -0.1086 -2.1950
   28SAPC  H12B 3672   2.689   3.873   6.242 -2.2056  0.3976 -2.3771
   28SAPC   C13 3673   2.757   3.981   6.490  1.1364  0.2097 -0.1777
   28SAPC  H13A 3674   2.817   3.911   6.433 -1.2646 -1.0276 -1.2620
   28SAPC  H13B 3675   2.809   4.054   6.550 -2.3428  1.3033  1.6061
   28SAPC  H13C 3676   2.683   3.934   6.553  0.2053 -0.9920 -2.1095
   28SAPC   C14 3677   2.786   4.113   6.292 -0.0499 -0.2919 -0.6568
   28SAPC  H14A 3678   2.747   4.133   6.193  2.5666  0.5736 -1.5519
   28SAPC  H14B 3679   2.807   4.209   6.337  0.3983 -1.9502  2.7850
   28SAPC  H14C 3680   2.875   4.052   6.288 -0.3764 -0.7872 -0.4248
   28SAPC   C15 3681   2.592   4.152   6.423  0.1427 -0.3100  1.0318
   28SAPC  H15A 3682   2.516   4.104   6.482 -0.4779  0.5198  0.9212
   28SAPC  H15B 3683   2.654   4.223   6.475  0.5268  0.9362 -1.0599
   28SAPC  H15C 3684   2.543   4.198   6.338  0.0068 -3.2059 -0.5075
   28SAPC   C11 3685   2.517   3.985   6.207  0.0168 -0.3432 -0.7309
   28SAPC  H11A 3686   2.508   3.902   6.134 -2.7656 -0.1366 -0.6787
   28SAPC  H11B 3687   2.538   4.072   6.143  0.6855 -0.3430 -0.5108
   28SAPC     P 3688   2.307   3.891   6.331 -0.1174  0.2967 -0.1652
   28SAPC   O13 3689   2.227   3.948   6.440  0.4175  0.3707 -0.0740
   28SAPC   O14 3690   2.238   3.833   6.213 -0.3515  0.6983 -0.2694
   28SAPC   O12 3691   2.390   4.008   6.275 -0.4480  0.0394 -0.2377
   28SAPC   O11 3692   2.414   3.785   6.380  0.0840  0.2124  0.0243
   28SAPC    C1 3693   2.384   3.649   6.391  0.7040  0.9419 -0.4068
   28SAPC    HA 3694   2.276   3.632   6.374  0.3727  0.1384  2.2092
   28SAPC    HB 3695   2.444   3.591   6.318  0.3017 -0.3177  0.2475
   28SAPC    C2 3696   2.423   3.604   6.538  0.7502 -0.7045 -0.1551
   28SAPC    HS 3697   2.383   3.501   6.549  1.2072 -0.8267  0.4264
   28SAPC   O21 3698   2.369   3.695   6.634  0.2269 -0.7930  0.7743
   28SAPC   C21 3699   2.243   3.671   6.644 -0.0951 -0.1341 -0.1835
   28SAPC   O22 3700   2.174   3.586   6.586 -0.0479  0.1931  0.0655
   28SAPC   C22 3701   2.180   3.772   6.734  0.4832 -0.3194  0.2349
   28SAPC   H2R 3702   2.263   3.828   6.782  0.0021 -0.3659  1.1261
   28SAPC   H2S 3703   2.116   3.831   6.664  0.0508 -0.9491  0.0950
   28SAPC    C3 3704   2.579   3.603   6.546  0.0298  0.1771 -0.3268
   28SAPC    HX 3705   2.604   3.711   6.536  2.8797 -0.4091  0.1833
   28SAPC    HY 3706   2.614   3.580   6.443  0.6013 -0.5868  0.0353
   28SAPC   O31 3707   2.646   3.534   6.658 -0.1097  0.8928 -0.3895
   28SAPC   C31 3708   2.777   3.568   6.669 -0.3002  0.3461  0.0201
   28SAPC   O32 3709   2.834   3.648   6.595 -0.0737  1.0389  0.1160
   28SAPC   C32 3710   2.840   3.489   6.788 -0.0555 -0.0898 -0.0050
   28SAPC   H2X 3711   2.919   3.424   6.744  0.9898  2.1411 -1.5395
   28SAPC   H2Y 3712   2.760   3.428   6.833 -0.6389 -0.8726 -2.0293
   28SAPC   C23 3713   2.072   3.706   6.828 -0.0346  0.1576 -0.2749
   28SAPC   H3R 3714   2.133   3.627   6.878 -0.2434  0.3229  0.2410
   28SAPC   H3S 3715   1.996   3.657   6.764  0.8308 -0.8142 -0.5776
   28SAPC   C24 3716   2.009   3.801   6.934 -0.4811 -0.5515 -0.2528
   28SAPC   H4R 3717   1.956   3.886   6.886 -1.4629 -1.4663 -0.8364
   28SAPC   H4S 3718   1.930   3.751   6.995  0.7529 -0.0818  1.7629
   28SAPC   C25 3719   2.116   3.853   7.030  0.2797 -0.7924 -0.2372
   28SAPC   H5R 3720   2.191   3.927   6.998  0.6878 -0.4128  1.5199
   28SAPC   C26 3721   2.123   3.814   7.158  0.3223 -0.6130  0.4257
   28SAPC   H6R 3722   2.189   3.858   7.234  0.4944 -0.7788  0.3722
   28SAPC   C27 3723   2.031   3.711   7.219  0.6960 -0.1752  0.0020
   28SAPC   H7R 3724   1.997   3.632   7.149  3.3772  0.0525 -1.6273
   28SAPC   H7S 3725   1.950   3.773   7.262  2.2396  1.7651  0.1920
   28SAPC   C28 3726   2.103   3.658   7.338 -0.0603  0.0906  1.1287
   28SAPC   H8R 3727   2.213   3.646   7.336 -0.1691 -0.8359  0.1641
   28SAPC   C29 3728   2.050   3.627   7.456 -0.5557  0.1381 -0.7745
   28SAPC   H9R 3729   2.105   3.574   7.536 -4.8847 -0.0027  2.3066
   28SAPC  C210 3730   1.902   3.635   7.496  0.2627  0.2181 -0.1015
   28SAPC  H10R 3731   1.900   3.566   7.583 -0.6497  2.7668  1.9675
   28SAPC  H10S 3732   1.820   3.621   7.422 -0.2080 -0.5891  0.5515
   28SAPC  C211 3733   1.867   3.770   7.547 -0.1167 -0.1569  0.1234
   28SAPC  H11R 3734   1.853   3.837   7.461  0.8653  0.2703  0.2923
   28SAPC  C212 3735   1.850   3.812   7.677 -0.1616  0.0179 -0.5838
   28SAPC  H12R 3736   1.801   3.909   7.688 -1.9388 -0.7204 -1.7228
   28SAPC  C213 3737   1.875   3.733   7.810  0.7347 -0.4200  0.9551
   28SAPC  H13R 3738   1.830   3.632   7.793  0.1504 -0.0563  0.2492
   28SAPC  H13S 3739   1.827   3.785   7.895 -0.6614  0.2969 -0.2426
   28SAPC  C214 3740   2.021   3.711   7.833  0.1811 -0.2679  0.2921
   28SAPC  H14R 3741   2.084   3.731   7.745  0.6216  1.2540  0.9371
   28SAPC  C215 3742   2.077   3.703   7.960 -0.3728 -0.1089 -0.0809
   28SAPC  H15R 3743   2.180   3.672   7.985 -0.8275 -0.3599  1.5332
   28SAPC  C216 3744   2.005   3.724   8.091  0.2417  0.1128  0.2584
   28SAPC  H16R 3745   1.936   3.638   8.106 -0.8282  0.8153 -0.4773
   28SAPC  H16S 3746   1.935   3.811   8.083 -2.5755 -2.0994  0.0546
   28SAPC  C217 3747   2.087   3.734   8.215 -0.0652  0.1420  0.5951
   28SAPC  H17R 3748   2.107   3.636   8.264  4.8635  0.3051 -0.7429
   28SAPC  H17S 3749   2.020   3.790   8.283 -0.8343 -1.5861  1.2825
   28SAPC  C218 3750   2.222   3.808   8.200 -0.6083 -0.2744  0.0895
   28SAPC  H18R 3751   2.205   3.917   8.187 -2.0633 -0.5445 -0.3429
   28SAPC  H18S 3752   2.268   3.778   8.103 -1.6887 -0.9297 -0.2359
   28SAPC  C219 3753   2.337   3.756   8.294  0.2775 -0.5484 -0.2293
   28SAPC  H19R 3754   2.349   3.647   8.278  0.5082 -0.8917  2.0285
   28SAPC  H19S 3755   2.294   3.777   8.395  1.3192 -1.1669  0.3575
   28SAPC  C220 3756   2.468   3.817   8.270 -0.1099  0.3098  0.4403
   28SAPC  H20R 3757   2.509   3.768   8.179  0.6149 -0.9522  1.4551
   28SAPC  H20S 3758   2.532   3.789   8.356 -0.3399  0.8500  0.7908
   28SAPC  H20T 3759   2.465   3.928   8.256 -0.4991  0.0967 -1.3217
   28SAPC   C33 3760   2.922   3.568   6.890  0.5970 -0.2175  0.1618
   28SAPC   H3X 3761   3.004   3.610   6.829  1.1878  0.4044  1.3640
   28SAPC   H3Y 3762   2.960   3.509   6.976 -0.3951  0.7358  1.2782
   28SAPC   C34 3763   2.844   3.688   6.954  0.8924 -0.2207 -0.1401
   28SAPC   H4X 3764   2.747   3.656   6.998  1.3144 -1.3532 -0.0205
   28SAPC   H4Y 3765   2.823   3.769   6.880  2.4893 -0.1235 -0.5070
   28SAPC   C35 3766   2.934   3.749   7.059  0.1799  0.6896  0.3807
   28SAPC   H5X 3767   3.029   3.790   7.019 -0.1718 -0.1784 -1.3804
   28SAPC   H5Y 3768   2.951   3.676   7.141 -1.0067 -0.9542 -0.8044
   28SAPC   C36 3769   2.876   3.875   7.130  0.6731 -0.2848 -0.3459
   28SAPC   H6X 3770   2.892   3.962   7.062  0.2291  0.8863  1.0146
   28SAPC   H6Y 3771   2.945   3.892   7.216 -1.7000 -0.1742  1.5612
   28SAPC   C37 3772   2.733   3.860   7.183  0.5792 -0.1635 -0.0619
   28SAPC   H7X 3773   2.695   3.756   7.171 -0.9956  0.5956 -1.9980
   28SAPC   H7Y 3774   2.672   3.925   7.117 -2.7571 -1.7190  1.3568
   28SAPC   C38 3775   2.728   3.889   7.333  0.6208  0.3651 -0.0390
   28SAPC   H8X 3776   2.722   3.999   7.350  0.8724  0.2342  0.9175
   28SAPC   H8Y 3777   2.823   3.842   7.366  1.5223  1.2945 -1.2391
   28SAPC   C39 3778   2.606   3.824   7.397  0.2341  0.1648  0.5079
   28SAPC   H9X 3779   2.616   3.714   7.390 -2.0196 -0.0993  0.9285
   28SAPC   H9Y 3780   2.506   3.843   7.351 -1.0760  0.4002  3.3461
   28SAPC  C310 3781   2.590   3.872   7.537 -0.0609  0.4837  0.6888
   28SAPC  H10X 3782   2.491   3.838   7.576 -2.1421  3.3269 -1.8816
   28SAPC  H10Y 3783   2.589   3.983   7.531  0.0857  0.4352 -0.2315
   28SAPC  C311 3784   2.698   3.841   7.641  0.4993  0.5294 -1.0153
   28SAPC  H11X 3785   2.793   3.886   7.607  1.0853  0.4067  0.4447
   28SAPC  H11Y 3786   2.706   3.732   7.658  1.3870  0.4359 -2.0152
   28SAPC  C312 3787   2.676   3.901   7.783 -0.2146 -0.0553 -0.0867
   28SAPC  H12X 3788   2.592   3.842   7.825  0.6115 -0.7120  0.6723
   28SAPC  H12Y 3789   2.633   4.003   7.777  1.6751  0.7558 -0.2722
   28SAPC  C313 3790   2.799   3.895   7.877  0.1977 -1.4643 -0.5137
   28SAPC  H13X 3791   2.881   3.952   7.827  1.0491  0.4738  2.8993
   28SAPC  H13Y 3792   2.848   3.797   7.896  3.4339  0.0498 -0.6860
   28SAPC  C314 3793   2.773   3.955   8.015  0.1897  0.4823  0.3703
   28SAPC  H14X 3794   2.725   3.872   8.071  0.8982  0.9030  1.6177
   28SAPC  H14Y 3795   2.696   4.035   8.023 -0.5703 -0.2789  0.7750
   28SAPC  C315 3796   2.898   4.014   8.080 -1.1344  0.2656 -0.3032
   28SAPC  H15X 3797   2.945   4.105   8.037 -0.7880 -0.1018 -0.7073
   28SAPC  H15Y 3798   2.969   3.929   8.065  2.1483  2.5587  1.3724
   28SAPC  C316 3799   2.878   4.039   8.235 -0.2299 -0.1021 -0.8417
   28SAPC  H16X 3800   2.790   4.105   8.249 -0.1396 -0.4433  1.5694
   28SAPC  H16Y 3801   2.973   4.070   8.284 -0.9731 -0.1525  0.6556
   28SAPC  C317 3802   2.852   3.904   8.309  0.3025  0.2687 -0.1135
   28SAPC  H17X 3803   2.949   3.850   8.297 -0.0578  0.1311 -2.6280
   28SAPC  H17Y 3804   2.772   3.856   8.249 -0.2844  0.8253  0.2207
   28SAPC  C318 3805   2.794   3.918   8.443  0.3181 -0.9033  0.3529
   28SAPC  H18X 3806   2.862   3.973   8.512 -1.4293 -0.7811  2.0458
   28SAPC  H18Y 3807   2.780   3.814   8.479  0.5207 -1.2284 -0.5102
   28SAPC  H18Z 3808   2.705   3.984   8.438  0.5592 -0.6485 -0.7082
   29SAPC     N 3809   4.285   0.545   6.223  1.0574 -0.1157 -0.1029
   29SAPC   C12 3810   4.412   0.610   6.190 -0.3758 -0.2748 -0.1099
   29SAPC  H12A 3811   4.406   0.718   6.196 -1.8006 -0.4498  2.5183
   29SAPC  H12B 3812   4.433   0.588   6.086 -4.7530  1.1683 -1.4043
   29SAPC   C13 3813   4.176   0.606   6.140  0.4255  0.1076  0.2176
   29SAPC  H13A 3814   4.149   0.701   6.184 -3.5899 -1.2508  0.9299
   29SAPC  H13B 3815   4.199   0.614   6.034 -0.3789  0.3748  0.0575
   29SAPC  H13C 3816   4.083   0.552   6.143  0.5374 -0.1303 -0.4290
   29SAPC   C14 3817   4.280   0.406   6.185  1.0573  0.4612 -0.8276
   29SAPC  H14A 3818   4.179   0.368   6.196  0.5992  2.2761  1.6470
   29SAPC  H14B 3819   4.308   0.401   6.081 -1.4876 -0.4647 -1.5244
   29SAPC  H14C 3820   4.348   0.350   6.247  1.0938  2.5555  1.0949
   29SAPC   C15 3821   4.245   0.557   6.368  0.1570  0.2887 -0.0928
   29SAPC  H15A 3822   4.148   0.512   6.381  0.7321 -0.0333  3.4287
   29SAPC  H15B 3823   4.320   0.497   6.417  2.0506  0.6518 -2.4373
   29SAPC  H15C 3824   4.247   0.661   6.399 -0.2407 -0.6030  3.0257
   29SAPC   C11 3825   4.537   0.560   6.262 -0.0742  0.4078  0.5364
   29SAPC  H11A 3826   4.621   0.588   6.195  0.4078 -0.6364  0.6971
   29SAPC  H11B 3827   4.540   0.449   6.270 -1.1322  0.3155 -0.2594
   29SAPC     P 3828   4.592   0.757   6.434 -0.1630 -0.3549  0.4090
   29SAPC   O13 3829   4.741   0.786   6.422  0.1210  0.0678  0.1023
   29SAPC   O14 3830   4.501   0.852   6.375  0.3626  0.1289  0.3441
   29SAPC   O12 3831   4.547   0.614   6.392  0.1586 -0.5173  0.0056
   29SAPC   O11 3832   4.562   0.746   6.592 -0.2707 -0.1246  0.1458
   29SAPC    C1 3833   4.437   0.715   6.654  0.0549  0.1752  0.1646
   29SAPC    HA 3834   4.362   0.787   6.617  0.6061 -0.2771 -1.9033
   29SAPC    HB 3835   4.402   0.614   6.623  0.6551 -0.2602  0.8722
   29SAPC    C2 3836   4.450   0.710   6.814 -0.3968  0.0097  0.7902
   29SAPC    HS 3837   4.499   0.806   6.841  0.8303 -0.3283 -0.1682
   29SAPC   O21 3838   4.539   0.602   6.843  0.0701  0.4955  0.2827
   29SAPC   C21 3839   4.666   0.615   6.843  0.4094 -0.0283  0.1867
   29SAPC   O22 3840   4.726   0.724   6.836 -0.0917  0.4266  0.2198
   29SAPC   C22 3841   4.719   0.472   6.860  0.3148 -0.0962  0.0054
   29SAPC   H2R 3842   4.708   0.448   6.968  0.2660 -1.6371 -0.3210
   29SAPC   H2S 3843   4.648   0.407   6.804 -1.4886  1.2114  0.6869
   29SAPC    C3 3844   4.320   0.693   6.891  0.5758 -0.2174 -0.2919
   29SAPC    HX 3845   4.266   0.599   6.868  1.5300 -0.6151 -0.9190
   29SAPC    HY 3846   4.245   0.767   6.855 -0.1016 -0.7799 -0.0552
   29SAPC   O31 3847   4.330   0.707   7.035 -0.2946  0.4194 -0.6368
   29SAPC   C31 3848   4.368   0.606   7.111 -0.7050  0.1702  0.4167
   29SAPC   O32 3849   4.397   0.488   7.082  0.8797 -0.5296  0.0279
   29SAPC   C32 3850   4.370   0.652   7.257  0.4702  0.7186  0.5441
   29SAPC   H2X 3851   4.269   0.657   7.303  0.5384  0.5697  0.7117
   29SAPC   H2Y 3852   4.428   0.747   7.259  1.4290  0.1566  0.1532
   29SAPC   C23 3853   4.858   0.446   6.792  0.8209 -0.3500 -0.0853
   29SAPC   H3R 3854   4.871   0.495   6.694  0.1860  0.8620  0.4269
   29SAPC   H3S 3855   4.859   0.337   6.770  1.1066  0.0434 -2.1326
   29SAPC   C24 3856   4.973   0.475   6.895  0.0059 -0.0040  0.7605
   29SAPC   H4R 3857   4.938   0.431   6.991 -1.2199  0.2613  0.4415
   29SAPC   H4S 3858   4.983   0.583   6.917  0.0480 -0.3476  2.4974
   29SAPC   C25 3859   5.106   0.435   6.853 -0.0410  0.8053  0.0530
   29SAPC   H5R 3860   5.126   0.466   6.750 -1.5218  2.0269  0.1116
   29SAPC   C26 3861   5.198   0.394   6.944 -0.2183  0.0135  0.2490
   29SAPC   H6R 3862   5.298   0.370   6.904  0.7183 -0.5996  2.8449
   29SAPC   C27 3863   5.184   0.359   7.087  0.1958  0.1602  0.2691
   29SAPC   H7R 3864   5.104   0.408   7.147 -1.2957  0.8431 -2.1682
   29SAPC   H7S 3865   5.275   0.398   7.137 -0.0345  1.1983 -0.1108
   29SAPC   C28 3866   5.158   0.211   7.105 -0.1432 -0.1104  0.0713
   29SAPC   H8R 3867   5.089   0.157   7.039 -0.6165 -0.8275  1.1307
   29SAPC   C29 3868   5.206   0.139   7.209  0.5958 -0.5064  0.1970
   29SAPC   H9R 3869   5.174   0.034   7.219 -1.4340  0.0369 -0.2431
   29SAPC  C210 3870   5.300   0.183   7.319  0.4760 -0.7288 -0.4153
   29SAPC  H10R 3871   5.356   0.269   7.279 -0.8584  0.1264 -0.4673
   29SAPC  H10S 3872   5.369   0.100   7.347  0.0102 -1.1909 -0.6379
   29SAPC  C211 3873   5.222   0.227   7.442  0.6826  0.0096  0.4877
   29SAPC  H11R 3874   5.129   0.275   7.408  0.7485 -1.0015 -1.2236
   29SAPC  C212 3875   5.255   0.220   7.570 -0.1314  0.1451 -0.1050
   29SAPC  H12R 3876   5.183   0.249   7.648 -0.5334  1.6243 -1.0047
   29SAPC  C213 3877   5.379   0.165   7.626 -0.8830  0.4898  0.1971
   29SAPC  H13R 3878   5.456   0.137   7.551  0.8372  0.8537  1.7784
   29SAPC  H13S 3879   5.351   0.070   7.676  0.2443  0.7808  1.3897
   29SAPC  C214 3880   5.447   0.261   7.718  0.5259 -0.2221  0.3041
   29SAPC  H14R 3881   5.475   0.352   7.663 -0.5548 -1.0902 -1.7423
   29SAPC  C215 3882   5.469   0.247   7.852  0.0544 -0.4614 -0.6229
   29SAPC  H15R 3883   5.528   0.326   7.901  1.2704 -0.5114 -1.9834
   29SAPC  C216 3884   5.432   0.133   7.942 -0.0679 -0.1112  0.3974
   29SAPC  H16R 3885   5.530   0.109   7.990  1.7155  0.7354 -2.6715
   29SAPC  H16S 3886   5.402   0.046   7.879 -2.0995  0.0755  1.0880
   29SAPC  C217 3887   5.319   0.159   8.039  0.0128  0.4266 -0.9288
   29SAPC  H17R 3888   5.310   0.066   8.098 -0.1318  1.3586  0.5462
   29SAPC  H17S 3889   5.223   0.174   7.985 -1.0372  0.5754  0.9207
   29SAPC  C218 3890   5.340   0.277   8.136 -0.1682  0.2692 -0.3827
   29SAPC  H18R 3891   5.252   0.278   8.204 -1.5796  1.5018 -2.1646
   29SAPC  H18S 3892   5.336   0.370   8.075 -1.3605  1.2595  1.1418
   29SAPC  C219 3893   5.466   0.266   8.212  0.1786  0.5749 -0.3999
   29SAPC  H19R 3894   5.557   0.288   8.152  0.6827 -1.3544 -0.3808
   29SAPC  H19S 3895   5.478   0.159   8.242  1.5245  0.8370  0.0485
   29SAPC  C220 3896   5.472   0.351   8.338  0.3534 -0.2555 -0.1934
   29SAPC  H20R 3897   5.403   0.317   8.418  2.4934 -1.4690  1.1791
   29SAPC  H20S 3898   5.452   0.456   8.307  0.5167  1.1594  4.2023
   29SAPC  H20T 3899   5.578   0.336   8.368  0.0459 -2.2647 -0.0474
   29SAPC   C33 3900   4.444   0.549   7.359  0.0579  0.4102 -0.4390
   29SAPC   H3X 3901   4.552   0.546   7.332  0.2560  1.9224  0.1180
   29SAPC   H3Y 3902   4.405   0.447   7.339 -1.6462  0.8554  0.5178
   29SAPC   C34 3903   4.439   0.588   7.503  0.5651  0.4126  0.5153
   29SAPC   H4X 3904   4.333   0.598   7.532  0.3137  2.0319 -0.8991
   29SAPC   H4Y 3905   4.484   0.690   7.504  1.0038  0.2391 -0.4527
   29SAPC   C35 3906   4.532   0.509   7.591 -0.4327 -0.0578 -0.2897
   29SAPC   H5X 3907   4.638   0.508   7.558 -0.8444  1.4144 -1.7027
   29SAPC   H5Y 3908   4.493   0.405   7.582 -1.9869  0.5175 -0.3124
   29SAPC   C36 3909   4.531   0.554   7.742 -0.5388  0.7791  0.2915
   29SAPC   H6X 3910   4.591   0.478   7.796 -1.9434 -1.6454 -1.4453
   29SAPC   H6Y 3911   4.427   0.559   7.781 -0.8290 -0.3026 -0.3260
   29SAPC   C37 3912   4.591   0.695   7.762  0.1873  0.0523 -0.1975
   29SAPC   H7X 3913   4.546   0.768   7.691  1.3875  0.3255 -0.6814
   29SAPC   H7Y 3914   4.696   0.686   7.726  0.7534  1.5950  1.0411
   29SAPC   C38 3915   4.593   0.753   7.902  0.2111 -0.3354 -0.6340
   29SAPC   H8X 3916   4.670   0.833   7.901 -0.5303  0.3880 -0.3943
   29SAPC   H8Y 3917   4.616   0.680   7.982 -2.7745 -1.7473 -1.0052
   29SAPC   C39 3918   4.460   0.818   7.948 -0.5172 -0.1422  0.3314
   29SAPC   H9X 3919   4.378   0.744   7.952  0.5878 -1.3980  0.0691
   29SAPC   H9Y 3920   4.440   0.898   7.873 -0.3314 -0.2079  0.2123
   29SAPC  C310 3921   4.471   0.864   8.099  0.1896 -0.2513  0.1038
   29SAPC  H10X 3922   4.539   0.952   8.102 -0.0905 -0.0815  1.6923
   29SAPC  H10Y 3923   4.519   0.788   8.164 -0.3760 -1.1346 -0.4920
   29SAPC  C311 3924   4.334   0.911   8.158  0.6108 -0.2095 -0.1161
   29SAPC  H11X 3925   4.298   0.998   8.098  0.9236 -0.1381 -0.1970
   29SAPC  H11Y 3926   4.364   0.958   8.254 -1.0988  1.6709 -0.4581
   29SAPC  C312 3927   4.227   0.802   8.186  0.1368 -0.6551  0.7946
   29SAPC  H12X 3928   4.200   0.761   8.087  2.1811 -2.0876  0.7860
   29SAPC  H12Y 3929   4.141   0.846   8.241 -0.8828 -2.9652  1.0925
   29SAPC  C313 3930   4.269   0.694   8.285  0.4461 -1.1006 -0.1496
   29SAPC  H13X 3931   4.313   0.751   8.370 -0.1839  0.6517 -0.9663
   29SAPC  H13Y 3932   4.347   0.624   8.248  4.0301  3.0975 -0.9611
   29SAPC  C314 3933   4.145   0.614   8.323  0.2250 -0.0104 -0.0785
   29SAPC  H14X 3934   4.077   0.588   8.240 -3.3305  0.5008  2.5388
   29SAPC  H14Y 3935   4.085   0.684   8.385  1.1987  2.6530 -2.0411
   29SAPC  C315 3936   4.201   0.491   8.403 -0.1620 -0.1063  0.1181
   29SAPC  H15X 3937   4.260   0.536   8.486  1.0793 -0.5095 -0.5467
   29SAPC  H15Y 3938   4.267   0.435   8.335  2.1002  2.9994 -0.3423
   29SAPC  C316 3939   4.087   0.413   8.461 -0.2040 -0.3398  0.5289
   29SAPC  H16X 3940   4.007   0.381   8.392  0.7759  0.3872 -0.9656
   29SAPC  H16Y 3941   4.039   0.470   8.543  0.8943 -0.2053  1.0937
   29SAPC  C317 3942   4.154   0.294   8.523 -0.4497 -0.2440  0.3291
   29SAPC  H17X 3943   4.250   0.320   8.574  0.4741 -4.2078  0.7505
   29SAPC  H17Y 3944   4.185   0.225   8.442 -2.9448 -0.2895 -0.6029
   29SAPC  C318 3945   4.070   0.212   8.613  0.1942 -0.2127 -0.0602
   29SAPC  H18X 3946   4.028   0.278   8.692 -0.5580  0.3418 -0.9115
   29SAPC  H18Y 3947   4.133   0.128   8.650  0.6888  0.6262  1.0629
   29SAPC  H18Z 3948   3.985   0.163   8.562  0.5127 -0.6494 -0.1772
   30SAPC     N 3949   5.772   1.295   5.934  0.5822  0.6450 -0.3408
   30SAPC   C12 3950   5.733   1.256   6.074  0.4255  0.2707 -1.3157
   30SAPC  H12A 3951   5.629   1.228   6.083  0.3760  0.7596 -0.3052
   30SAPC  H12B 3952   5.753   1.344   6.133  5.1112 -0.9639 -0.9298
   30SAPC   C13 3953   5.921   1.276   5.909  0.0975 -0.2295  0.1196
   30SAPC  H13A 3954   5.932   1.308   5.806 -1.3581 -1.5448 -0.4788
   30SAPC  H13B 3955   5.982   1.343   5.967 -2.3957  0.3908  2.1008
   30SAPC  H13C 3956   5.953   1.178   5.940 -2.2772 -0.8594  0.7327
   30SAPC   C14 3957   5.699   1.184   5.850  0.1637 -0.6911 -0.1301
   30SAPC  H14A 3958   5.737   1.181   5.749 -1.2181  0.1755 -0.6959
   30SAPC  H14B 3959   5.715   1.089   5.898  0.6784 -0.4620  0.1659
   30SAPC  H14C 3960   5.595   1.211   5.840  0.1650 -0.1763  1.1454
   30SAPC   C15 3961   5.724   1.426   5.894 -0.4522 -0.8088  0.0756
   30SAPC  H15A 3962   5.616   1.429   5.901 -0.3619 -0.1276  1.3161
   30SAPC  H15B 3963   5.759   1.514   5.945 -0.3313 -0.3903 -0.7193
   30SAPC  H15C 3964   5.733   1.453   5.790  0.8249  0.6848  0.5565
   30SAPC   C11 3965   5.810   1.139   6.138 -0.2277  1.1343  0.2695
   30SAPC  H11A 3966   5.778   1.126   6.244  1.8832 -1.9160  0.5784
   30SAPC  H11B 3967   5.921   1.151   6.142 -0.4408  3.3407  0.3040
   30SAPC     P 3968   5.883   0.909   6.034  0.2229  0.0063  0.0153
   30SAPC   O13 3969   5.816   0.786   5.976  0.2875 -0.2445  0.1560
   30SAPC   O14 3970   5.976   0.985   5.948  0.1489 -0.1998 -0.0200
   30SAPC   O12 3971   5.768   1.011   6.077  1.1868 -0.1135  0.0819
   30SAPC   O11 3972   5.948   0.871   6.170 -0.0235 -0.6318  0.3471
   30SAPC    C1 3973   5.978   0.739   6.213 -0.7658  0.3924 -1.2489
   30SAPC    HA 3974   5.907   0.660   6.181 -1.4398 -0.0032  1.1787
   30SAPC    HB 3975   6.075   0.700   6.177 -0.0849 -0.4380  1.3724
   30SAPC    C2 3976   5.996   0.750   6.372 -0.6122 -0.1068 -0.6349
   30SAPC    HS 3977   6.090   0.807   6.384 -0.3864 -0.8105  1.0020
   30SAPC   O21 3978   6.004   0.623   6.433  0.5070 -0.0917  0.2762
   30SAPC   C21 3979   6.125   0.577   6.453  0.1544 -0.6903 -0.0711
   30SAPC   O22 3980   6.227   0.636   6.443 -0.5397 -0.1780 -0.3954
   30SAPC   C22 3981   6.107   0.424   6.492 -0.0200 -0.2624 -0.7502
   30SAPC   H2R 3982   6.056   0.385   6.402 -0.9915  0.1375 -0.3774
   30SAPC   H2S 3983   6.206   0.374   6.497 -0.1441 -0.3707  1.3440
   30SAPC    C3 3984   5.877   0.827   6.433  0.1782  0.2785 -0.1261
   30SAPC    HX 3985   5.782   0.788   6.391  0.2348  1.4662 -1.3772
   30SAPC    HY 3986   5.901   0.933   6.410  0.4352  0.2185 -0.1373
   30SAPC   O31 3987   5.866   0.813   6.580 -0.1129 -0.3334 -0.1074
   30SAPC   C31 3988   5.971   0.851   6.653  0.1129 -0.1903  0.3852
   30SAPC   O32 3989   6.062   0.922   6.623 -0.0813 -0.4302  0.3505
   30SAPC   C32 3990   5.944   0.801   6.796 -0.2537  0.1825  0.6400
   30SAPC   H2X 3991   5.937   0.691   6.799  0.1169  0.1826  1.8709
   30SAPC   H2Y 3992   5.840   0.833   6.823 -0.2005  1.3973 -0.5249
   30SAPC   C23 3993   6.040   0.409   6.630  0.4770 -0.2763 -0.1211
   30SAPC   H3R 3994   6.018   0.302   6.649 -1.2183 -0.2243 -1.6671
   30SAPC   H3S 3995   5.938   0.450   6.644  0.2414 -1.2583  1.1279
   30SAPC   C24 3996   6.119   0.462   6.757  0.0158  1.0621 -0.2307
   30SAPC   H4R 3997   6.044   0.461   6.839  1.1132  1.7630  0.8092
   30SAPC   H4S 3998   6.159   0.563   6.732 -1.5274  1.7483  0.0170
   30SAPC   C25 3999   6.242   0.384   6.798  0.4091 -0.6229  0.3483
   30SAPC   H5R 4000   6.304   0.351   6.713 -0.0118 -1.0446  0.2040
   30SAPC   C26 4001   6.273   0.341   6.926  0.3211  1.0613 -0.0791
   30SAPC   H6R 4002   6.360   0.275   6.934 -0.8466 -0.7628 -1.7396
   30SAPC   C27 4003   6.201   0.354   7.058  0.1946 -0.3003  0.3215
   30SAPC   H7R 4004   6.218   0.267   7.125  0.7712 -0.3940  0.0531
   30SAPC   H7S 4005   6.090   0.358   7.048  0.1815  0.8320  0.8732
   30SAPC   C28 4006   6.257   0.477   7.121  0.0262  0.1557  0.0902
   30SAPC   H8R 4007   6.241   0.565   7.057 -1.6240  0.9542  1.5652
   30SAPC   C29 4008   6.322   0.493   7.238 -0.1165 -0.0340 -0.6056
   30SAPC   H9R 4009   6.345   0.598   7.263 -2.9166  0.1842  1.3866
   30SAPC  C210 4010   6.350   0.394   7.348  0.0562 -0.7492 -0.1506
   30SAPC  H10R 4011   6.292   0.301   7.332  0.5964 -0.8971 -1.3186
   30SAPC  H10S 4012   6.301   0.446   7.433  1.8019  1.6945 -0.5953
   30SAPC  C211 4013   6.502   0.381   7.357 -0.2043 -1.0292 -0.2571
   30SAPC  H11R 4014   6.557   0.362   7.263  0.1106  3.8439 -1.1976
   30SAPC  C212 4015   6.586   0.410   7.458  0.1941 -0.0794 -0.3153
   30SAPC  H12R 4016   6.693   0.386   7.447  0.0571 -0.9976  0.3495
   30SAPC  C213 4017   6.548   0.470   7.591 -0.2283  0.6415  0.0998
   30SAPC  H13R 4018   6.464   0.543   7.580 -0.0215  1.1101  1.5423
   30SAPC  H13S 4019   6.634   0.525   7.635  1.7074 -1.7999 -0.5493
   30SAPC  C214 4020   6.495   0.363   7.687 -0.0546  0.5184 -0.5665
   30SAPC  H14R 4021   6.460   0.271   7.637  0.1398  0.5564 -0.7742
   30SAPC  C215 4022   6.495   0.374   7.825  0.0274 -0.7736  0.5593
   30SAPC  H15R 4023   6.458   0.293   7.890  0.3101 -0.0599  1.6158
   30SAPC  C216 4024   6.553   0.484   7.911  0.4396  0.2937  0.3812
   30SAPC  H16R 4025   6.467   0.538   7.956  1.4803  2.5144 -0.2061
   30SAPC  H16S 4026   6.608   0.569   7.864  0.1512  0.2267 -0.0809
   30SAPC  C217 4027   6.648   0.438   8.022 -1.0260 -0.4813  0.0944
   30SAPC  H17R 4028   6.700   0.525   8.067  0.6916 -1.3567 -0.1582
   30SAPC  H17S 4029   6.724   0.374   7.973 -0.8102 -0.9004  0.9538
   30SAPC  C218 4030   6.572   0.358   8.135  0.0897  0.0494 -0.7851
   30SAPC  H18R 4031   6.561   0.252   8.101  1.8990 -0.8517  1.3323
   30SAPC  H18S 4032   6.475   0.412   8.141  0.1235  0.2628 -2.0626
   30SAPC  C219 4033   6.654   0.354   8.268 -0.2425  0.2263 -0.2874
   30SAPC  H19R 4034   6.666   0.459   8.303  2.7348  1.1901 -3.9383
   30SAPC  H19S 4035   6.756   0.313   8.253 -0.2835  0.4752 -1.2709
   30SAPC  C220 4036   6.590   0.277   8.381  0.5834  0.0561 -0.4549
   30SAPC  H20R 4037   6.633   0.308   8.478  0.2302 -0.5343 -0.1056
   30SAPC  H20S 4038   6.617   0.171   8.360  1.6118  0.2717 -0.2570
   30SAPC  H20T 4039   6.480   0.287   8.372  0.6931 -0.3410 -2.4657
   30SAPC   C33 4040   6.055   0.861   6.893 -0.1750 -0.2763  0.2898
   30SAPC   H3X 4041   6.042   0.971   6.901  0.5953 -0.1822  0.2230
   30SAPC   H3Y 4042   6.159   0.832   6.868  0.2223  1.5440 -0.2218
   30SAPC   C34 4043   6.039   0.809   7.034 -0.7036  0.1623  0.4169
   30SAPC   H4X 4044   6.067   0.701   7.027 -0.5222  0.2590 -0.4248
   30SAPC   H4Y 4045   5.934   0.821   7.066 -0.7072  0.5259  0.2698
   30SAPC   C35 4046   6.123   0.896   7.131  0.7573 -0.1335  0.0471
   30SAPC   H5X 4047   6.090   1.002   7.128  3.6355  0.8268  1.0426
   30SAPC   H5Y 4048   6.230   0.899   7.102  0.5183 -0.7047 -0.9044
   30SAPC   C36 4049   6.101   0.834   7.271 -0.4951 -0.4437 -0.5992
   30SAPC   H6X 4050   6.110   0.724   7.285 -0.6980 -0.3934 -0.0612
   30SAPC   H6Y 4051   5.994   0.859   7.284 -0.7621 -1.0349 -1.7048
   30SAPC   C37 4052   6.170   0.915   7.380 -0.2844  0.0615 -0.5217
   30SAPC   H7X 4053   6.155   1.021   7.351 -0.4658 -0.1670 -1.2746
   30SAPC   H7Y 4054   6.280   0.899   7.371 -0.6982 -1.7901 -2.5716
   30SAPC   C38 4055   6.120   0.888   7.521  0.2209 -0.2774  1.0378
   30SAPC   H8X 4056   6.148   0.787   7.559 -2.9244 -0.3022  3.5475
   30SAPC   H8Y 4057   6.009   0.881   7.514  0.1147 -0.6182  2.8515
   30SAPC   C39 4058   6.175   0.992   7.624  0.0581  0.3262 -0.5109
   30SAPC   H9X 4059   6.160   1.096   7.588 -0.4516  0.9565  1.4683
   30SAPC   H9Y 4060   6.285   0.975   7.626 -0.0322 -0.1679  0.4249
   30SAPC  C310 4061   6.112   0.980   7.768 -0.5582 -0.7872 -0.4191
   30SAPC  H10X 4062   6.193   0.930   7.826  0.4600 -0.6064 -1.6613
   30SAPC  H10Y 4063   6.017   0.921   7.763 -1.3866  0.5692 -0.9320
   30SAPC  C311 4064   6.079   1.127   7.823 -0.1444  0.1380  0.1164
   30SAPC  H11X 4065   6.009   1.176   7.753 -0.7918 -0.0582  0.6128
   30SAPC  H11Y 4066   6.172   1.185   7.840 -0.2541  0.7656 -1.4139
   30SAPC  C312 4067   6.020   1.123   7.962  0.4202 -0.7357 -0.0625
   30SAPC  H12X 4068   5.929   1.061   7.974  0.3587 -0.2524  2.1460
   30SAPC  H12Y 4069   5.994   1.230   7.973  1.7382 -0.1771 -2.1648
   30SAPC  C313 4070   6.111   1.075   8.081 -0.2282 -0.3687  0.1491
   30SAPC  H13X 4071   6.214   1.094   8.045 -0.8914 -1.3148 -2.3683
   30SAPC  H13Y 4072   6.109   0.964   8.089  0.3730 -0.4307 -0.4535
   30SAPC  C314 4073   6.093   1.132   8.215  0.5857 -0.9896 -0.1053
   30SAPC  H14X 4074   5.985   1.143   8.238  1.0268 -0.5511  1.8418
   30SAPC  H14Y 4075   6.124   1.238   8.208 -0.9459 -0.3858  1.9717
   30SAPC  C315 4076   6.161   1.069   8.337  0.1679  0.1387 -0.1860
   30SAPC  H15X 4077   6.160   0.959   8.323  2.1725 -0.0073  0.7009
   30SAPC  H15Y 4078   6.100   1.081   8.429  1.8492  1.4100  0.7685
   30SAPC  C316 4079   6.305   1.117   8.360 -0.4423  0.0748 -0.0686
   30SAPC  H16X 4080   6.301   1.228   8.359  0.0467  0.1165  1.1747
   30SAPC  H16Y 4081   6.372   1.082   8.279  0.4747 -1.1666  1.1949
   30SAPC  C317 4082   6.358   1.062   8.494  0.3638 -0.2893  0.2995
   30SAPC  H17X 4083   6.358   0.951   8.488 -0.9713 -0.2140 -1.4325
   30SAPC  H17Y 4084   6.296   1.086   8.584  1.6565  0.0381  1.1110
   30SAPC  C318 4085   6.496   1.113   8.530  0.3621  0.0885  0.2105
   30SAPC  H18X 4086   6.518   1.077   8.633 -0.9186 -0.3595  0.3390
   30SAPC  H18Y 4087   6.500   1.224   8.529  0.9882  0.0731  1.0741
   30SAPC  H18Z 4088   6.555   1.061   8.451  1.4343  0.0110  1.0496
   31SAPC     N 4089   0.540   2.607   5.899 -0.2364  0.2111  0.4568
   31SAPC   C12 4090   0.578   2.570   6.047 -0.6359 -0.7290  0.1086
   31SAPC  H12A 4091   0.630   2.652   6.097 -0.1478 -0.5273 -0.7206
   31SAPC  H12B 4092   0.649   2.489   6.049  1.7805  1.2711 -0.8691
   31SAPC   C13 4093   0.449   2.729   5.901 -0.0653  0.0479  0.1004
   31SAPC  H13A 4094   0.500   2.808   5.956 -1.5767  1.6214 -0.7204
   31SAPC  H13B 4095   0.408   2.775   5.813  0.8565  2.5238  0.9044
   31SAPC  H13C 4096   0.359   2.698   5.951 -0.2067  0.9892  0.4416
   31SAPC   C14 4097   0.657   2.644   5.820 -0.8929  0.0836 -0.4097
   31SAPC  H14A 4098   0.633   2.683   5.722 -1.6008  4.2523  1.3267
   31SAPC  H14B 4099   0.720   2.718   5.866  2.8888 -3.3629  0.1909
   31SAPC  H14C 4100   0.723   2.559   5.812 -2.1927 -0.8601 -1.2462
   31SAPC   C15 4101   0.475   2.499   5.838  0.0671 -0.0998  0.2426
   31SAPC  H15A 4102   0.410   2.447   5.907 -0.5288  0.0207 -0.2192
   31SAPC  H15B 4103   0.421   2.532   5.750 -0.6851  1.1746  1.1723
   31SAPC  H15C 4104   0.536   2.420   5.797  0.9975 -0.6953  2.6996
   31SAPC   C11 4105   0.465   2.521   6.150 -0.1734 -0.8875 -0.9161
   31SAPC  H11A 4106   0.386   2.596   6.172 -1.1565 -2.4436  1.1053
   31SAPC  H11B 4107   0.515   2.507   6.249 -2.6898 -0.2372  0.4964
   31SAPC     P 4108   0.449   2.268   6.178 -0.4962 -0.0092  0.0639
   31SAPC   O13 4109   0.369   2.156   6.121  0.0814 -0.4323 -0.0139
   31SAPC   O14 4110   0.598   2.270   6.159  0.1464  0.3697 -0.1684
   31SAPC   O12 4111   0.408   2.400   6.103 -0.0289 -0.0939  0.2706
   31SAPC   O11 4112   0.410   2.300   6.324 -0.7432 -0.0591 -0.3904
   31SAPC    C1 4113   0.272   2.348   6.351 -0.0372 -0.6560  0.1685
   31SAPC    HA 4114   0.281   2.457   6.371  1.0132 -0.0567 -3.2748
   31SAPC    HB 4115   0.204   2.337   6.264 -0.2037  1.2777  0.0158
   31SAPC    C2 4116   0.197   2.280   6.477  0.0638 -0.2944  0.0436
   31SAPC    HS 4117   0.099   2.331   6.490  0.7558  0.4241  2.7302
   31SAPC   O21 4118   0.274   2.286   6.602  0.0556 -0.3794 -0.7511
   31SAPC   C21 4119   0.305   2.404   6.645 -0.6083 -0.0726  0.0980
   31SAPC   O22 4120   0.251   2.514   6.610 -0.5058  0.2919 -0.6597
   31SAPC   C22 4121   0.412   2.407   6.755 -0.3344  0.3846  0.3225
   31SAPC   H2R 4122   0.512   2.412   6.707  0.7389 -2.4291  2.1294
   31SAPC   H2S 4123   0.400   2.503   6.809 -0.4479  0.7038 -0.2661
   31SAPC    C3 4124   0.158   2.135   6.437  0.2429 -0.8110 -0.0856
   31SAPC    HX 4125   0.231   2.077   6.376 -0.3468 -0.7799 -0.8289
   31SAPC    HY 4126   0.078   2.149   6.360  0.7754 -0.1144 -0.5072
   31SAPC   O31 4127   0.105   2.049   6.537  0.1670  0.4007  0.0865
   31SAPC   C31 4128   0.190   1.979   6.599 -0.1422 -0.2355  0.1718
   31SAPC   O32 4129   0.310   1.971   6.578  0.6093  0.3033  0.2819
   31SAPC   C32 4130   0.118   1.891   6.702  0.0399  0.0153 -0.8209
   31SAPC   H2X 4131   0.122   1.787   6.663  0.0010 -0.5422  0.6647
   31SAPC   H2Y 4132   0.014   1.916   6.733  0.4140  0.5808 -0.0207
   31SAPC   C23 4133   0.407   2.286   6.850  0.3291  0.1290 -0.4557
   31SAPC   H3R 4134   0.430   2.193   6.794  1.9691 -2.4075  4.1811
   31SAPC   H3S 4135   0.301   2.289   6.883 -0.3761  1.8277 -2.7600
   31SAPC   C24 4136   0.514   2.285   6.972  1.1314 -0.0818 -0.2472
   31SAPC   H4R 4137   0.620   2.298   6.938  1.0648  1.1918  0.0085
   31SAPC   H4S 4138   0.494   2.189   7.024 -1.1580  0.8355  0.5924
   31SAPC   C25 4139   0.467   2.394   7.063 -0.2272 -0.2314  0.0689
   31SAPC   H5R 4140   0.395   2.467   7.022  0.1732  0.5651  0.7632
   31SAPC   C26 4141   0.524   2.418   7.184 -0.0604 -0.4113  0.5679
   31SAPC   H6R 4142   0.509   2.513   7.237  0.1705 -0.6711  1.0996
   31SAPC   C27 4143   0.634   2.335   7.241  0.4250 -0.2291  0.2827
   31SAPC   H7R 4144   0.729   2.379   7.203  0.1122  1.1358  1.0319
   31SAPC   H7S 4145   0.648   2.229   7.209  1.9356 -0.2031  0.8109
   31SAPC   C28 4146   0.646   2.324   7.394 -0.2461  0.6761 -0.1749
   31SAPC   H8R 4147   0.604   2.233   7.439 -0.4772  1.3909  1.0833
   31SAPC   C29 4148   0.697   2.414   7.478 -0.1230  0.8399 -0.2690
   31SAPC   H9R 4149   0.702   2.385   7.584 -0.1229 -1.3221 -0.8431
   31SAPC  C210 4150   0.752   2.547   7.438 -0.3404  0.4845  0.2764
   31SAPC  H10R 4151   0.670   2.620   7.453  0.5247  1.4772  0.2694
   31SAPC  H10S 4152   0.788   2.543   7.333  0.6058 -2.0363  0.6649
   31SAPC  C211 4153   0.872   2.578   7.531 -0.7278  0.1022  0.1977
   31SAPC  H11R 4154   0.964   2.586   7.471 -0.4217 -0.7305  0.5536
   31SAPC  C212 4155   0.878   2.610   7.662  0.2058  0.6747  0.1071
   31SAPC  H12R 4156   0.975   2.627   7.712 -0.9887  0.0908  2.6994
   31SAPC  C213 4157   0.771   2.627   7.763  0.2889 -0.1419 -0.9297
   31SAPC  H13R 4158   0.679   2.606   7.703  0.9379 -0.3366 -1.8655
   31SAPC  H13S 4159   0.765   2.734   7.792  1.3958 -0.4350  0.4249
   31SAPC  C214 4160   0.767   2.525   7.878  0.0176 -0.4750 -0.0136
   31SAPC  H14R 4161   0.786   2.426   7.833 -2.3483  0.5324 -3.4637
   31SAPC  C215 4162   0.735   2.541   8.007  0.1156  0.4767 -0.2237
   31SAPC  H15R 4163   0.735   2.454   8.075  0.9698  0.9139  0.3351
   31SAPC  C216 4164   0.697   2.671   8.073 -0.2118  0.0880  0.9529
   31SAPC  H16R 4165   0.619   2.668   8.153 -2.3152  0.2194 -1.0342
   31SAPC  H16S 4166   0.669   2.743   7.993  1.6526  0.6624  0.7950
   31SAPC  C217 4167   0.831   2.721   8.127 -0.4009  0.0286 -0.6791
   31SAPC  H17R 4168   0.909   2.732   8.049 -0.6490 -1.3877 -1.1479
   31SAPC  H17S 4169   0.873   2.660   8.210 -1.2610 -0.2167 -0.4086
   31SAPC  C218 4170   0.810   2.852   8.196 -0.4431  0.4455  0.7783
   31SAPC  H18R 4171   0.776   2.832   8.300  0.9450  2.3114  1.6037
   31SAPC  H18S 4172   0.739   2.918   8.142  2.7286  1.6203 -2.1436
   31SAPC  C219 4173   0.943   2.917   8.207 -0.3135 -0.1465 -0.2918
   31SAPC  H19R 4174   0.997   2.930   8.111  0.5182  0.7915  0.2897
   31SAPC  H19S 4175   1.013   2.844   8.253  0.2448  0.3005 -0.4267
   31SAPC  C220 4176   0.941   3.052   8.280  0.4535  0.7464  0.3770
   31SAPC  H20R 4177   1.028   3.110   8.245 -0.1701  1.4375 -0.0451
   31SAPC  H20S 4178   0.951   3.043   8.391  1.7317 -0.6193  0.1673
   31SAPC  H20T 4179   0.857   3.121   8.257  0.2627  0.1555 -0.7040
   31SAPC   C33 4180   0.187   1.893   6.837  0.2244 -0.2150 -0.3259
   31SAPC   H3X 4181   0.192   1.996   6.879 -0.8338 -0.1150 -0.4342
   31SAPC   H3Y 4182   0.296   1.871   6.829  0.2203 -0.1139 -0.6697
   31SAPC   C34 4183   0.104   1.813   6.941 -0.2389  0.2512  0.1366
   31SAPC   H4X 4184   0.139   1.707   6.938 -0.6975  0.0321  1.8425
   31SAPC   H4Y 4185  -0.006   1.816   6.924 -0.2664  0.1249  0.2814
   31SAPC   C35 4186   0.132   1.878   7.077  0.2586  0.2205  0.0392
   31SAPC   H5X 4187   0.072   1.822   7.153  1.1073 -2.0966 -0.9628
   31SAPC   H5Y 4188   0.100   1.984   7.066  1.3608  0.3660 -1.9119
   31SAPC   C36 4189   0.278   1.871   7.130  0.2428 -0.0184  0.2887
   31SAPC   H6X 4190   0.322   1.949   7.064 -0.9518 -0.7685 -1.4286
   31SAPC   H6Y 4191   0.323   1.770   7.119  0.0108 -0.3205  2.1088
   31SAPC   C37 4192   0.282   1.918   7.277 -0.3073  0.5460  0.1099
   31SAPC   H7X 4193   0.266   1.823   7.334 -3.4983  0.7259 -0.4035
   31SAPC   H7Y 4194   0.200   1.991   7.292  0.4476  1.5314 -0.5160
   31SAPC   C38 4195   0.416   1.984   7.311 -0.3092  0.3542  0.0897
   31SAPC   H8X 4196   0.426   2.083   7.261 -0.9482 -0.0753 -0.9032
   31SAPC   H8Y 4197   0.504   1.923   7.280  0.6328  2.2516 -1.0836
   31SAPC   C39 4198   0.431   2.005   7.464 -0.2828 -0.3351 -0.6025
   31SAPC   H9X 4199   0.538   2.033   7.472 -0.4669 -0.1125  1.1578
   31SAPC   H9Y 4200   0.403   1.909   7.513 -2.6217  0.2764 -0.6535
   31SAPC  C310 4201   0.344   2.116   7.518 -0.4877 -0.3961  0.0634
   31SAPC  H10X 4202   0.236   2.099   7.497 -0.6930  0.1765  0.6390
   31SAPC  H10Y 4203   0.366   2.214   7.472  0.4342  0.0464  1.4204
   31SAPC  C311 4204   0.362   2.119   7.678  0.6287  0.1789 -0.2585
   31SAPC  H11X 4205   0.363   2.018   7.723 -1.3073  0.9131  1.4757
   31SAPC  H11Y 4206   0.262   2.153   7.712 -0.5944 -2.0041 -1.5357
   31SAPC  C312 4207   0.473   2.207   7.729  0.1973 -0.1750 -0.4183
   31SAPC  H12X 4208   0.453   2.313   7.704 -1.2291 -0.4017 -0.2869
   31SAPC  H12Y 4209   0.568   2.171   7.683  2.0753  2.4328  1.2481
   31SAPC  C313 4210   0.487   2.201   7.880 -0.2975 -0.4776  0.2349
   31SAPC  H13X 4211   0.594   2.207   7.908 -0.4663 -0.7843  0.9547
   31SAPC  H13Y 4212   0.437   2.107   7.911 -1.6401 -0.0241 -0.4829
   31SAPC  C314 4213   0.426   2.325   7.956  1.0309  0.4838 -0.0498
   31SAPC  H14X 4214   0.316   2.320   7.936  0.8883  0.4569  0.7045
   31SAPC  H14Y 4215   0.462   2.417   7.906  0.7024  0.6234 -0.0352
   31SAPC  C315 4216   0.434   2.337   8.107 -0.2629  0.1364 -0.8367
   31SAPC  H15X 4217   0.381   2.432   8.130 -2.0097 -0.5193 -2.0743
   31SAPC  H15Y 4218   0.542   2.352   8.130 -0.4571  0.8956 -0.4285
   31SAPC  C316 4219   0.389   2.205   8.185  0.7187 -0.1959 -0.3258
   31SAPC  H16X 4220   0.468   2.128   8.176 -0.5505 -1.4053 -1.3321
   31SAPC  H16Y 4221   0.302   2.163   8.131 -1.2158  2.0943  0.8599
   31SAPC  C317 4222   0.350   2.235   8.332 -0.6298  0.5273 -0.1586
   31SAPC  H17X 4223   0.272   2.314   8.325 -0.6800  0.5046  0.1453
   31SAPC  H17Y 4224   0.437   2.286   8.378 -0.2421  0.2896 -0.6272
   31SAPC  C318 4225   0.291   2.116   8.413 -0.5353  0.6974 -0.0859
   31SAPC  H18X 4226   0.362   2.033   8.429  0.4497  1.6483  0.5491
   31SAPC  H18Y 4227   0.198   2.079   8.364 -1.3566  1.0912  1.1661
   31SAPC  H18Z 4228   0.265   2.160   8.512 -0.2546  3.6346 -1.2427
   32SAPC     N 4229   1.699   2.540   6.466  0.5646 -0.0739  0.0770
   32SAPC   C12 4230   1.783   2.523   6.591 -0.3066  0.0132  0.0325
   32SAPC  H12A 4231   1.726   2.458   6.655 -1.9310  0.5241 -0.8396
   32SAPC  H12B 4232   1.785   2.618   6.643 -4.1388  1.5056 -2.2527
   32SAPC   C13 4233   1.763   2.637   6.364  0.2037 -0.2400 -0.4966
   32SAPC  H13A 4234   1.773   2.737   6.405  1.0377 -0.3042 -0.5372
   32SAPC  H13B 4235   1.862   2.606   6.335 -0.0951  0.7489 -2.7102
   32SAPC  H13C 4236   1.693   2.644   6.282 -1.3700  2.1197  0.9800
   32SAPC   C14 4237   1.684   2.409   6.395  0.2954 -0.3363  0.7092
   32SAPC  H14A 4238   1.778   2.381   6.350 -0.2739  1.0094 -1.3814
   32SAPC  H14B 4239   1.649   2.329   6.460 -1.1803 -0.9186 -0.7779
   32SAPC  H14C 4240   1.618   2.419   6.310 -0.7623 -0.9517  1.4346
   32SAPC   C15 4241   1.568   2.589   6.490 -0.2771  0.2039 -0.2885
   32SAPC  H15A 4242   1.515   2.527   6.561  1.3927  0.6099  1.3671
   32SAPC  H15B 4243   1.573   2.685   6.539 -2.1227 -0.0232  0.3779
   32SAPC  H15C 4244   1.512   2.594   6.398  1.4509 -0.6679 -1.4185
   32SAPC   C11 4245   1.929   2.465   6.567 -0.5033  0.5647  0.1680
   32SAPC  H11A 4246   1.912   2.368   6.517  1.9942 -0.8910  2.0362
   32SAPC  H11B 4247   1.973   2.452   6.669  1.2168 -2.6504 -0.9119
   32SAPC     P 4248   2.161   2.529   6.481  0.0265  0.4498  0.1213
   32SAPC   O13 4249   2.174   2.392   6.429  0.1373 -0.0855 -0.1077
   32SAPC   O14 4250   2.219   2.640   6.405 -0.0463  0.2896  0.3003
   32SAPC   O12 4251   2.007   2.554   6.487  0.4028 -0.3038 -0.3528
   32SAPC   O11 4252   2.229   2.523   6.620 -0.4695  0.0304  0.0585
   32SAPC    C1 4253   2.221   2.632   6.712 -0.1163 -0.4298 -0.0897
   32SAPC    HA 4254   2.140   2.705   6.688  1.3174  0.7455 -1.4354
   32SAPC    HB 4255   2.202   2.605   6.818  0.2499  1.0061  0.3513
   32SAPC    C2 4256   2.351   2.715   6.704  0.5235 -0.5960  0.1267
   32SAPC    HS 4257   2.358   2.736   6.595 -2.0407  0.1940  0.0855
   32SAPC   O21 4258   2.455   2.638   6.755  0.4795  0.0713  0.0748
   32SAPC   C21 4259   2.570   2.677   6.716  0.0564 -0.3500 -0.1595
   32SAPC   O22 4260   2.587   2.776   6.646 -0.8936 -0.1417  0.5618
   32SAPC   C22 4261   2.670   2.601   6.798 -0.4782 -0.0234  0.1627
   32SAPC   H2R 4262   2.661   2.490   6.789 -0.1941  0.0473 -1.0728
   32SAPC   H2S 4263   2.771   2.631   6.762 -0.8749  1.7579  0.5013
   32SAPC    C3 4264   2.324   2.848   6.778  0.3863  0.3260 -0.2134
   32SAPC    HX 4265   2.232   2.889   6.731  1.0728  1.0136 -0.9847
   32SAPC    HY 4266   2.403   2.920   6.746  0.8788  0.8122  2.0150
   32SAPC   O31 4267   2.311   2.821   6.920  0.1045 -0.1006 -0.1332
   32SAPC   C31 4268   2.399   2.885   6.994 -0.4293  0.4299 -0.2293
   32SAPC   O32 4269   2.480   2.971   6.955 -0.5405  0.2422  0.2524
   32SAPC   C32 4270   2.391   2.853   7.143 -0.5040 -0.0828 -0.1472
   32SAPC   H2X 4271   2.360   2.746   7.148  0.9927 -0.5539 -0.7963
   32SAPC   H2Y 4272   2.319   2.924   7.190  0.3535  0.4734  0.3354
   32SAPC   C23 4273   2.654   2.636   6.947 -0.0650  0.2676  0.4626
   32SAPC   H3R 4274   2.551   2.614   6.980 -0.0423  1.1311  1.1170
   32SAPC   H3S 4275   2.650   2.747   6.949  1.5966  0.3382  0.8681
   32SAPC   C24 4276   2.754   2.569   7.043  0.8804  0.3261  0.3242
   32SAPC   H4R 4277   2.756   2.461   7.020 -1.9093  0.9020 -3.0646
   32SAPC   H4S 4278   2.722   2.572   7.149 -1.2658  1.6954 -0.3279
   32SAPC   C25 4279   2.887   2.633   7.021  0.1101  0.0538  0.3359
   32SAPC   H5R 4280   2.930   2.609   6.923  1.5791 -0.5276  1.1059
   32SAPC   C26 4281   2.949   2.709   7.110  0.4814  0.0948 -0.1637
   32SAPC   H6R 4282   3.052   2.742   7.089  0.8215 -0.8196  0.0413
   32SAPC   C27 4283   2.897   2.746   7.248  0.0978 -0.1061 -0.1267
   32SAPC   H7R 4284   2.790   2.720   7.268  1.1049 -0.9174  4.8765
   32SAPC   H7S 4285   2.880   2.855   7.251  1.1606  0.0132  3.5668
   32SAPC   C28 4286   3.004   2.715   7.359  0.5497  0.1658 -0.2733
   32SAPC   H8R 4287   3.016   2.606   7.369 -0.4222 -0.2938 -3.4847
   32SAPC   C29 4288   3.072   2.800   7.440 -0.0086 -0.0709 -0.2199
   32SAPC   H9R 4289   3.146   2.764   7.513  1.0030  0.5319 -0.9404
   32SAPC  C210 4290   3.058   2.950   7.444  0.0484  0.8814  0.2684
   32SAPC  H10R 4291   2.991   2.961   7.532  1.1398  4.3024  0.7680
   32SAPC  H10S 4292   3.013   2.991   7.351  1.8964 -1.1224 -1.5739
   32SAPC  C211 4293   3.186   3.030   7.467 -0.5921  0.8944 -0.3080
   32SAPC  H11R 4294   3.253   3.028   7.380  2.7554  1.6550  2.1484
   32SAPC  C212 4295   3.224   3.108   7.572 -0.3640 -0.0874 -0.4109
   32SAPC  H12R 4296   3.324   3.154   7.573 -1.1337  1.6383  1.0102
   32SAPC  C213 4297   3.152   3.135   7.709 -0.8414 -0.0421 -0.2257
   32SAPC  H13R 4298   3.053   3.180   7.690  0.9868  3.3625 -2.1658
   32SAPC  H13S 4299   3.214   3.209   7.763 -2.2954  0.6574  0.5128
   32SAPC  C214 4300   3.112   3.012   7.797  0.5209 -0.4471  0.2020
   32SAPC  H14R 4301   3.074   2.926   7.740 -1.5848 -0.8044  2.0737
   32SAPC  C215 4302   3.116   2.997   7.932 -0.2910 -0.2236 -1.1786
   32SAPC  H15R 4303   3.084   2.903   7.978 -2.6994  0.3991 -1.5315
   32SAPC  C216 4304   3.183   3.106   8.014 -0.0390  0.6024 -0.1459
   32SAPC  H16R 4305   3.191   3.201   7.956 -1.7004  0.3175 -0.8744
   32SAPC  H16S 4306   3.280   3.082   8.061 -1.8367 -1.3617  2.6961
   32SAPC  C217 4307   3.089   3.133   8.139 -0.3986  0.4713  0.8018
   32SAPC  H17R 4308   2.990   3.167   8.102  0.1833 -0.6798 -1.9454
   32SAPC  H17S 4309   3.140   3.218   8.189  1.1228  0.7908 -1.2350
   32SAPC  C218 4310   3.082   3.011   8.232 -0.0457  1.1881 -0.8586
   32SAPC  H18R 4311   3.182   2.963   8.234 -1.5661 -2.1536 -1.4979
   32SAPC  H18S 4312   3.017   2.935   8.183  1.2313 -0.6292  0.2252
   32SAPC  C219 4313   3.020   3.032   8.373  0.1705  0.0629  0.6095
   32SAPC  H19R 4314   2.917   3.069   8.356  0.2517 -0.5076 -1.2774
   32SAPC  H19S 4315   3.063   3.113   8.436  0.7998 -0.9639  1.5130
   32SAPC  C220 4316   3.014   2.900   8.441  0.0481  0.0108  0.3184
   32SAPC  H20R 4317   3.107   2.843   8.422 -0.3184 -0.3854 -0.3329
   32SAPC  H20S 4318   2.931   2.841   8.396  0.0953 -0.0161  0.2681
   32SAPC  H20T 4319   2.998   2.886   8.550  0.7193 -1.2932  0.2623
   32SAPC   C33 4320   2.525   2.852   7.212 -0.4076 -0.0578  1.2314
   32SAPC   H3X 4321   2.613   2.871   7.147 -0.6782  1.6274  1.3484
   32SAPC   H3Y 4322   2.540   2.752   7.258  1.3232 -0.9130 -1.0761
   32SAPC   C34 4323   2.529   2.960   7.322  0.1483  0.2001  0.2602
   32SAPC   H4X 4324   2.427   2.991   7.356  0.4440 -0.3600  1.7163
   32SAPC   H4Y 4325   2.556   3.053   7.268  0.8572 -0.4793 -0.5504
   32SAPC   C35 4326   2.626   2.925   7.434 -0.3347 -0.3490  0.2945
   32SAPC   H5X 4327   2.733   2.924   7.403  0.2338  2.4287  1.9766
   32SAPC   H5Y 4328   2.607   2.820   7.465  0.1450 -0.9390 -1.3457
   32SAPC   C36 4329   2.599   3.017   7.546 -0.2225 -0.4435  0.0511
   32SAPC   H6X 4330   2.492   3.010   7.576  0.1204  0.3969  1.5449
   32SAPC   H6Y 4331   2.615   3.120   7.510 -1.0574 -0.9589 -1.8426
   32SAPC   C37 4332   2.683   2.977   7.675  0.2701 -0.5143 -0.0393
   32SAPC   H7X 4333   2.791   2.970   7.652  0.7949 -1.9462  2.7168
   32SAPC   H7Y 4334   2.639   2.879   7.704  0.8430 -0.2229  1.8822
   32SAPC   C38 4335   2.664   3.084   7.790 -0.0645  0.3700 -0.4806
   32SAPC   H8X 4336   2.558   3.115   7.805  0.0312  1.1299 -1.3238
   32SAPC   H8Y 4337   2.726   3.170   7.755  2.3165 -1.4594 -0.9063
   32SAPC   C39 4338   2.732   3.029   7.918 -0.3479  0.4299  1.2563
   32SAPC   H9X 4339   2.757   3.102   7.997 -0.6210 -0.7563  2.4520
   32SAPC   H9Y 4340   2.828   2.982   7.889 -0.1240  1.1733  0.7845
   32SAPC  C310 4341   2.661   2.907   7.977 -0.1737 -0.1159 -0.4697
   32SAPC  H10X 4342   2.660   2.818   7.911 -0.0956 -0.4392 -0.0352
   32SAPC  H10Y 4343   2.555   2.931   7.998 -0.0624  1.5224 -1.7031
   32SAPC  C311 4344   2.727   2.869   8.109  0.8468  0.5170 -0.6434
   32SAPC  H11X 4345   2.748   2.962   8.167  0.9501 -0.6231  1.1799
   32SAPC  H11Y 4346   2.820   2.811   8.099  2.0833  2.0418  1.5638
   32SAPC  C312 4347   2.637   2.779   8.191  0.7917  0.5899 -0.5167
   32SAPC  H12X 4348   2.606   2.703   8.116 -1.2907  0.5983  0.2915
   32SAPC  H12Y 4349   2.546   2.839   8.214  1.6560  2.2581 -1.4012
   32SAPC  C313 4350   2.694   2.704   8.319 -0.1694 -1.0489  1.0754
   32SAPC  H13X 4351   2.680   2.769   8.408  1.6158 -0.4711  0.9661
   32SAPC  H13Y 4352   2.798   2.665   8.308 -0.6309 -1.8768 -0.4735
   32SAPC  C314 4353   2.612   2.577   8.352  0.1989  0.0886 -0.2434
   32SAPC  H14X 4354   2.579   2.538   8.253  2.0623  0.0433 -0.8715
   32SAPC  H14Y 4355   2.519   2.596   8.409 -0.8116 -1.5860 -1.2892
   32SAPC  C315 4356   2.693   2.468   8.428  0.5569  0.3497 -0.1703
   32SAPC  H15X 4357   2.724   2.500   8.531 -0.8520  0.7024  0.1495
   32SAPC  H15Y 4358   2.784   2.444   8.369 -0.5665 -2.4082 -0.8423
   32SAPC  C316 4359   2.604   2.338   8.456  0.8920 -0.2517 -0.6242
   32SAPC  H16X 4360   2.594   2.276   8.365  0.8504 -0.6684 -0.3372
   32SAPC  H16Y 4361   2.503   2.355   8.500  0.6940  2.1225 -1.9293
   32SAPC  C317 4362   2.681   2.246   8.554 -0.3239  0.4996  0.3329
   32SAPC  H17X 4363   2.608   2.170   8.589 -1.2022  1.6919  1.1010
   32SAPC  H17Y 4364   2.712   2.298   8.648  0.2772 -0.9157  0.9480
   32SAPC  C318 4365   2.806   2.178   8.485 -0.2970 -0.2708 -0.0206
   32SAPC  H18X 4366   2.771   2.127   8.393 -1.8598  0.3844  0.1968
   32SAPC  H18Y 4367   2.851   2.094   8.542  0.2764  0.4236  0.5679
   32SAPC  H18Z 4368   2.883   2.256   8.466 -1.1759  0.6837  0.3115
   33POPC     N 4369   6.364   3.774  11.102  0.6559  0.5430  0.0364
   33POPC   C12 4370   6.267   3.830  10.998 -0.6866 -0.7080  0.0662
   33POPC  H12A 4371   6.267   3.936  11.017 -2.4056 -0.6410 -0.2200
   33POPC  H12B 4372   6.169   3.793  11.022 -1.3082 -0.8427 -2.5446
   33POPC   C13 4373   6.504   3.843  11.093 -0.3134 -0.2183  0.3155
   33POPC  H13A 4374   6.571   3.824  11.176  0.8688 -0.7576 -0.7332
   33POPC  H13B 4375   6.540   3.821  10.993 -0.4043 -1.2325  0.4953
   33POPC  H13C 4376   6.491   3.950  11.094  0.5945 -0.1068  0.6654
   33POPC   C14 4377   6.310   3.789  11.239  0.1426  0.3800  0.5237
   33POPC  H14A 4378   6.380   3.745  11.309  1.5695  1.6206 -0.1028
   33POPC  H14B 4379   6.305   3.889  11.281  2.9219  0.1760  1.3820
   33POPC  H14C 4380   6.219   3.734  11.259  0.4142 -1.3925 -2.8493
   33POPC   C15 4381   6.381   3.627  11.070  0.1516  0.0298 -0.3426
   33POPC  H15A 4382   6.420   3.619  10.970 -2.2046  0.0309 -1.2712
   33POPC  H15B 4383   6.296   3.563  11.088 -0.7696  1.6892  1.4560
   33POPC  H15C 4384   6.462   3.584  11.127 -1.2909 -2.9367 -0.4533
   33POPC   C11 4385   6.287   3.804  10.853 -0.0878  0.3218 -0.2806
   33POPC  H11A 4386   6.208   3.855  10.793  0.7596  1.3849 -0.5085
   33POPC  H11B 4387   6.279   3.697  10.826 -0.9891 -0.3397  2.5295
   33POPC     P 4388   6.533   3.766  10.742 -0.2879 -0.3768  0.2002
   33POPC   O13 4389   6.522   3.629  10.779  0.3569 -0.1289  0.3364
   33POPC   O14 4390   6.661   3.822  10.794  0.3334 -0.0539 -0.3913
   33POPC   O12 4391   6.416   3.854  10.812  0.4954 -0.5534  0.0899
   33POPC   O11 4392   6.518   3.783  10.588  0.8639  0.1886  0.2827
   33POPC    C1 4393   6.402   3.836  10.522  0.6568  0.7479  0.4129
   33POPC    HA 4394   6.319   3.861  10.591 -0.3254  1.0053 -0.8337
   33POPC    HB 4395   6.421   3.938  10.483 -2.0556  1.3604  0.6317
   33POPC    C2 4396   6.343   3.733  10.426 -0.6334 -0.0370  0.3032
   33POPC    HS 4397   6.356   3.634  10.476 -0.2736 -0.4324 -0.5642
   33POPC   O21 4398   6.414   3.732  10.305 -0.5511  0.1616  0.2751
   33POPC   C21 4399   6.538   3.683  10.300  0.1624  0.0925  0.5164
   33POPC   O22 4400   6.591   3.621  10.394  0.1191  0.4599  0.0301
   33POPC   C22 4401   6.604   3.708  10.171 -0.5986 -0.5263 -0.1298
   33POPC   H2R 4402   6.714   3.723  10.184 -0.7089 -0.3495  0.5734
   33POPC   H2S 4403   6.562   3.796  10.118 -2.6005 -0.4069  1.5995
   33POPC    C3 4404   6.190   3.761  10.391  0.8337  0.1068  0.4538
   33POPC    HX 4405   6.174   3.862  10.347  4.8293 -0.1471 -1.8560
   33POPC    HY 4406   6.141   3.773  10.490  0.0317 -0.5688  0.1417
   33POPC   O31 4407   6.132   3.653  10.315  0.3655  0.3617 -0.2236
   33POPC   C31 4408   6.126   3.675  10.188 -0.3648  0.0565 -0.1535
   33POPC   O32 4409   6.168   3.766  10.121  0.0037  0.3375  0.2947
   33POPC   C32 4410   6.056   3.552  10.120  0.0394  0.8502 -0.4068
   33POPC   H2X 4411   5.969   3.530  10.185  1.1409  0.4854  0.9744
   33POPC   H2Y 4412   6.129   3.469  10.127 -1.8203 -0.6401  2.0975
   33POPC   C23 4413   6.594   3.586  10.079  0.1511  0.0663 -0.0703
   33POPC   H3R 4414   6.643   3.504  10.136 -1.9516  0.9245  3.1052
   33POPC   H3S 4415   6.648   3.599   9.982 -1.8931 -1.5461 -1.4832
   33POPC   C24 4416   6.452   3.547  10.039 -0.5780  0.4250 -0.5133
   33POPC   H4R 4417   6.400   3.642  10.015  1.8333  1.8872 -0.0608
   33POPC   H4S 4418   6.399   3.502  10.126  0.2545 -1.6143 -1.0427
   33POPC   C25 4419   6.458   3.457   9.918  0.1391 -0.7627 -0.5911
   33POPC   H5R 4420   6.527   3.371   9.931 -0.9296 -1.6884 -0.9445
   33POPC   H5S 4421   6.496   3.510   9.828  1.3259 -1.4759 -0.5295
   33POPC   C26 4422   6.319   3.401   9.888 -0.1071 -0.7024  0.2255
   33POPC   H6R 4423   6.236   3.474   9.900  1.0204  0.9254 -1.5542
   33POPC   H6S 4424   6.298   3.318   9.959  0.5985 -0.1577  1.0817
   33POPC   C27 4425   6.300   3.334   9.752 -0.3436 -0.3553  0.1149
   33POPC   H7R 4426   6.369   3.247   9.742  1.5684  0.8291  2.5725
   33POPC   H7S 4427   6.341   3.402   9.674  1.2342 -1.5790 -0.1673
   33POPC   C28 4428   6.154   3.282   9.739 -0.8550 -0.6941 -0.0201
   33POPC   H8R 4429   6.081   3.362   9.760  0.9162  1.4392 -1.6398
   33POPC   H8S 4430   6.145   3.202   9.815  1.0673  0.4610  1.4988
   33POPC   C29 4431   6.133   3.245   9.595 -0.1761 -0.2367 -0.0550
   33POPC   H91 4432   6.193   3.304   9.525 -1.5748  0.8129 -0.3886
   33POPC  C210 4433   6.041   3.163   9.537  0.2878 -0.3911 -0.2898
   33POPC  H101 4434   6.045   3.145   9.428 -0.3831  0.5463 -0.4848
   33POPC  C211 4435   5.942   3.090   9.618  0.6706  0.2655 -0.1006
   33POPC  H11R 4436   5.866   3.169   9.640  0.5950 -0.4191  2.2595
   33POPC  H11S 4437   5.989   3.060   9.714  1.0306 -2.3116 -1.0322
   33POPC  C212 4438   5.884   2.966   9.554 -0.3615  0.3801  0.3400
   33POPC  H12R 4439   5.829   2.915   9.635  2.4496 -2.4686  0.5607
   33POPC  H12S 4440   5.960   2.892   9.521  0.2528  1.7611 -1.4456
   33POPC  C213 4441   5.788   3.009   9.439 -0.4190 -0.1443 -0.3147
   33POPC  H13R 4442   5.842   3.069   9.362  1.4112  0.1341  1.1467
   33POPC  H13S 4443   5.709   3.077   9.480  1.4466  1.3150  0.9771
   33POPC  C214 4444   5.717   2.897   9.363  0.5289  0.2430  1.0512
   33POPC  H14R 4445   5.633   2.854   9.421  1.8847  0.1114  2.9714
   33POPC  H14S 4446   5.789   2.815   9.341  0.1044  0.2400 -0.3614
   33POPC  C215 4447   5.670   2.942   9.224 -0.5796 -0.3468  0.7600
   33POPC  H15R 4448   5.765   2.959   9.169 -0.0726  0.0674  1.7533
   33POPC  H15S 4449   5.623   3.042   9.235 -2.1660 -0.8886 -0.9823
   33POPC  C216 4450   5.586   2.839   9.158 -0.1094 -0.5219 -0.5107
   33POPC  H16R 4451   5.503   2.808   9.226 -0.2476  0.8501 -0.0361
   33POPC  H16S 4452   5.644   2.748   9.134 -0.8474 -1.4420  1.1118
   33POPC  C217 4453   5.525   2.888   9.022 -0.7228  0.0863 -0.1559
   33POPC  H17R 4454   5.454   2.970   9.047 -2.1464 -0.3281 -2.6423
   33POPC  H17S 4455   5.480   2.802   8.969 -2.6243  0.8731  0.1368
   33POPC  C218 4456   5.631   2.950   8.936  0.6474  0.5966 -0.0086
   33POPC  H18R 4457   5.669   3.045   8.980 -0.7879  0.7675  0.8783
   33POPC  H18S 4458   5.602   2.970   8.831  0.8247 -2.1468 -0.6036
   33POPC  H18T 4459   5.716   2.878   8.934  0.9741  0.9759  0.0694
   33POPC   C33 4460   6.012   3.584   9.973 -0.3077 -0.0550 -0.3004
   33POPC   H3X 4461   5.989   3.489   9.920 -3.0010  0.7524 -0.6219
   33POPC   H3Y 4462   6.087   3.636   9.910 -1.8582  1.4907 -0.9125
   33POPC   C34 4463   5.875   3.662   9.983  0.0263  0.3675  0.2187
   33POPC   H4X 4464   5.903   3.769   9.994  0.0273  0.3373  0.5132
   33POPC   H4Y 4465   5.812   3.642  10.072 -0.0703  1.0402  0.3021
   33POPC   C35 4466   5.792   3.649   9.856 -0.3757 -0.4213  0.9873
   33POPC   H5X 4467   5.695   3.703   9.864 -0.4203 -0.3690  0.2031
   33POPC   H5Y 4468   5.769   3.541   9.850  2.3567 -1.0857  1.5151
   33POPC   C36 4469   5.867   3.691   9.724  0.1469  0.1307 -0.3370
   33POPC   H6X 4470   5.803   3.653   9.641 -0.0118 -1.0122  0.3038
   33POPC   H6Y 4471   5.960   3.631   9.707 -0.9831 -1.4602 -1.0588
   33POPC   C37 4472   5.909   3.838   9.720  0.3098  0.7823 -1.0966
   33POPC   H7X 4473   6.019   3.849   9.732  0.0879  1.6543  0.2578
   33POPC   H7Y 4474   5.864   3.880   9.812 -1.3037  1.2298 -2.0666
   33POPC   C38 4475   5.849   3.908   9.603 -0.0104 -0.2144 -0.1881
   33POPC   H8X 4476   5.861   4.017   9.620 -0.7125  0.0460 -1.3201
   33POPC   H8Y 4477   5.741   3.888   9.588 -0.3699 -0.0741  2.0236
   33POPC   C39 4478   5.913   3.861   9.468  0.5388 -0.5835 -0.4301
   33POPC   H9X 4479   5.956   3.758   9.473  0.2227 -0.6963 -0.0197
   33POPC   H9Y 4480   5.995   3.930   9.441  2.2024 -2.6963 -0.9234
   33POPC  C310 4481   5.802   3.872   9.363 -0.9868  0.1469 -0.8397
   33POPC  H10X 4482   5.762   3.975   9.356  0.8418  1.2550  3.3810
   33POPC  H10Y 4483   5.715   3.806   9.384 -0.1846 -1.2892 -1.9006
   33POPC  C311 4484   5.857   3.837   9.229 -0.4696  0.3479 -0.0389
   33POPC  H11X 4485   5.878   3.728   9.219 -0.1907  0.5044 -1.3180
   33POPC  H11Y 4486   5.958   3.882   9.224  0.0312 -0.5899  1.3595
   33POPC  C312 4487   5.764   3.871   9.106  0.7174 -0.5225 -0.0420
   33POPC  H12X 4488   5.782   3.978   9.084 -2.1217 -0.2066 -0.9497
   33POPC  H12Y 4489   5.656   3.853   9.126  0.1949 -0.5820 -2.7504
   33POPC  C313 4490   5.823   3.795   8.987 -0.1678  0.3892 -0.4223
   33POPC  H13X 4491   5.764   3.702   8.984  1.7211 -0.8427 -0.1290
   33POPC  H13Y 4492   5.929   3.771   9.008 -0.6250  0.5991  2.3085
   33POPC  C314 4493   5.834   3.872   8.856  0.8128 -0.3516  0.3815
   33POPC  H14X 4494   5.912   3.820   8.797  0.0429 -1.4855  0.3668
   33POPC  H14Y 4495   5.871   3.977   8.865  0.4797 -0.0753 -1.3960
   33POPC  C315 4496   5.704   3.865   8.784  0.0694 -0.3655  0.0541
   33POPC  H15X 4497   5.710   3.947   8.710  1.9498 -0.4828  0.0703
   33POPC  H15Y 4498   5.633   3.900   8.862  1.6277  1.0322  0.8757
   33POPC  C316 4499   5.669   3.732   8.727  0.3007 -0.0101  0.5645
   33POPC  H16X 4500   5.746   3.677   8.668 -0.9187  0.6157 -1.6482
   33POPC  H16Y 4501   5.585   3.750   8.657 -0.1905  0.4380  1.2594
   33POPC  H16Z 4502   5.634   3.665   8.809 -1.4998  1.0041  0.6392
   34POPC     N 4503   5.438   4.082  11.127 -0.6596 -0.2563 -0.1476
   34POPC   C12 4504   5.303   4.051  11.052  1.2382  0.0855 -0.1790
   34POPC  H12A 4505   5.219   4.093  11.106  1.3264 -0.3249  0.2816
   34POPC  H12B 4506   5.305   3.943  11.060 -1.4754 -0.1958 -2.5202
   34POPC   C13 4507   5.428   4.067  11.275 -0.2393 -0.6615  0.2150
   34POPC  H13A 4508   5.411   3.965  11.305  0.7899 -1.6238 -2.3057
   34POPC  H13B 4509   5.510   4.109  11.333 -0.2660 -1.0883  0.5555
   34POPC  H13C 4510   5.344   4.125  11.310  0.2528  1.6112 -2.2121
   34POPC   C14 4511   5.549   3.993  11.073 -0.2904 -0.4620 -1.0369
   34POPC  H14A 4512   5.559   3.982  10.966  0.4556 -0.2151 -1.0001
   34POPC  H14B 4513   5.645   4.016  11.118 -1.0636  0.3042  0.2795
   34POPC  H14C 4514   5.539   3.890  11.104 -0.6612  0.0456  0.5902
   34POPC   C15 4515   5.476   4.224  11.103 -0.3933  0.5851  0.2266
   34POPC  H15A 4516   5.418   4.291  11.165  2.4726  1.8662  1.6289
   34POPC  H15B 4517   5.458   4.248  10.999  0.0641  2.2909  0.5294
   34POPC  H15C 4518   5.580   4.241  11.126  0.4299 -3.4641 -0.1444
   34POPC   C11 4519   5.269   4.088  10.905 -0.1776 -0.1872  0.2411
   34POPC  H11A 4520   5.269   4.199  10.898  0.4457 -0.2416 -0.6150
   34POPC  H11B 4521   5.159   4.071  10.896  0.1300 -2.4639  0.4201
   34POPC     P 4522   5.420   4.111  10.694  0.3283  0.1590  0.0876
   34POPC   O13 4523   5.464   4.036  10.575 -0.0726 -0.3153 -0.4438
   34POPC   O14 4524   5.536   4.163  10.770 -0.0061  0.0683 -0.3842
   34POPC   O12 4525   5.341   4.014  10.798 -0.4336 -0.0241  0.2241
   34POPC   O11 4526   5.317   4.224  10.652 -0.1645 -0.1050 -0.2577
   34POPC    C1 4527   5.207   4.203  10.564 -0.8563  0.2326  0.0855
   34POPC    HA 4528   5.121   4.241  10.623  0.8182  1.4400  1.8408
   34POPC    HB 4529   5.182   4.098  10.538 -0.6625  0.4615 -1.0169
   34POPC    C2 4530   5.222   4.273  10.429 -0.3157  0.5154  0.0171
   34POPC    HS 4531   5.133   4.243  10.369  0.1154  0.2124 -0.4757
   34POPC   O21 4532   5.339   4.227  10.357 -0.1134 -0.1567  0.2636
   34POPC   C21 4533   5.316   4.107  10.283 -0.3211 -0.6209  0.3593
   34POPC   O22 4534   5.210   4.056  10.268  0.3135  0.1971 -0.5730
   34POPC   C22 4535   5.445   4.077  10.193  0.8649 -0.8091  0.5141
   34POPC   H2R 4536   5.518   4.042  10.269 -0.1178 -0.0856  1.8066
   34POPC   H2S 4537   5.477   4.169  10.139  2.1056 -0.6688  1.4699
   34POPC    C3 4538   5.236   4.421  10.458  0.1368  0.0449  0.0554
   34POPC    HX 4539   5.342   4.435  10.490 -0.0501  1.5153  0.0731
   34POPC    HY 4540   5.180   4.452  10.549  1.2390  2.4540 -0.0390
   34POPC   O31 4541   5.200   4.511  10.356 -0.0319 -0.3977  0.3949
   34POPC   C31 4542   5.308   4.559  10.282 -0.5076  0.2499  0.4273
   34POPC   O32 4543   5.422   4.542  10.318  0.0160  0.2276 -0.6507
   34POPC   C32 4544   5.259   4.639  10.160  0.0837 -1.6840  0.5945
   34POPC   H2X 4545   5.303   4.741  10.152 -1.8007 -0.9351 -0.3562
   34POPC   H2Y 4546   5.151   4.666  10.166  0.1949 -1.4072  1.4866
   34POPC   C23 4547   5.422   3.977  10.084  0.1847 -0.5085  0.7445
   34POPC   H3R 4548   5.371   3.886  10.122  0.5674 -0.8251  0.5043
   34POPC   H3S 4549   5.518   3.951  10.034 -0.0555  1.7662 -0.9889
   34POPC   C24 4550   5.330   4.020   9.963 -0.4074 -0.2008 -0.2086
   34POPC   H4R 4551   5.368   4.109   9.908 -0.2364 -0.0443  0.1576
   34POPC   H4S 4552   5.236   4.057  10.009  0.5335  0.4882  1.1954
   34POPC   C25 4553   5.293   3.912   9.860  0.1852  0.1222 -0.0723
   34POPC   H5R 4554   5.216   3.970   9.806 -1.0872  0.7585  2.3401
   34POPC   H5S 4555   5.252   3.831   9.923  1.3673  0.8316  1.6550
   34POPC   C26 4556   5.411   3.865   9.774  0.0945  0.0051  0.1124
   34POPC   H6R 4557   5.488   3.804   9.828  1.0134 -1.3790 -2.6780
   34POPC   H6S 4558   5.462   3.953   9.732  1.1917 -0.6857 -0.0360
   34POPC   C27 4559   5.368   3.775   9.657  0.9223 -0.2111  0.4212
   34POPC   H7R 4560   5.309   3.688   9.693  0.5712 -0.6448 -1.1725
   34POPC   H7S 4561   5.463   3.750   9.607  1.0875 -0.3402  0.7965
   34POPC   C28 4562   5.272   3.852   9.565 -0.3398  0.2939 -0.0368
   34POPC   H8R 4563   5.330   3.937   9.525 -0.9198 -0.9540 -3.6671
   34POPC   H8S 4564   5.185   3.885   9.627  0.2011  1.5502  0.0668
   34POPC   C29 4565   5.217   3.774   9.441 -0.8010 -0.3614 -0.5047
   34POPC   H91 4566   5.122   3.721   9.456 -1.9199  1.4891 -0.9559
   34POPC  C210 4567   5.276   3.774   9.321  0.5200  0.5269  0.0335
   34POPC  H101 4568   5.231   3.722   9.235 -0.6013  2.3027 -0.4590
   34POPC  C211 4569   5.408   3.831   9.271  0.5028 -0.4722 -0.1077
   34POPC  H11R 4570   5.447   3.762   9.193  0.2578  0.7313 -1.3101
   34POPC  H11S 4571   5.486   3.852   9.348 -1.1378  2.0467  0.9369
   34POPC  C212 4572   5.366   3.962   9.208 -0.6569  0.1476  1.1270
   34POPC  H12R 4573   5.449   4.012   9.153 -2.0768 -0.8344 -2.0474
   34POPC  H12S 4574   5.328   4.025   9.291 -0.2581 -0.1826  1.5642
   34POPC  C213 4575   5.250   3.956   9.103 -0.1134  0.2903 -0.0986
   34POPC  H13R 4576   5.233   4.060   9.066  0.9069  0.0191 -1.3824
   34POPC  H13S 4577   5.160   3.937   9.165  0.2001  1.9222  0.8794
   34POPC  C214 4578   5.273   3.859   8.988 -0.0608  0.0076  0.3143
   34POPC  H14R 4579   5.281   3.754   9.021  0.3431  0.1161  0.5576
   34POPC  H14S 4580   5.352   3.893   8.918 -1.4429 -0.0908 -1.3360
   34POPC  C215 4581   5.139   3.865   8.910  0.2153  0.3211  0.4056
   34POPC  H15R 4582   5.139   3.950   8.839 -1.2713  1.1467  1.3839
   34POPC  H15S 4583   5.048   3.863   8.973  0.7065 -0.0627  1.1057
   34POPC  C216 4584   5.122   3.756   8.804 -0.5277  0.1175 -0.0716
   34POPC  H16R 4585   5.029   3.771   8.746 -1.0802 -0.8390  0.5793
   34POPC  H16S 4586   5.090   3.668   8.863 -0.7443  0.0435 -0.2975
   34POPC  C217 4587   5.247   3.738   8.724  0.1700 -0.5832 -0.1594
   34POPC  H17R 4588   5.324   3.682   8.781 -1.0819 -1.8038  0.3575
   34POPC  H17S 4589   5.289   3.834   8.688 -0.1387 -1.7115 -3.7399
   34POPC  C218 4590   5.240   3.653   8.593  0.2929 -0.2184 -0.0326
   34POPC  H18R 4591   5.332   3.663   8.531 -0.4797  1.5494 -0.9168
   34POPC  H18S 4592   5.149   3.679   8.535  0.4398  1.0902  0.3022
   34POPC  H18T 4593   5.216   3.551   8.629  1.4275 -0.5398 -0.1544
   34POPC   C33 4594   5.282   4.571  10.024 -0.1484  0.2876 -0.8148
   34POPC   H3X 4595   5.389   4.542  10.021  0.0578  0.9262  0.3890
   34POPC   H3Y 4596   5.267   4.662   9.961  2.0491 -0.7842 -3.0057
   34POPC   C34 4597   5.177   4.465   9.999  0.0478 -0.0557 -0.3836
   34POPC   H4X 4598   5.074   4.501  10.022 -0.8894 -2.2713 -0.9317
   34POPC   H4Y 4599   5.188   4.382  10.072  1.2560 -1.1475 -1.7717
   34POPC   C35 4600   5.167   4.401   9.854  0.0348 -0.2855 -0.5673
   34POPC   H5X 4601   5.272   4.371   9.837 -0.3604 -0.2377 -3.1616
   34POPC   H5Y 4602   5.123   4.473   9.782 -1.0607  0.5984  0.9294
   34POPC   C36 4603   5.081   4.276   9.843 -0.3493 -0.2489  0.3987
   34POPC   H6X 4604   4.972   4.295   9.858 -0.2250  1.0446 -0.2776
   34POPC   H6Y 4605   5.111   4.207   9.925 -0.1743 -0.3206  0.2756
   34POPC   C37 4606   5.102   4.205   9.704 -0.0532  0.6427  0.1901
   34POPC   H7X 4607   5.052   4.108   9.723 -3.1569  1.7417 -1.8904
   34POPC   H7Y 4608   5.210   4.184   9.689  0.0511  1.2278  0.1185
   34POPC   C38 4609   5.027   4.267   9.590  0.0233  0.0912  0.1125
   34POPC   H8X 4610   5.041   4.377   9.584 -3.3376  0.5690  0.1495
   34POPC   H8Y 4611   4.920   4.241   9.605 -0.9366  1.7881 -3.3913
   34POPC   C39 4612   5.066   4.212   9.457  0.0662  0.7247  0.8228
   34POPC   H9X 4613   5.063   4.102   9.444 -1.9517  0.7046  1.2974
   34POPC   H9Y 4614   5.168   4.251   9.433  0.4827  1.0137  2.9302
   34POPC  C310 4615   4.965   4.262   9.350 -0.0559 -0.4824  0.0548
   34POPC  H10X 4616   4.971   4.373   9.345  0.9571 -0.5154  0.4473
   34POPC  H10Y 4617   4.858   4.238   9.369  0.0913 -0.7570  0.5356
   34POPC  C311 4618   5.004   4.201   9.212  1.0885 -0.6560 -0.8047
   34POPC  H11X 4619   5.011   4.091   9.223 -0.8668 -0.8154 -0.9329
   34POPC  H11Y 4620   5.105   4.245   9.198  1.4972 -1.5816 -0.8015
   34POPC  C312 4621   4.907   4.239   9.102  0.6272 -0.4624  0.1594
   34POPC  H12X 4622   4.886   4.348   9.108  2.6657 -0.0856  0.6878
   34POPC  H12Y 4623   4.816   4.182   9.131  0.8030 -1.7801 -1.7940
   34POPC  C313 4624   4.959   4.206   8.966 -0.1056 -0.2982 -0.5128
   34POPC  H13X 4625   4.963   4.097   8.948  0.3526 -0.2280 -0.8504
   34POPC  H13Y 4626   5.059   4.252   8.952 -0.3587  0.7075  0.7842
   34POPC  C314 4627   4.863   4.252   8.850  0.5872  0.8324  0.2732
   34POPC  H14X 4628   4.899   4.224   8.749 -1.2774 -1.5760  0.2301
   34POPC  H14Y 4629   4.860   4.362   8.860  1.9516  0.9075 -0.1117
   34POPC  C315 4630   4.715   4.208   8.875  0.0237 -1.0154 -0.6913
   34POPC  H15X 4631   4.648   4.252   8.797  0.4826  2.6462  0.8778
   34POPC  H15Y 4632   4.667   4.250   8.966 -0.6446  0.1146 -1.5515
   34POPC  C316 4633   4.704   4.058   8.878  0.2923  0.4048  0.1793
   34POPC  H16X 4634   4.762   4.010   8.960  2.3778  3.1256  0.3599
   34POPC  H16Y 4635   4.755   4.015   8.789 -1.6607  0.8597 -1.1771
   34POPC  H16Z 4636   4.597   4.032   8.893  0.4589  0.8910  2.3768
   35POPC     N 4637   4.092   2.190  11.251  0.4752  0.1877  0.4138
   35POPC   C12 4638   4.033   2.056  11.263  0.0761  0.5085 -0.4041
   35POPC  H12A 4639   3.926   2.070  11.262  0.2607  2.1305  1.1032
   35POPC  H12B 4640   4.052   2.017  11.362 -2.9849 -3.4197 -1.2146
   35POPC   C13 4641   4.238   2.185  11.287 -0.1794  0.3653  0.2862
   35POPC  H13A 4642   4.299   2.258  11.236  0.1774 -0.7371 -0.8765
   35POPC  H13B 4643   4.261   2.183  11.393 -0.5193 -1.3214  0.3328
   35POPC  H13C 4644   4.266   2.085  11.260 -1.5401  0.1943 -0.5452
   35POPC   C14 4645   4.078   2.232  11.102 -0.5152  0.2897 -0.3755
   35POPC  H14A 4646   3.978   2.224  11.061  0.0080 -2.5580 -1.2010
   35POPC  H14B 4647   4.114   2.334  11.094  0.0553  0.2219  1.1473
   35POPC  H14C 4648   4.143   2.171  11.042  0.5969  1.2658 -0.1772
   35POPC   C15 4649   4.032   2.297  11.339  0.0732  0.4684  0.3480
   35POPC  H15A 4650   4.040   2.275  11.444  0.8482 -0.8373  0.0230
   35POPC  H15B 4651   3.925   2.294  11.321 -0.0932  1.9048  0.9592
   35POPC  H15C 4652   4.067   2.397  11.317  1.2739 -0.0269  0.0385
   35POPC   C11 4653   4.078   1.952  11.162 -0.9419  0.7001  0.2479
   35POPC  H11A 4654   4.058   1.981  11.056 -0.1264  0.2785 -0.0201
   35POPC  H11B 4655   4.023   1.857  11.180  0.6445 -0.5271 -1.2327
   35POPC     P 4656   4.290   1.801  11.092  0.2570  0.1259  0.0910
   35POPC   O13 4657   4.183   1.720  11.029  0.7773 -0.4636 -0.2937
   35POPC   O14 4658   4.396   1.732  11.166 -0.1332 -0.4221 -1.0876
   35POPC   O12 4659   4.217   1.921  11.170 -0.1128 -0.0810 -0.0383
   35POPC   O11 4660   4.356   1.883  10.971  0.3261 -0.1447  0.2170
   35POPC    C1 4661   4.283   1.984  10.899  0.0161 -0.4531 -0.4210
   35POPC    HA 4662   4.311   2.080  10.945 -0.7094 -1.0537  1.2866
   35POPC    HB 4663   4.174   1.972  10.911 -0.1423  0.3354 -1.0228
   35POPC    C2 4664   4.342   1.986  10.746  0.1376 -0.3997  0.3263
   35POPC    HS 4665   4.315   1.886  10.707  0.3492  0.4744 -2.1757
   35POPC   O21 4666   4.487   1.996  10.730 -0.5203  0.6460 -0.3905
   35POPC   C21 4667   4.558   1.884  10.741  0.2665  0.4707 -0.3793
   35POPC   O22 4668   4.513   1.770  10.757  0.1330 -0.2690 -0.2819
   35POPC   C22 4669   4.706   1.919  10.749 -0.2071 -0.0416 -0.7466
   35POPC   H2R 4670   4.737   1.862  10.839 -1.7158 -0.5819 -0.5400
   35POPC   H2S 4671   4.729   2.026  10.761 -0.2242 -0.1498  0.2992
   35POPC    C3 4672   4.273   2.084  10.654  0.3250  0.2890 -0.4638
   35POPC    HX 4673   4.289   2.185  10.697  3.2395 -1.1684  2.0977
   35POPC    HY 4674   4.168   2.051  10.664  1.2015 -2.4203  0.1924
   35POPC   O31 4675   4.324   2.066  10.521 -0.2421 -0.5109  0.4907
   35POPC   C31 4676   4.387   2.168  10.459  0.2464  0.9631  0.2086
   35POPC   O32 4677   4.423   2.269  10.515 -0.5965  0.5394  0.2462
   35POPC   C32 4678   4.414   2.128  10.317  0.4543  0.6702 -0.0536
   35POPC   H2X 4679   4.334   2.174  10.256 -0.1113 -0.2042  0.0138
   35POPC   H2Y 4680   4.407   2.018  10.306 -0.2312  0.8606 -1.5722
   35POPC   C23 4681   4.781   1.852  10.631 -0.3121  0.4695 -0.7939
   35POPC   H3R 4682   4.747   1.747  10.639  0.4650  0.3617  1.2670
   35POPC   H3S 4683   4.891   1.860  10.643 -0.3053 -0.8371  0.0166
   35POPC   C24 4684   4.734   1.913  10.495  0.2924  0.1330 -0.5534
   35POPC   H4R 4685   4.782   2.011  10.479  0.0331  0.8341  2.6305
   35POPC   H4S 4686   4.624   1.915  10.481  0.4246 -1.0337 -1.9669
   35POPC   C25 4687   4.788   1.825  10.382  0.1874 -0.1889  0.3177
   35POPC   H5R 4688   4.887   1.787  10.414  0.9977  0.6292 -1.1341
   35POPC   H5S 4689   4.788   1.894  10.295  0.9149  1.4266  1.5840
   35POPC   C26 4690   4.704   1.703  10.335 -0.1487 -0.1319  0.8936
   35POPC   H6R 4691   4.613   1.733  10.279 -0.9492 -1.6046  1.3663
   35POPC   H6S 4692   4.677   1.640  10.422 -0.4296 -1.2950 -0.0186
   35POPC   C27 4693   4.783   1.609  10.241  0.8008 -0.8921  0.4638
   35POPC   H7R 4694   4.726   1.514  10.231  1.8766 -1.4187 -0.8660
   35POPC   H7S 4695   4.880   1.594  10.294  0.2836  1.3479  2.0685
   35POPC   C28 4696   4.797   1.663  10.097 -1.3335  0.2688 -0.5098
   35POPC   H8R 4697   4.873   1.743  10.106 -0.8965  0.2265 -3.3957
   35POPC   H8S 4698   4.705   1.721  10.074 -1.4378  0.8580  1.3682
   35POPC   C29 4699   4.848   1.570   9.993 -0.1693 -0.1446  0.3901
   35POPC   H91 4700   4.922   1.491  10.014  1.4749  0.3639 -3.1040
   35POPC  C210 4701   4.816   1.566   9.860  1.1209  0.5389  0.0984
   35POPC  H101 4702   4.863   1.489   9.798  0.9915  0.3962  0.1786
   35POPC  C211 4703   4.714   1.648   9.779  0.4351  0.4247  0.4294
   35POPC  H11R 4704   4.755   1.750   9.762  0.0457  0.2153 -1.8937
   35POPC  H11S 4705   4.623   1.660   9.843  1.0262  1.8751  1.0319
   35POPC  C212 4706   4.668   1.593   9.643  0.0270  0.1908  0.1957
   35POPC  H12R 4707   4.584   1.649   9.597 -1.4147 -0.6621  1.7171
   35POPC  H12S 4708   4.625   1.492   9.659  0.7229 -0.0291  0.7324
   35POPC  C213 4709   4.772   1.573   9.535 -0.4674 -0.0971  0.4266
   35POPC  H13R 4710   4.837   1.489   9.566  0.5538  0.5273  0.0283
   35POPC  H13S 4711   4.834   1.664   9.524  1.2244 -0.7694  3.7661
   35POPC  C214 4712   4.721   1.521   9.400  0.2263 -0.0667  0.3588
   35POPC  H14R 4713   4.625   1.571   9.373 -0.4547 -0.3832  2.1257
   35POPC  H14S 4714   4.687   1.419   9.427  0.7364 -0.6015 -0.9845
   35POPC  C215 4715   4.817   1.532   9.282  0.2007  0.1962 -0.6227
   35POPC  H15R 4716   4.920   1.504   9.315  0.4755 -0.7334 -2.2629
   35POPC  H15S 4717   4.819   1.642   9.262 -1.7552  0.5366  0.8611
   35POPC  C216 4718   4.771   1.463   9.155  0.3709 -0.6140 -0.1875
   35POPC  H16R 4719   4.734   1.361   9.181  0.3190 -0.2704  1.1361
   35POPC  H16S 4720   4.861   1.456   9.091  0.1090  1.9590 -0.9029
   35POPC  C217 4721   4.663   1.542   9.084  0.0591 -0.1014 -0.2297
   35POPC  H17R 4722   4.703   1.646   9.079  0.7445 -0.4127 -1.0755
   35POPC  H17S 4723   4.576   1.543   9.154  0.7870 -1.0796  0.7031
   35POPC  C218 4724   4.614   1.488   8.954  0.1836 -0.3546  0.1022
   35POPC  H18R 4725   4.612   1.377   8.964  2.4030 -0.6689 -2.2902
   35POPC  H18S 4726   4.680   1.509   8.868  1.6676  0.5754  1.4554
   35POPC  H18T 4727   4.511   1.528   8.938  0.7294  0.3412 -1.8011
   35POPC   C33 4728   4.545   2.178  10.269 -0.5198  0.2475  0.7649
   35POPC   H3X 4729   4.624   2.183  10.347  2.4118 -2.6796 -1.8561
   35POPC   H3Y 4730   4.523   2.284  10.242 -0.2420  0.0041 -0.4562
   35POPC   C34 4731   4.596   2.094  10.154 -0.3630  0.3226 -0.1427
   35POPC   H4X 4732   4.610   1.987  10.180  2.1002  0.3038 -1.4290
   35POPC   H4Y 4733   4.695   2.137  10.127 -0.4553  0.6484  0.0279
   35POPC   C35 4734   4.518   2.110  10.026 -0.3248 -0.2515  0.9645
   35POPC   H5X 4735   4.499   2.219  10.014 -1.5218 -0.6540 -1.0044
   35POPC   H5Y 4736   4.415   2.070  10.040 -0.4669 -0.0795  0.4179
   35POPC   C36 4737   4.601   2.053   9.906  0.0943 -0.0425  0.2300
   35POPC   H6X 4738   4.616   1.943   9.913 -2.1582 -0.4361 -0.7168
   35POPC   H6Y 4739   4.702   2.099   9.915 -0.3986  0.9696  0.6954
   35POPC   C37 4740   4.550   2.089   9.768  0.0768 -0.0144  0.1731
   35POPC   H7X 4741   4.563   2.197   9.747 -1.2886 -0.0535 -0.9007
   35POPC   H7Y 4742   4.441   2.068   9.777 -0.5451  3.3047  0.9972
   35POPC   C38 4743   4.608   2.007   9.654  0.1726 -0.1522 -0.0772
   35POPC   H8X 4744   4.602   1.898   9.672 -0.8272  0.0117  0.6840
   35POPC   H8Y 4745   4.718   2.021   9.654  0.2600 -0.8211 -0.7439
   35POPC   C39 4746   4.543   2.044   9.515 -0.8432 -0.0756  0.6195
   35POPC   H9X 4747   4.564   2.153   9.510  1.8065 -0.6702 -3.0494
   35POPC   H9Y 4748   4.433   2.032   9.508 -0.6095 -1.3089 -1.0476
   35POPC  C310 4749   4.608   1.952   9.411  0.4992 -0.3867  0.8903
   35POPC  H10X 4750   4.565   1.851   9.428 -1.2372  0.6087  2.5270
   35POPC  H10Y 4751   4.718   1.944   9.422  0.8081 -0.2505 -1.7506
   35POPC  C311 4752   4.582   2.010   9.269  0.6852 -0.9049  0.0209
   35POPC  H11X 4753   4.641   2.103   9.255 -0.3376 -0.3858 -0.9161
   35POPC  H11Y 4754   4.478   2.044   9.247  0.5208 -1.4514 -0.0625
   35POPC  C312 4755   4.601   1.914   9.152  0.1822  0.6636  0.3384
   35POPC  H12X 4756   4.537   1.823   9.165 -0.8041  0.9887 -2.0779
   35POPC  H12Y 4757   4.706   1.876   9.149 -0.5417 -1.4782  1.1397
   35POPC  C313 4758   4.577   1.976   9.023 -0.0265  0.3704  0.3244
   35POPC  H13X 4759   4.643   2.059   8.991  0.3317  0.3375  0.9718
   35POPC  H13Y 4760   4.479   2.028   9.038 -0.2139 -0.0028  0.4049
   35POPC  C314 4761   4.584   1.876   8.905 -0.2654  0.4727 -0.2518
   35POPC  H14X 4762   4.562   1.778   8.952  1.9032 -1.6619 -3.4784
   35POPC  H14Y 4763   4.689   1.876   8.870 -0.2639  0.1543 -0.2444
   35POPC  C315 4764   4.490   1.882   8.780 -0.0292 -0.2688  0.1696
   35POPC  H15X 4765   4.387   1.862   8.817  0.2532  0.2881  1.2757
   35POPC  H15Y 4766   4.515   1.817   8.694  0.4034  0.3211 -0.1557
   35POPC  C316 4767   4.491   2.020   8.722 -0.0765  0.8263  0.1192
   35POPC  H16X 4768   4.441   2.026   8.623  1.0788  1.1033 -0.4562
   35POPC  H16Y 4769   4.591   2.065   8.706 -1.3132  2.9124 -2.0336
   35POPC  H16Z 4770   4.433   2.090   8.786 -0.1098 -0.0821  1.0971
   36POPC     N 4771   4.211   0.241  10.878 -0.7871 -0.1673 -0.1084
   36POPC   C12 4772   4.237   0.101  10.832 -0.7852 -0.5302  0.4566
   36POPC  H12A 4773   4.262   0.085  10.728 -1.1909 -0.8909  0.4156
   36POPC  H12B 4774   4.138   0.060  10.842 -0.4432 -1.5167 -0.1204
   36POPC   C13 4775   4.122   0.327  10.790  0.3177  0.1306  0.5021
   36POPC  H13A 4776   4.136   0.310  10.684  1.0569 -1.6797  0.8825
   36POPC  H13B 4777   4.024   0.293  10.819  1.4668 -1.2318  2.9141
   36POPC  H13C 4778   4.132   0.433  10.808  1.0174 -0.5608  4.5354
   36POPC   C14 4779   4.147   0.222  11.015  0.5669  0.5882 -0.6280
   36POPC  H14A 4780   4.211   0.207  11.101 -0.4580 -2.2118 -0.2931
   36POPC  H14B 4781   4.104   0.315  11.049  1.7266  1.0013 -0.2549
   36POPC  H14C 4782   4.067   0.149  11.015 -1.1700  2.4336  1.2179
   36POPC   C15 4783   4.336   0.323  10.887 -0.2189  0.1365  1.2811
   36POPC  H15A 4784   4.419   0.266  10.926  0.5521  2.0998  2.6080
   36POPC  H15B 4785   4.325   0.413  10.946  0.9160  0.5357  0.8858
   36POPC  H15C 4786   4.368   0.353  10.789  2.5096  0.9153  2.3572
   36POPC   C11 4787   4.336   0.008  10.917 -0.4112 -0.0237 -0.0688
   36POPC  H11A 4788   4.313  -0.094  10.879 -1.7490 -0.2663  1.3384
   36POPC  H11B 4789   4.298   0.007  11.022 -0.8626  0.9006 -0.2185
   36POPC     P 4790   4.546  -0.020  10.776 -0.5249 -0.5269 -0.4028
   36POPC   O13 4791   4.503  -0.162  10.754 -0.3432  0.2158 -0.8694
   36POPC   O14 4792   4.689   0.025  10.794  0.1930  0.0983  0.3921
   36POPC   O12 4793   4.473   0.037  10.903 -0.1139  0.4614 -0.1022
   36POPC   O11 4794   4.482   0.060  10.664 -0.1906  0.1324  0.0744
   36POPC    C1 4795   4.547   0.166  10.599 -0.4161 -0.1048 -0.4315
   36POPC    HA 4796   4.642   0.202  10.644 -0.1838 -1.7429  0.4311
   36POPC    HB 4797   4.480   0.254  10.596 -2.0290 -1.3249 -1.4930
   36POPC    C2 4798   4.577   0.133  10.448 -0.2886  0.3475  0.8125
   36POPC    HS 4799   4.479   0.086  10.422  0.4434 -0.5014 -0.4650
   36POPC   O21 4800   4.687   0.047  10.438  0.2742 -0.0752 -0.2532
   36POPC   C21 4801   4.671  -0.054  10.350 -0.6948  0.4067 -0.4210
   36POPC   O22 4802   4.575  -0.077  10.279 -0.4796  0.2433  0.6285
   36POPC   C22 4803   4.802  -0.145  10.349 -0.0325 -0.4819  0.7394
   36POPC   H2R 4804   4.820  -0.182  10.452  0.6175 -0.8617  0.4887
   36POPC   H2S 4805   4.887  -0.076  10.333 -0.7827  0.5070  0.9777
   36POPC    C3 4806   4.599   0.266  10.368  0.5440  0.9805 -0.4556
   36POPC    HX 4807   4.707   0.291  10.379  0.5129  0.6616  0.7052
   36POPC    HY 4808   4.537   0.351  10.402  0.6331  1.6028 -1.8179
   36POPC   O31 4809   4.571   0.251  10.226 -0.6168 -0.6515 -0.2611
   36POPC   C31 4810   4.442   0.268  10.181 -0.7265  0.6948  0.1311
   36POPC   O32 4811   4.346   0.292  10.249 -0.4777 -0.5645 -0.5555
   36POPC   C32 4812   4.446   0.260  10.031  0.1487 -0.2831 -0.5266
   36POPC   H2X 4813   4.489   0.162  10.002 -0.2495 -0.3326 -0.9569
   36POPC   H2Y 4814   4.512   0.337   9.986  1.5062  0.1054  2.0093
   36POPC   C23 4815   4.797  -0.247  10.236 -0.7605  0.1300  0.8928
   36POPC   H3R 4816   4.701  -0.302  10.229 -0.0285 -0.9453 -0.9995
   36POPC   H3S 4817   4.883  -0.317  10.248  0.4649  1.1716 -1.4374
   36POPC   C24 4818   4.822  -0.185  10.094 -0.0652 -0.0013 -0.4802
   36POPC   H4R 4819   4.930  -0.191  10.071  0.1318 -1.2044  0.7298
   36POPC   H4S 4820   4.793  -0.078  10.106 -3.1469 -0.9470  1.2385
   36POPC   C25 4821   4.738  -0.253   9.978 -0.0991  0.2892  0.2597
   36POPC   H5R 4822   4.628  -0.241   9.986 -0.2227 -0.7703  0.1992
   36POPC   H5S 4823   4.753  -0.363   9.974 -0.0091  0.3087  0.0715
   36POPC   C26 4824   4.769  -0.189   9.841  0.6743  0.4203 -0.3678
   36POPC   H6R 4825   4.879  -0.181   9.834  0.7478  0.2180  0.4564
   36POPC   H6S 4826   4.725  -0.087   9.842 -0.5180 -0.0832  0.6437
   36POPC   C27 4827   4.684  -0.256   9.727 -0.1992 -0.2651 -0.4161
   36POPC   H7R 4828   4.661  -0.176   9.654 -3.7096 -0.7972  0.0411
   36POPC   H7S 4829   4.584  -0.290   9.761  0.1690 -0.6498  0.2885
   36POPC   C28 4830   4.755  -0.372   9.657 -0.4481 -0.0418  0.2004
   36POPC   H8R 4831   4.846  -0.325   9.613 -0.2367  1.1558  1.9040
   36POPC   H8S 4832   4.689  -0.398   9.571  0.5331  1.1844 -0.9447
   36POPC   C29 4833   4.788  -0.495   9.744 -0.0151  0.0325  0.1973
   36POPC   H91 4834   4.709  -0.524   9.815  0.1421 -2.3258 -0.5379
   36POPC  C210 4835   4.888  -0.586   9.737 -0.1047  0.3940 -0.4255
   36POPC  H101 4836   4.895  -0.661   9.817 -0.6544 -0.1250 -0.8570
   36POPC  C211 4837   5.001  -0.576   9.634  0.4695  0.5295  0.0785
   36POPC  H11R 4838   5.096  -0.578   9.691  0.9055  2.6662 -0.5162
   36POPC  H11S 4839   5.005  -0.475   9.586  0.2836 -0.4976 -2.1444
   36POPC  C212 4840   4.986  -0.691   9.530  0.8158  0.0288 -0.6413
   36POPC  H12R 4841   4.964  -0.784   9.587  1.1343  0.7536  0.6666
   36POPC  H12S 4842   5.088  -0.702   9.486  0.7490 -3.1491 -0.1410
   36POPC  C213 4843   4.884  -0.675   9.420  0.3064  0.1029  0.1748
   36POPC  H13R 4844   4.889  -0.571   9.379 -0.0913  0.3007  0.6192
   36POPC  H13S 4845   4.779  -0.679   9.458  0.5444 -0.7135  0.7501
   36POPC  C214 4846   4.889  -0.775   9.309  0.2502  0.0041 -0.4951
   36POPC  H14R 4847   4.838  -0.869   9.339 -1.7024  1.1356 -0.1864
   36POPC  H14S 4848   4.988  -0.803   9.267  2.0085 -0.1672  3.4771
   36POPC  C215 4849   4.821  -0.725   9.175  0.2135 -0.6258 -0.2270
   36POPC  H15R 4850   4.875  -0.633   9.146 -1.1728 -0.3721 -2.0703
   36POPC  H15S 4851   4.720  -0.684   9.198  0.3581 -0.6920  0.5469
   36POPC  C216 4852   4.831  -0.821   9.062  0.7239  0.5498  0.3938
   36POPC  H16R 4853   4.772  -0.908   9.100 -2.0034  0.6571 -3.3363
   36POPC  H16S 4854   4.936  -0.857   9.059  0.5783  0.1927 -0.8117
   36POPC  C217 4855   4.766  -0.775   8.931  0.3933  0.1785 -0.7065
   36POPC  H17R 4856   4.663  -0.744   8.955  0.8535 -0.4074  2.1330
   36POPC  H17S 4857   4.755  -0.861   8.861 -0.8074 -1.1634  1.1161
   36POPC  C218 4858   4.835  -0.663   8.854  0.0338 -0.5983 -0.3084
   36POPC  H18R 4859   4.778  -0.633   8.763 -1.2370 -0.5059  0.5026
   36POPC  H18S 4860   4.936  -0.699   8.827 -0.4370 -1.0065 -1.5683
   36POPC  H18T 4861   4.852  -0.565   8.904  2.2861 -1.5362  0.8315
   36POPC   C33 4862   4.310   0.277   9.963  0.1302  0.0877  0.4878
   36POPC   H3X 4863   4.266   0.376   9.987 -0.7261 -0.2610  0.3730
   36POPC   H3Y 4864   4.244   0.193   9.993 -0.5373 -0.0330 -1.2520
   36POPC   C34 4865   4.312   0.267   9.813 -0.4086  0.9618  0.8954
   36POPC   H4X 4866   4.355   0.362   9.776  0.6724 -0.2987 -1.1729
   36POPC   H4Y 4867   4.210   0.256   9.770  0.6756 -0.4431 -1.4329
   36POPC   C35 4868   4.390   0.137   9.770 -0.1261 -0.4188  0.1495
   36POPC   H5X 4869   4.331   0.047   9.798 -2.1053  0.1619 -1.9941
   36POPC   H5Y 4870   4.493   0.139   9.812  0.3865 -2.9919 -0.8963
   36POPC   C36 4871   4.406   0.130   9.612 -0.7028  0.9364 -0.0941
   36POPC   H6X 4872   4.490   0.065   9.581 -0.4496  1.1408  0.1617
   36POPC   H6Y 4873   4.431   0.234   9.582  1.3730  0.8570  1.3138
   36POPC   C37 4874   4.283   0.071   9.539  0.1262 -0.7960 -0.2069
   36POPC   H7X 4875   4.203   0.146   9.555 -0.3158 -1.3318  0.1098
   36POPC   H7Y 4876   4.272  -0.029   9.586 -1.2000 -1.0775 -1.0895
   36POPC   C38 4877   4.301   0.039   9.382  0.6440 -0.4357  0.3338
   36POPC   H8X 4878   4.202   0.003   9.344  0.9289 -1.0572  0.1713
   36POPC   H8Y 4879   4.365  -0.051   9.370 -0.4563 -1.6006  2.8405
   36POPC   C39 4880   4.366   0.156   9.302 -0.5570 -0.4211  0.0956
   36POPC   H9X 4881   4.472   0.168   9.332 -0.8043  1.5010  0.2276
   36POPC   H9Y 4882   4.305   0.242   9.335 -1.2496 -1.2325  0.9710
   36POPC  C310 4883   4.358   0.138   9.158 -0.2430  0.9302 -0.4935
   36POPC  H10X 4884   4.250   0.120   9.143  0.0452 -0.3057 -1.1999
   36POPC  H10Y 4885   4.425   0.056   9.124 -1.7346 -1.1217  1.4055
   36POPC  C311 4886   4.406   0.259   9.059  0.3515 -0.6794 -1.1482
   36POPC  H11X 4887   4.515   0.274   9.076  0.4972 -1.1766 -1.6426
   36POPC  H11Y 4888   4.350   0.353   9.076  2.3510  0.7556 -2.3740
   36POPC  C312 4889   4.398   0.213   8.912  0.2089 -0.1328  0.4207
   36POPC  H12X 4890   4.309   0.267   8.873 -0.6820 -0.9472  1.2990
   36POPC  H12Y 4891   4.381   0.104   8.900  3.3488 -0.7478  1.1734
   36POPC  C313 4892   4.526   0.234   8.828  1.1872  0.4627 -0.4518
   36POPC  H13X 4893   4.567   0.337   8.826  0.6216  0.6629 -1.9345
   36POPC  H13Y 4894   4.510   0.213   8.720  1.1137 -0.2187 -0.3153
   36POPC  C314 4895   4.645   0.156   8.875  0.0680  0.4207 -0.6603
   36POPC  H14X 4896   4.633   0.045   8.873  1.0630  0.2254  2.3714
   36POPC  H14Y 4897   4.666   0.172   8.983 -1.7286  1.5134 -0.4482
   36POPC  C315 4898   4.775   0.174   8.786 -0.2513  0.2067  0.1103
   36POPC  H15X 4899   4.797   0.283   8.786  1.5470 -0.1350  0.9969
   36POPC  H15Y 4900   4.738   0.154   8.683  1.2477  1.9436 -0.7895
   36POPC  C316 4901   4.901   0.101   8.826  1.3412  0.6248  0.2674
   36POPC  H16X 4902   4.916   0.101   8.936 -1.1202  0.6867  0.6270
   36POPC  H16Y 4903   4.996   0.147   8.791  1.5968 -0.6940 -0.8332
   36POPC  H16Z 4904   4.893  -0.003   8.786 -1.9804  0.6936  0.5929
   37POPC     N 4905   3.140   3.059   6.438  0.3160 -0.6430 -0.0654
   37POPC   C12 4906   3.099   3.090   6.583 -0.5773  0.0165 -0.1919
   37POPC  H12A 4907   3.139   3.021   6.655  0.5288 -1.4430 -2.1445
   37POPC  H12B 4908   2.994   3.084   6.606 -1.0872  1.5123 -1.9794
   37POPC   C13 4909   3.289   3.079   6.428  0.7193 -0.5352 -0.5601
   37POPC  H13A 4910   3.335   3.015   6.502 -1.9585  1.9888  3.5425
   37POPC  H13B 4911   3.327   3.064   6.328 -0.2231 -0.5115 -0.9223
   37POPC  H13C 4912   3.315   3.180   6.457  1.6435 -1.2414  1.1277
   37POPC   C14 4913   3.107   2.916   6.416  0.7149  0.2869  0.5489
   37POPC  H14A 4914   3.000   2.908   6.408  0.8392 -0.6249 -0.2454
   37POPC  H14B 4915   3.166   2.869   6.339 -0.1927 -0.3454  0.2274
   37POPC  H14C 4916   3.133   2.876   6.513 -0.3839 -2.1640 -0.1513
   37POPC   C15 4917   3.073   3.146   6.335 -0.3935 -0.0284  0.1285
   37POPC  H15A 4918   2.966   3.160   6.335 -0.1499  1.9386 -0.5129
   37POPC  H15B 4919   3.102   3.097   6.243  2.6467  0.5474  0.6962
   37POPC  H15C 4920   3.115   3.245   6.327 -0.7573  0.2529  1.6489
   37POPC   C11 4921   3.156   3.225   6.642 -0.2558 -0.4349 -0.1967
   37POPC  H11A 4922   3.088   3.254   6.725  1.6384  2.7665  0.2938
   37POPC  H11B 4923   3.133   3.293   6.557  0.6245 -0.3814 -0.3977
   37POPC     P 4924   3.337   3.134   6.805  0.0310  0.1221  0.0000
   37POPC   O13 4925   3.489   3.134   6.809 -0.0948  0.0622 -0.5829
   37POPC   O14 4926   3.278   2.999   6.803 -0.1445  0.2123 -0.2248
   37POPC   O12 4927   3.292   3.212   6.673 -0.1948 -1.1818  0.3289
   37POPC   O11 4928   3.284   3.208   6.929  0.6465 -0.0454 -0.7525
   37POPC    C1 4929   3.261   3.348   6.944 -0.4545 -0.1513  0.0975
   37POPC    HA 4930   3.200   3.353   7.036  1.5645 -1.4471  1.5590
   37POPC    HB 4931   3.210   3.397   6.858 -1.4678 -1.8398 -0.2833
   37POPC    C2 4932   3.387   3.416   6.988 -1.1506  0.4276  0.9741
   37POPC    HS 4933   3.471   3.396   6.918  0.1728 -0.1239  2.6902
   37POPC   O21 4934   3.421   3.380   7.125  0.0175  0.2339  0.2729
   37POPC   C21 4935   3.553   3.365   7.148 -0.9510  0.9074  0.8407
   37POPC   O22 4936   3.644   3.377   7.065 -0.5203 -0.1634  0.1130
   37POPC   C22 4937   3.561   3.330   7.302 -0.0729  0.1143  0.8245
   37POPC   H2R 4938   3.520   3.227   7.313  0.8287 -0.2240  1.0328
   37POPC   H2S 4939   3.502   3.405   7.360 -0.9367  0.6062 -0.6575
   37POPC    C3 4940   3.380   3.573   6.970  0.9609 -0.3591 -0.8283
   37POPC    HX 4941   3.339   3.591   6.868  3.6103  0.2189 -1.8193
   37POPC    HY 4942   3.481   3.618   6.964 -0.0025  1.7935 -1.5619
   37POPC   O31 4943   3.293   3.638   7.066  0.2909 -0.0429  0.2023
   37POPC   C31 4944   3.351   3.679   7.185 -0.2557 -0.4667 -0.0314
   37POPC   O32 4945   3.468   3.679   7.209  0.0946  0.5082  0.3939
   37POPC   C32 4946   3.244   3.745   7.276 -0.2048 -0.0524  0.2984
   37POPC   H2X 4947   3.155   3.682   7.258  0.9083 -1.4650 -0.3921
   37POPC   H2Y 4948   3.230   3.846   7.232  2.2624 -0.7563 -2.2984
   37POPC   C23 4949   3.706   3.311   7.333  0.6047 -0.3462 -0.3121
   37POPC   H3R 4950   3.748   3.412   7.310 -0.5268  0.2400  0.1750
   37POPC   H3S 4951   3.743   3.229   7.268 -0.6140 -1.8428  0.8533
   37POPC   C24 4952   3.746   3.288   7.480  0.7055  0.1516  0.8625
   37POPC   H4R 4953   3.856   3.302   7.484  0.6720  0.3006  1.3412
   37POPC   H4S 4954   3.719   3.186   7.514 -1.7547  0.0391 -1.3024
   37POPC   C25 4955   3.689   3.398   7.576  0.1339  0.5811 -0.2082
   37POPC   H5R 4956   3.578   3.396   7.563  0.2827 -1.7384 -1.4330
   37POPC   H5S 4957   3.719   3.502   7.551 -0.5475  0.7011 -0.5367
   37POPC   C26 4958   3.717   3.376   7.724 -0.4342 -0.1566 -0.2469
   37POPC   H6R 4959   3.817   3.330   7.742  0.0166  1.0406  0.3651
   37POPC   H6S 4960   3.642   3.302   7.760 -1.3197  0.7990 -0.1151
   37POPC   C27 4961   3.711   3.498   7.807  0.1937  0.8808  0.1863
   37POPC   H7R 4962   3.605   3.529   7.821 -0.9335 -2.3147 -0.8775
   37POPC   H7S 4963   3.769   3.582   7.762 -0.6354  0.2293 -2.2013
   37POPC   C28 4964   3.769   3.472   7.942 -0.3234 -0.3471 -0.8122
   37POPC   H8R 4965   3.880   3.465   7.938 -0.3244 -0.3191 -0.9107
   37POPC   H8S 4966   3.747   3.366   7.967 -1.2198 -0.5561 -2.3916
   37POPC   C29 4967   3.724   3.563   8.052  0.2250  0.0281 -0.3989
   37POPC   H91 4968   3.615   3.569   8.069  0.3712  1.3606  0.1726
   37POPC  C210 4969   3.800   3.631   8.138 -0.0507  0.1487 -0.5492
   37POPC  H101 4970   3.751   3.695   8.213 -0.5539  0.1567 -0.8879
   37POPC  C211 4971   3.950   3.638   8.135 -0.3018  0.6562 -0.0949
   37POPC  H11R 4972   3.978   3.735   8.089 -1.6115  0.7738 -0.6578
   37POPC  H11S 4973   4.006   3.567   8.071  3.0042  2.3537  0.7805
   37POPC  C212 4974   4.013   3.623   8.269  0.2146 -0.6041 -1.2464
   37POPC  H12R 4975   4.004   3.518   8.307 -1.3608  0.7091  2.2704
   37POPC  H12S 4976   3.948   3.674   8.343  0.0661 -0.6144 -1.3688
   37POPC  C213 4977   4.161   3.669   8.278  0.1210  0.0347  0.0554
   37POPC  H13R 4978   4.164   3.773   8.240  0.3514  0.4411  1.1755
   37POPC  H13S 4979   4.218   3.604   8.208 -1.3110 -0.1595 -0.9532
   37POPC  C214 4980   4.224   3.669   8.421 -0.4497 -0.3410  0.3051
   37POPC  H14R 4981   4.188   3.577   8.472 -1.4596 -0.8031 -1.1927
   37POPC  H14S 4982   4.186   3.762   8.468  1.9338 -0.4359  2.4547
   37POPC  C215 4983   4.378   3.676   8.407  0.1628  0.4969  0.6129
   37POPC  H15R 4984   4.407   3.764   8.346  0.6121 -2.9841 -4.4851
   37POPC  H15S 4985   4.424   3.583   8.368  0.3096  0.7858  0.0952
   37POPC  C216 4986   4.441   3.695   8.548  0.0959 -0.3301  0.7015
   37POPC  H16R 4987   4.405   3.619   8.620  2.1602 -0.1971  1.9081
   37POPC  H16S 4988   4.410   3.795   8.584 -0.5817 -0.3082  0.0771
   37POPC  C217 4989   4.594   3.686   8.552  0.2774  0.8713 -0.2279
   37POPC  H17R 4990   4.642   3.727   8.461  1.1862  1.5942  0.5611
   37POPC  H17S 4991   4.629   3.581   8.550 -2.2204  0.0353 -1.4749
   37POPC  C218 4992   4.661   3.763   8.667  0.2661  0.4465  0.3410
   37POPC  H18R 4993   4.636   3.871   8.674 -1.4211  0.0721  0.3454
   37POPC  H18S 4994   4.771   3.771   8.663  0.7035 -2.9072  3.2100
   37POPC  H18T 4995   4.619   3.719   8.760 -0.6295  0.2758 -0.1324
   37POPC   C33 4996   3.284   3.742   7.420 -0.2028 -0.1420 -0.3763
   37POPC   H3X 4997   3.214   3.801   7.483 -0.3753 -0.5582 -0.1703
   37POPC   H3Y 4998   3.380   3.793   7.437  1.1630 -1.4672 -3.6766
   37POPC   C34 4999   3.282   3.599   7.485  1.0768 -0.2797 -0.6556
   37POPC   H4X 5000   3.340   3.536   7.415 -0.0115 -1.4919 -0.4915
   37POPC   H4Y 5001   3.179   3.556   7.480  0.9960 -0.0320 -1.1159
   37POPC   C35 5002   3.357   3.599   7.621 -0.7424  0.4979  0.0871
   37POPC   H5X 5003   3.467   3.612   7.607 -0.5350  0.2712  1.4409
   37POPC   H5Y 5004   3.352   3.498   7.666 -1.1824  0.6952  0.4832
   37POPC   C36 5005   3.289   3.682   7.733 -0.0808  0.0541  0.7011
   37POPC   H6X 5006   3.179   3.665   7.730 -0.3226  1.4156  1.1823
   37POPC   H6Y 5007   3.326   3.784   7.709 -0.0607 -0.2040 -0.3724
   37POPC   C37 5008   3.329   3.640   7.876  0.0180  0.0097  0.5815
   37POPC   H7X 5009   3.439   3.626   7.887 -0.2732 -1.8115  1.3106
   37POPC   H7Y 5010   3.277   3.546   7.905  0.9136 -0.5927  0.2495
   37POPC   C38 5011   3.295   3.744   7.979 -0.0989 -0.7485  0.3445
   37POPC   H8X 5012   3.188   3.769   7.964  0.4466  0.3970 -1.9535
   37POPC   H8Y 5013   3.353   3.838   7.964 -0.1105 -0.9913 -1.3483
   37POPC   C39 5014   3.307   3.697   8.121  0.7310 -0.5394 -0.1503
   37POPC   H9X 5015   3.414   3.671   8.135  0.2312 -2.2472  0.6712
   37POPC   H9Y 5016   3.246   3.606   8.138 -0.0903 -0.6188 -3.3399
   37POPC  C310 5017   3.270   3.807   8.222 -0.0331 -0.3873 -0.0674
   37POPC  H10X 5018   3.176   3.852   8.185  0.8217  2.0640  0.6256
   37POPC  H10Y 5019   3.347   3.887   8.228 -1.2034  0.8702 -1.3390
   37POPC  C311 5020   3.251   3.752   8.361  0.3441  0.1017 -0.4596
   37POPC  H11X 5021   3.334   3.693   8.403  0.2400 -0.2849 -0.7970
   37POPC  H11Y 5022   3.159   3.689   8.365 -0.7144  1.2957 -3.6316
   37POPC  C312 5023   3.219   3.865   8.469  0.6101 -0.0217 -0.7893
   37POPC  H12X 5024   3.111   3.890   8.461  0.6484  0.4292  0.0342
   37POPC  H12Y 5025   3.284   3.949   8.439  2.4783 -0.6974  1.2156
   37POPC  C313 5026   3.258   3.816   8.612 -0.1678 -0.0699  0.2430
   37POPC  H13X 5027   3.246   3.896   8.688 -1.7229  1.3513 -1.4672
   37POPC  H13Y 5028   3.362   3.775   8.609  0.8043  1.9962  3.0294
   37POPC  C314 5029   3.176   3.687   8.650  0.1776 -0.5672  0.3215
   37POPC  H14X 5030   3.206   3.592   8.602 -0.7454 -0.0078 -1.4215
   37POPC  H14Y 5031   3.072   3.707   8.616 -0.0880 -1.5944  0.5240
   37POPC  C315 5032   3.161   3.650   8.798  0.3321  0.0923 -0.7642
   37POPC  H15X 5033   3.084   3.571   8.813 -0.1585  1.2085  3.1277
   37POPC  H15Y 5034   3.119   3.726   8.867 -0.4097 -3.6184  3.0235
   37POPC  C316 5035   3.286   3.585   8.835 -0.5274  0.5426 -0.4302
   37POPC  H16X 5036   3.373   3.654   8.831 -2.8185  3.7114  1.8761
   37POPC  H16Y 5037   3.298   3.493   8.775 -3.4282  0.0689 -0.3498
   37POPC  H16Z 5038   3.281   3.550   8.941  2.5222  1.8015  0.1767
   38POPC     N 5039   4.757   6.422   6.098 -0.6281  0.0158 -0.0514
   38POPC   C12 5040   4.764   6.357   6.233 -0.2006 -0.1644 -0.3035
   38POPC  H12A 5041   4.669   6.306   6.248 -0.7941  0.5803 -1.4530
   38POPC  H12B 5042   4.778   6.436   6.305 -3.9830 -0.2874  0.6998
   38POPC   C13 5043   4.891   6.484   6.065 -0.0168 -0.3283  0.1725
   38POPC  H13A 5044   4.908   6.503   5.960 -0.5268 -1.6449 -0.1573
   38POPC  H13B 5045   4.892   6.579   6.117 -2.0091 -0.9899  1.4563
   38POPC  H13C 5046   4.978   6.430   6.098  0.4812  0.1026 -0.4091
   38POPC   C14 5047   4.719   6.322   5.994 -0.8433  0.4633  0.5139
   38POPC  H14A 5048   4.793   6.243   5.991  2.1114  3.0226  1.9063
   38POPC  H14B 5049   4.629   6.271   6.022 -0.9716 -0.7275 -1.9349
   38POPC  H14C 5050   4.717   6.357   5.892  0.2691  2.4662  1.1326
   38POPC   C15 5051   4.655   6.534   6.089 -0.3867 -0.3785  1.0313
   38POPC  H15A 5052   4.565   6.508   6.143  1.1339 -1.1662  3.2228
   38POPC  H15B 5053   4.619   6.555   5.989  1.2424 -2.4456 -0.0459
   38POPC  H15C 5054   4.694   6.627   6.128  1.8244  0.6086 -3.2465
   38POPC   C11 5055   4.870   6.248   6.257 -0.0572 -0.3886 -0.2778
   38POPC  H11A 5056   4.866   6.175   6.173  0.5058  0.7768 -1.3320
   38POPC  H11B 5057   4.843   6.192   6.349  2.1612  0.6168  1.0217
   38POPC     P 5058   5.029   6.379   6.408  0.1059 -0.2182  0.2937
   38POPC   O13 5059   4.936   6.490   6.426  0.0714  0.5680 -0.0098
   38POPC   O14 5060   5.175   6.416   6.414  0.3891 -0.0400 -0.1743
   38POPC   O12 5061   5.006   6.297   6.273 -0.0799 -0.2802 -0.0646
   38POPC   O11 5062   5.002   6.270   6.525 -0.4521  0.1806  0.1583
   38POPC    C1 5063   5.072   6.141   6.514  0.5434 -0.3672 -0.2798
   38POPC    HA 5064   5.141   6.147   6.428 -0.8035  2.0350 -1.2481
   38POPC    HB 5065   4.992   6.068   6.487 -2.3435  2.8130 -0.6570
   38POPC    C2 5066   5.129   6.112   6.657 -0.6734  0.1683  0.1178
   38POPC    HS 5067   5.174   6.010   6.656 -1.7026 -0.2956  0.9436
   38POPC   O21 5068   5.043   6.140   6.768 -0.5842  1.2195  0.7664
   38POPC   C21 5069   4.966   6.037   6.799 -1.2399  0.5174  0.2861
   38POPC   O22 5070   4.948   5.938   6.728 -0.1994  0.3353 -0.0799
   38POPC   C22 5071   4.913   6.061   6.932 -0.5289 -0.0880  0.1151
   38POPC   H2R 5072   4.822   5.999   6.949 -2.3456  2.5663  0.2865
   38POPC   H2S 5073   4.897   6.168   6.955  0.6010  0.5646 -2.0019
   38POPC    C3 5074   5.242   6.222   6.691  0.1716  0.0143 -0.1557
   38POPC    HX 5075   5.190   6.316   6.720  1.4898  0.5556  0.4638
   38POPC    HY 5076   5.298   6.245   6.598 -1.3479  0.6372 -0.9410
   38POPC   O31 5077   5.322   6.205   6.814  0.2474 -0.2526 -0.0974
   38POPC   C31 5078   5.417   6.121   6.804 -1.2467  0.4651  0.2321
   38POPC   O32 5079   5.433   6.053   6.704  0.5364 -0.0205 -0.0571
   38POPC   C32 5080   5.505   6.110   6.923  0.5710 -0.1944 -0.0775
   38POPC   H2X 5081   5.578   6.192   6.910  0.5697  0.1626  1.9681
   38POPC   H2Y 5082   5.558   6.012   6.914  0.5342 -0.0257 -2.4407
   38POPC   C23 5083   5.013   6.013   7.047  0.0618 -0.4465  0.6610
   38POPC   H3R 5084   5.114   6.059   7.040 -0.4593  0.5266 -0.6366
   38POPC   H3S 5085   5.038   5.905   7.037  1.7255 -0.0486  0.4505
   38POPC   C24 5086   4.951   6.040   7.188 -0.2000  0.4105 -0.0660
   38POPC   H4R 5087   4.895   5.952   7.224 -0.3114  0.5793  0.1772
   38POPC   H4S 5088   4.881   6.127   7.184  0.3283  0.8764  0.7859
   38POPC   C25 5089   5.061   6.087   7.290 -0.3587 -0.7888 -0.2885
   38POPC   H5R 5090   5.085   6.192   7.263  0.6125 -1.1876 -0.9847
   38POPC   H5S 5091   5.153   6.028   7.271  0.4921  0.6763 -0.7830
   38POPC   C26 5092   5.018   6.083   7.434  0.8597  0.2315 -0.5528
   38POPC   H6R 5093   4.985   5.979   7.457  1.3904  0.0558 -0.5826
   38POPC   H6S 5094   4.931   6.150   7.450 -0.0501 -0.5669 -2.0778
   38POPC   C27 5095   5.128   6.124   7.530 -0.0504  0.0808 -0.6765
   38POPC   H7R 5096   5.165   6.226   7.505  2.0048 -0.2423  0.9047
   38POPC   H7S 5097   5.217   6.058   7.525 -1.5324 -2.2281  1.9394
   38POPC   C28 5098   5.076   6.142   7.677  0.2179 -0.3877  0.7469
   38POPC   H8R 5099   4.973   6.183   7.672  0.8972  1.6713  2.8233
   38POPC   H8S 5100   5.139   6.217   7.730  1.1549  0.4832 -1.5009
   38POPC   C29 5101   5.068   6.009   7.745 -0.0965 -0.4497  0.0662
   38POPC   H91 5102   5.011   5.936   7.686 -0.9580  1.3956 -1.4174
   38POPC  C210 5103   5.132   5.973   7.855 -0.1827  0.2572  0.5601
   38POPC  H101 5104   5.112   5.869   7.885 -1.0968 -0.0993 -1.1885
   38POPC  C211 5105   5.229   6.056   7.938  0.0066  0.6635  0.3293
   38POPC  H11R 5106   5.230   6.163   7.907 -0.3257  0.2056 -1.3580
   38POPC  H11S 5107   5.334   6.024   7.921 -0.8591 -1.1685 -1.9060
   38POPC  C212 5108   5.211   6.067   8.091 -0.1329  0.0985 -0.1532
   38POPC  H12R 5109   5.104   6.089   8.115 -0.5238 -1.5835 -0.2458
   38POPC  H12S 5110   5.282   6.145   8.124  1.4864 -1.4335  0.0331
   38POPC  C213 5111   5.250   5.939   8.166 -0.4763  0.0030 -0.6312
   38POPC  H13R 5112   5.356   5.907   8.151 -0.6908 -0.1360 -1.9311
   38POPC  H13S 5113   5.181   5.858   8.134 -1.3443  0.7508 -0.6719
   38POPC  C214 5114   5.245   5.965   8.321  0.0876 -0.2490 -0.3201
   38POPC  H14R 5115   5.138   5.974   8.347 -0.1145  1.8799 -1.7001
   38POPC  H14S 5116   5.303   6.057   8.346  0.1602 -0.6977  1.1886
   38POPC  C215 5117   5.313   5.850   8.402  0.4147 -0.6027 -0.1719
   38POPC  H15R 5118   5.419   5.853   8.369  0.2488  2.9003 -0.5934
   38POPC  H15S 5119   5.264   5.753   8.382 -1.4737  0.0234  1.3159
   38POPC  C216 5120   5.322   5.862   8.551  0.0069  0.6676  0.0185
   38POPC  H16R 5121   5.251   5.790   8.599  1.6242 -1.3381 -0.4982
   38POPC  H16S 5122   5.296   5.964   8.586  2.1519  1.1980  0.1150
   38POPC  C217 5123   5.464   5.818   8.598  0.4309  0.2481  0.3575
   38POPC  H17R 5124   5.456   5.821   8.709  0.2947  1.7127  0.3178
   38POPC  H17S 5125   5.533   5.898   8.564 -0.8875  1.0518 -0.4854
   38POPC  C218 5126   5.509   5.680   8.560 -0.0283  0.2063 -0.4909
   38POPC  H18R 5127   5.517   5.666   8.450 -1.1812 -0.1642 -0.5311
   38POPC  H18S 5128   5.453   5.597   8.607 -1.5556 -0.0838 -2.7233
   38POPC  H18T 5129   5.614   5.664   8.592  0.3890 -0.1615 -1.9841
   38POPC   C33 5130   5.436   6.105   7.061  0.1744 -0.5930 -0.0746
   38POPC   H3X 5131   5.376   6.012   7.077 -0.0841 -0.3958  0.1114
   38POPC   H3Y 5132   5.360   6.185   7.077  0.0827 -0.9930  1.6332
   38POPC   C34 5133   5.539   6.122   7.175  0.1215  0.3119  0.2056
   38POPC   H4X 5134   5.589   6.216   7.145  1.3816 -0.7434 -1.0746
   38POPC   H4Y 5135   5.610   6.038   7.190  1.3171  1.1071 -0.9650
   38POPC   C35 5136   5.475   6.136   7.308  0.4335  0.2277 -0.0349
   38POPC   H5X 5137   5.396   6.061   7.332 -0.2116  0.7861 -0.3833
   38POPC   H5Y 5138   5.426   6.236   7.315 -1.7986 -0.7129 -1.4818
   38POPC   C36 5139   5.579   6.132   7.426 -0.5244 -0.3301  0.5002
   38POPC   H6X 5140   5.672   6.182   7.391 -0.4366 -0.4737  0.5263
   38POPC   H6Y 5141   5.604   6.026   7.448  1.9115 -0.1746 -1.2947
   38POPC   C37 5142   5.540   6.213   7.554  0.3364 -0.4418 -0.2477
   38POPC   H7X 5143   5.432   6.208   7.580  0.1625 -0.8929 -1.0211
   38POPC   H7Y 5144   5.570   6.319   7.542 -0.2106 -0.4699 -2.1409
   38POPC   C38 5145   5.596   6.149   7.678  0.0721  0.1846 -0.5682
   38POPC   H8X 5146   5.701   6.119   7.660  0.0340  0.5675 -1.4487
   38POPC   H8Y 5147   5.537   6.059   7.707  1.7917 -0.5578  0.7271
   38POPC   C39 5148   5.597   6.254   7.788  0.0454 -0.5706  0.2368
   38POPC   H9X 5149   5.507   6.320   7.792  0.6042  0.1496  1.2313
   38POPC   H9Y 5150   5.682   6.322   7.766  0.1996 -1.0341 -0.6037
   38POPC  C310 5151   5.634   6.198   7.928 -0.3580 -0.0206  0.6506
   38POPC  H10X 5152   5.554   6.122   7.945 -0.7501  0.2671  0.0670
   38POPC  H10Y 5153   5.622   6.287   7.993 -1.3462  0.0005  0.4367
   38POPC  C311 5154   5.771   6.134   7.953 -0.3270 -0.1700 -0.2293
   38POPC  H11X 5155   5.804   6.070   7.869 -0.3434  1.4010 -1.4495
   38POPC  H11Y 5156   5.765   6.066   8.041  1.2086  0.3550  0.2991
   38POPC  C312 5157   5.871   6.239   7.983 -0.9071 -0.2633  0.6473
   38POPC  H12X 5158   5.821   6.296   8.066  1.0260  3.0080 -0.3405
   38POPC  H12Y 5159   5.879   6.310   7.898  0.8407  0.2350  1.2100
   38POPC  C313 5160   6.004   6.181   8.009 -0.1934  0.3183  0.6070
   38POPC  H13X 5161   6.060   6.163   7.914  0.8326  0.2876  1.2067
   38POPC  H13Y 5162   5.998   6.079   8.051  1.5446 -0.9309 -2.0712
   38POPC  C314 5163   6.096   6.254   8.100 -0.1964  0.5673  0.9702
   38POPC  H14X 5164   6.111   6.355   8.057  0.2778 -0.3286 -1.0108
   38POPC  H14Y 5165   6.195   6.203   8.102  0.5473  1.9578  0.4122
   38POPC  C315 5166   6.051   6.262   8.250 -0.0995 -0.2019 -0.1398
   38POPC  H15X 5167   6.011   6.162   8.276  2.8359 -1.5784 -0.7863
   38POPC  H15Y 5168   5.966   6.331   8.272 -0.0157 -0.7307  1.9817
   38POPC  C316 5169   6.162   6.310   8.350  0.5827 -0.2699 -0.1239
   38POPC  H16X 5170   6.219   6.392   8.302  0.4761 -0.5465 -0.7193
   38POPC  H16Y 5171   6.232   6.225   8.365  0.0985 -0.3245  1.9620
   38POPC  H16Z 5172   6.117   6.347   8.445 -1.2247 -2.4345 -0.0942
   39POPC     N 5173   1.558   3.232   5.944 -0.3303 -0.3631 -0.6343
   39POPC   C12 5174   1.664   3.325   6.005  0.3865  0.0556 -0.7939
   39POPC  H12A 5175   1.638   3.428   5.982  0.0277 -0.1775 -1.4370
   39POPC  H12B 5176   1.753   3.313   5.944 -0.0059  1.3947 -1.6747
   39POPC   C13 5177   1.593   3.082   5.940  0.8122 -0.6112 -0.6552
   39POPC  H13A 5178   1.517   3.014   5.906 -1.4353  1.3675  0.2351
   39POPC  H13B 5179   1.683   3.072   5.881  2.3194  1.3529  1.1992
   39POPC  H13C 5180   1.627   3.051   6.037  0.0404 -0.9392 -0.4856
   39POPC   C14 5181   1.425   3.245   6.007  0.5651 -0.1538 -0.0917
   39POPC  H14A 5182   1.354   3.171   5.972  0.3777 -0.1884  0.3553
   39POPC  H14B 5183   1.436   3.226   6.113 -0.0958 -0.6776 -0.1108
   39POPC  H14C 5184   1.389   3.345   5.987 -0.9293 -1.0917 -2.3259
   39POPC   C15 5185   1.537   3.265   5.797  0.2149 -0.1633  0.7429
   39POPC  H15A 5186   1.478   3.351   5.769  1.1612  0.1922 -0.1975
   39POPC  H15B 5187   1.503   3.175   5.747  2.5703 -1.7310  1.8635
   39POPC  H15C 5188   1.636   3.285   5.759 -0.3337 -0.7753 -1.0845
   39POPC   C11 5189   1.696   3.319   6.155  0.5057 -0.7838 -0.0601
   39POPC  H11A 5190   1.606   3.345   6.214  0.8192 -2.7788  1.3419
   39POPC  H11B 5191   1.778   3.388   6.184  0.5203 -0.5506 -0.6324
   39POPC     P 5192   1.726   3.128   6.330  0.0914  0.3373 -0.1770
   39POPC   O13 5193   1.844   3.026   6.347  0.3499  0.4073  0.3371
   39POPC   O14 5194   1.587   3.082   6.347  0.3190  0.5035 -0.0582
   39POPC   O12 5195   1.745   3.196   6.193 -0.2884  0.3472 -0.1290
   39POPC   O11 5196   1.745   3.242   6.440  0.1249  0.1752  0.0344
   39POPC    C1 5197   1.871   3.285   6.503  0.3319  0.0349  0.4847
   39POPC    HA 5198   1.894   3.390   6.476  1.7951 -1.3419 -4.0734
   39POPC    HB 5199   1.958   3.232   6.457 -1.4930  0.5474 -3.7610
   39POPC    C2 5200   1.853   3.286   6.656  0.1307  0.1632 -0.1902
   39POPC    HS 5201   1.809   3.185   6.673 -0.3128  0.3242 -0.3772
   39POPC   O21 5202   1.766   3.396   6.689 -0.0877  0.2227 -0.1145
   39POPC   C21 5203   1.676   3.370   6.786  0.6188 -0.6082  0.4618
   39POPC   O22 5204   1.648   3.258   6.827  0.0672 -0.2198 -0.0135
   39POPC   C22 5205   1.603   3.491   6.832  0.2336 -1.2070 -0.7953
   39POPC   H2R 5206   1.512   3.456   6.884  0.2287 -1.9092 -1.2686
   39POPC   H2S 5207   1.582   3.554   6.742  0.5141 -0.5748 -0.4200
   39POPC    C3 5208   1.987   3.302   6.728  0.0478 -0.0892  0.1579
   39POPC    HX 5209   2.026   3.400   6.696 -1.1491  0.2622 -0.2517
   39POPC    HY 5210   2.057   3.218   6.706 -1.4675 -1.4054  0.2565
   39POPC   O31 5211   1.965   3.322   6.870 -0.4300 -0.2724  0.2749
   39POPC   C31 5212   2.006   3.234   6.955  0.7629 -0.0530 -0.1542
   39POPC   O32 5213   2.032   3.115   6.923  0.7165  0.6109  0.0310
   39POPC   C32 5214   2.007   3.288   7.098 -0.1167  0.7030 -0.8316
   39POPC   H2X 5215   2.059   3.386   7.098 -3.2668  2.4435  0.4839
   39POPC   H2Y 5216   1.900   3.304   7.124 -0.1641  0.2015 -0.7207
   39POPC   C23 5217   1.667   3.583   6.940  0.3852 -0.5447 -0.5420
   39POPC   H3R 5218   1.744   3.640   6.882  0.8719  0.1669  0.7903
   39POPC   H3S 5219   1.721   3.534   7.023  1.0940 -0.2036 -0.7892
   39POPC   C24 5220   1.565   3.669   7.018  0.5955  0.5702 -0.3840
   39POPC   H4R 5221   1.488   3.603   7.064  0.0443  0.0266 -2.0628
   39POPC   H4S 5222   1.510   3.738   6.950  0.3743  0.2451 -0.5326
   39POPC   C25 5223   1.617   3.774   7.120 -0.4878 -0.3966  0.0742
   39POPC   H5R 5224   1.690   3.843   7.074 -0.2335  0.5603  1.8721
   39POPC   H5S 5225   1.660   3.719   7.207 -0.2884  0.9697  0.8539
   39POPC   C26 5226   1.502   3.859   7.172  0.0181 -0.6702 -0.1585
   39POPC   H6R 5227   1.444   3.789   7.236  0.2860  0.7893  1.7002
   39POPC   H6S 5228   1.439   3.887   7.084 -2.3235  2.5555  2.4285
   39POPC   C27 5229   1.548   3.980   7.244 -0.1869 -0.1976 -0.1501
   39POPC   H7R 5230   1.596   4.042   7.165 -0.4412 -0.2636 -0.3530
   39POPC   H7S 5231   1.622   3.959   7.325 -1.0947  0.4962  0.8865
   39POPC   C28 5232   1.433   4.058   7.306 -0.6215  0.5666 -0.6046
   39POPC   H8R 5233   1.374   3.993   7.374 -1.2808  1.0903 -0.6754
   39POPC   H8S 5234   1.355   4.071   7.228 -0.4975  0.7451 -0.6995
   39POPC   C29 5235   1.473   4.186   7.374  0.2830  0.1327  0.2514
   39POPC   H91 5236   1.458   4.269   7.303  2.5300  0.7109  0.4170
   39POPC  C210 5237   1.524   4.206   7.490  0.0422 -0.2232  0.1188
   39POPC  H101 5238   1.524   4.308   7.531 -0.2545  0.2793 -1.1354
   39POPC  C211 5239   1.560   4.106   7.598  0.2540 -0.0910  0.2335
   39POPC  H11R 5240   1.650   4.137   7.655  1.6128  0.5157 -2.1659
   39POPC  H11S 5241   1.569   4.007   7.549 -0.6724  0.4107 -0.9672
   39POPC  C212 5242   1.445   4.091   7.698 -0.3133 -0.4252  0.5669
   39POPC  H12R 5243   1.462   3.989   7.739  0.4829  0.2381  1.9091
   39POPC  H12S 5244   1.341   4.091   7.657 -0.4392  0.4769  0.8588
   39POPC  C213 5245   1.432   4.206   7.810 -0.6635 -0.1502 -0.6229
   39POPC  H13R 5246   1.337   4.181   7.861  1.2989 -1.5789  2.5253
   39POPC  H13S 5247   1.420   4.306   7.762  0.7660 -0.9567 -2.7755
   39POPC  C214 5248   1.543   4.215   7.917 -0.2092  0.4284 -0.5538
   39POPC  H14R 5249   1.541   4.310   7.974  0.8170  0.4669 -0.5768
   39POPC  H14S 5250   1.637   4.202   7.859 -0.5741 -2.6969 -0.5223
   39POPC  C215 5251   1.541   4.104   8.027  0.1822  0.0462  0.1346
   39POPC  H15R 5252   1.563   4.007   7.978 -3.5608 -0.1271 -1.3533
   39POPC  H15S 5253   1.441   4.105   8.077  0.7710  0.8277  1.3287
   39POPC  C216 5254   1.652   4.141   8.126  0.4538  0.2416  0.0611
   39POPC  H16R 5255   1.641   4.232   8.188  0.7330  0.6957 -0.5482
   39POPC  H16S 5256   1.740   4.153   8.059 -0.9101 -0.3039 -1.8876
   39POPC  C217 5257   1.687   4.023   8.210  0.5392 -1.0160  0.1311
   39POPC  H17R 5258   1.731   3.934   8.160  1.1477 -1.0073  0.6455
   39POPC  H17S 5259   1.590   3.992   8.256  0.2148 -0.8286 -0.4177
   39POPC  C218 5260   1.789   4.056   8.316 -0.2752  0.5421 -0.1940
   39POPC  H18R 5261   1.870   4.120   8.275  1.3011 -2.0792 -1.2881
   39POPC  H18S 5262   1.832   3.961   8.354  0.0564  1.9935  3.3209
   39POPC  H18T 5263   1.745   4.110   8.403  0.2495 -2.1067  1.7617
   39POPC   C33 5264   2.060   3.190   7.202  0.2673 -1.0006 -0.3899
   39POPC   H3X 5265   2.165   3.156   7.193  0.2043 -1.7435  1.4158
   39POPC   H3Y 5266   2.001   3.096   7.208 -0.6211 -0.4101  0.3150
   39POPC   C34 5267   2.056   3.255   7.342 -0.7042 -0.5080 -0.5836
   39POPC   H4X 5268   1.957   3.281   7.384 -0.6162 -0.3238 -0.4920
   39POPC   H4Y 5269   2.105   3.353   7.327  2.8009 -2.1251 -0.1160
   39POPC   C35 5270   2.125   3.166   7.445  0.1140  0.9604  0.5676
   39POPC   H5X 5271   2.232   3.161   7.418  0.1349  0.0227  0.8396
   39POPC   H5Y 5272   2.070   3.070   7.433  0.7132  0.8377 -1.3530
   39POPC   C36 5273   2.114   3.235   7.588  0.5795 -0.9274 -0.2568
   39POPC   H6X 5274   2.005   3.253   7.590  0.8158  0.5959  0.1437
   39POPC   H6Y 5275   2.162   3.335   7.576 -2.1526  0.4333 -0.2487
   39POPC   C37 5276   2.177   3.151   7.694 -0.0147  0.9242 -0.0955
   39POPC   H7X 5277   2.287   3.155   7.683  0.1942 -1.6908  0.6402
   39POPC   H7Y 5278   2.151   3.043   7.691  1.7335  0.5094 -2.4510
   39POPC   C38 5279   2.137   3.213   7.830  0.4113 -0.6717  0.9022
   39POPC   H8X 5280   2.031   3.244   7.829  0.0929 -1.7097 -1.3299
   39POPC   H8Y 5281   2.195   3.308   7.835  0.2944 -0.5160 -0.4645
   39POPC   C39 5282   2.185   3.128   7.951  0.1450  0.1042  0.7794
   39POPC   H9X 5283   2.196   3.207   8.028 -1.9318  1.8654 -0.6919
   39POPC   H9Y 5284   2.286   3.081   7.947  0.4662  0.8910 -0.4432
   39POPC  C310 5285   2.089   3.015   7.982 -0.2836 -0.4614  0.6071
   39POPC  H10X 5286   2.076   2.956   7.889 -0.0517 -1.5986  1.2928
   39POPC  H10Y 5287   1.990   3.063   7.995 -1.7787 -2.5962 -2.3077
   39POPC  C311 5288   2.131   2.934   8.103  0.6854  0.0642  0.6348
   39POPC  H11X 5289   2.150   2.995   8.194  0.7123  0.2753  0.4874
   39POPC  H11Y 5290   2.222   2.875   8.078 -1.5857 -3.1108 -0.4712
   39POPC  C312 5291   2.018   2.829   8.143  0.1460  0.1427 -1.0676
   39POPC  H12X 5292   1.986   2.763   8.059  0.9890  1.4843 -2.4868
   39POPC  H12Y 5293   1.926   2.888   8.160  0.2762 -0.3950  1.5928
   39POPC  C313 5294   2.056   2.740   8.266  0.5395 -0.2456 -0.4253
   39POPC  H13X 5295   1.987   2.659   8.300 -1.5267  1.9151  0.6882
   39POPC  H13Y 5296   2.068   2.793   8.363  0.3917  0.5591 -0.8461
   39POPC  C314 5297   2.189   2.666   8.256  0.7218  0.0960 -0.0268
   39POPC  H14X 5298   2.213   2.611   8.349  2.8658  2.8034  1.0967
   39POPC  H14Y 5299   2.269   2.742   8.245  0.1933  0.5352 -0.9964
   39POPC  C315 5300   2.209   2.570   8.133 -0.0656 -0.0519  0.2116
   39POPC  H15X 5301   2.317   2.550   8.119  0.4509  2.4603  0.3495
   39POPC  H15Y 5302   2.181   2.635   8.047 -0.0693  0.8154  0.8587
   39POPC  C316 5303   2.122   2.442   8.128 -0.1331  0.7672  0.3140
   39POPC  H16X 5304   2.158   2.375   8.208  0.1139  0.4707 -0.0459
   39POPC  H16Y 5305   2.132   2.395   8.028 -0.3076 -0.0384  0.6746
   39POPC  H16Z 5306   2.015   2.472   8.142 -0.2260  0.9164 -0.6855
   40POPC     N 5307   6.612   1.628   6.091  0.5163 -0.0771  0.5971
   40POPC   C12 5308   6.657   1.481   6.106  0.4254  0.4582  0.4443
   40POPC  H12A 5309   6.718   1.455   6.021 -1.1689 -0.7476 -0.3727
   40POPC  H12B 5310   6.569   1.418   6.107  1.9635 -1.7623 -1.0719
   40POPC   C13 5311   6.513   1.648   5.980  0.2404  0.0729  1.0540
   40POPC  H13A 5312   6.487   1.752   5.970  0.2257 -0.0614 -0.4405
   40POPC  H13B 5313   6.553   1.610   5.887  0.2445  0.7920  0.7578
   40POPC  H13C 5314   6.426   1.587   5.996 -0.7572  1.1154 -0.2495
   40POPC   C14 5315   6.542   1.660   6.218  0.7573 -0.2335  0.5185
   40POPC  H14A 5316   6.469   1.581   6.236  3.1413 -2.6862 -0.2518
   40POPC  H14B 5317   6.614   1.657   6.298  1.8175 -0.7207 -0.4374
   40POPC  H14C 5318   6.493   1.756   6.213  0.1482 -0.5431  0.4602
   40POPC   C15 5319   6.728   1.721   6.060  0.3890  0.1586  0.6840
   40POPC  H15A 5320   6.696   1.819   6.090 -1.7825  0.0656 -1.1820
   40POPC  H15B 5321   6.750   1.722   5.954  0.4681  1.3955  0.7077
   40POPC  H15C 5322   6.817   1.691   6.113  1.3564 -1.4521 -1.7253
   40POPC   C11 5323   6.730   1.448   6.242 -0.3873 -0.3290  0.3019
   40POPC  H11A 5324   6.755   1.340   6.229  1.9247  0.1955  0.1193
   40POPC  H11B 5325   6.663   1.464   6.329  0.9998  0.0487  1.3127
   40POPC     P 5326   6.892   1.603   6.375 -0.2349 -0.1262 -0.5262
   40POPC   O13 5327   6.775   1.687   6.406 -0.2463 -0.1457 -0.0760
   40POPC   O14 5328   7.019   1.675   6.351 -0.8718  0.4234  0.2169
   40POPC   O12 5329   6.847   1.522   6.246  0.6452  0.1211  0.4254
   40POPC   O11 5330   6.910   1.486   6.483  0.2463 -0.6285  0.2811
   40POPC    C1 5331   7.013   1.389   6.473 -0.2014  0.2861  0.3338
   40POPC    HA 5332   7.094   1.418   6.403 -0.7516  0.8714 -0.0708
   40POPC    HB 5333   6.968   1.291   6.445  1.9032 -1.4384  2.7885
   40POPC    C2 5334   7.076   1.384   6.614  0.0762 -0.2679  0.8229
   40POPC    HS 5335   7.134   1.291   6.628  0.5481 -0.3906 -1.7703
   40POPC   O21 5336   6.966   1.392   6.711 -0.4847 -0.1154  0.2116
   40POPC   C21 5337   6.898   1.274   6.710  0.4399  0.0960 -0.8965
   40POPC   O22 5338   6.922   1.182   6.640 -0.2653  0.2534  0.0640
   40POPC   C22 5339   6.788   1.273   6.814  0.5408 -0.4658 -0.0450
   40POPC   H2R 5340   6.703   1.213   6.775  1.1900 -0.4690 -1.5027
   40POPC   H2S 5341   6.750   1.375   6.834  2.8112  0.3934  0.0052
   40POPC    C3 5342   7.168   1.506   6.644  0.2570  0.5145 -0.5226
   40POPC    HX 5343   7.110   1.599   6.663  0.5875  0.9656 -1.6731
   40POPC    HY 5344   7.219   1.540   6.551  0.9419  0.4136 -0.1876
   40POPC   O31 5345   7.259   1.473   6.754 -0.3158  0.4602 -0.3715
   40POPC   C31 5346   7.312   1.575   6.812 -0.2978  0.7305 -0.8451
   40POPC   O32 5347   7.294   1.692   6.782  0.3021 -0.1482  0.0981
   40POPC   C32 5348   7.384   1.528   6.940 -0.6580 -1.1810 -0.3546
   40POPC   H2X 5349   7.444   1.435   6.923  0.7566 -0.2851 -0.3615
   40POPC   H2Y 5350   7.316   1.506   7.025 -0.8249 -1.9583 -0.6828
   40POPC   C23 5351   6.829   1.229   6.955  0.1577 -0.1746 -1.2171
   40POPC   H3R 5352   6.895   1.139   6.956 -0.1413 -0.4061  1.4390
   40POPC   H3S 5353   6.740   1.188   7.006  1.0171 -0.3701  0.1616
   40POPC   C24 5354   6.879   1.345   7.044  0.0255  0.0085  0.7012
   40POPC   H4R 5355   6.805   1.427   7.034  1.5651  1.3973  0.4727
   40POPC   H4S 5356   6.978   1.373   7.003  0.2612 -3.2502 -1.1756
   40POPC   C25 5357   6.888   1.298   7.184 -0.3258  0.3406  0.0408
   40POPC   H5R 5358   6.955   1.212   7.204 -0.9232 -0.4192 -1.1461
   40POPC   H5S 5359   6.792   1.253   7.217  0.7909 -0.7499  1.8433
   40POPC   C26 5360   6.932   1.408   7.277 -0.4645  0.2556  0.6617
   40POPC   H6R 5361   6.913   1.373   7.381 -0.0530 -1.5604  0.1495
   40POPC   H6S 5362   6.865   1.495   7.264 -0.0805  0.2358 -1.6980
   40POPC   C27 5363   7.075   1.457   7.267 -0.2576  0.1204 -0.1262
   40POPC   H7R 5364   7.085   1.558   7.312  0.1394  0.1803 -0.3479
   40POPC   H7S 5365   7.101   1.460   7.160 -2.0851 -2.8910 -0.7066
   40POPC   C28 5366   7.178   1.360   7.332  0.7772 -0.1909  0.1921
   40POPC   H8R 5367   7.183   1.274   7.262  0.0072 -0.2358  0.1970
   40POPC   H8S 5368   7.146   1.334   7.435  1.5018 -1.7223  0.0532
   40POPC   C29 5369   7.319   1.415   7.336 -0.8208  0.1914 -0.0150
   40POPC   H91 5370   7.386   1.387   7.254  0.4845  1.5340  0.5728
   40POPC  C210 5371   7.360   1.508   7.425  0.4294 -0.6324  0.3465
   40POPC  H101 5372   7.463   1.547   7.423 -0.1599  0.9643 -0.0549
   40POPC  C211 5373   7.271   1.566   7.535 -0.0061 -0.1886  0.4196
   40POPC  H11R 5374   7.198   1.486   7.559  2.0814 -2.3230 -0.1861
   40POPC  H11S 5375   7.218   1.654   7.491  0.5919 -0.7490 -1.4478
   40POPC  C212 5376   7.341   1.605   7.674 -0.2783 -0.1581  0.2355
   40POPC  H12R 5377   7.423   1.678   7.660 -0.9890  0.7407  0.7177
   40POPC  H12S 5378   7.373   1.506   7.715 -1.8569 -0.8834 -0.2454
   40POPC  C213 5379   7.238   1.683   7.755  0.5843 -0.1925 -0.3833
   40POPC  H13R 5380   7.176   1.609   7.811 -2.3956  1.0745 -1.8646
   40POPC  H13S 5381   7.168   1.726   7.681  2.3102 -0.2857 -2.0916
   40POPC  C214 5382   7.302   1.783   7.855  0.2756 -0.1367  0.4532
   40POPC  H14R 5383   7.221   1.836   7.911 -1.6592 -2.3732 -0.1350
   40POPC  H14S 5384   7.368   1.849   7.796  1.0846 -2.1673 -0.9820
   40POPC  C215 5385   7.394   1.711   7.949  0.1019 -0.1954  0.3481
   40POPC  H15R 5386   7.468   1.786   7.983 -0.1097  0.4254 -0.5422
   40POPC  H15S 5387   7.444   1.627   7.896 -0.4304 -0.8912  0.9365
   40POPC  C216 5388   7.331   1.647   8.072 -0.6282 -0.8105  0.4432
   40POPC  H16R 5389   7.273   1.556   8.046  1.7985 -2.1644 -0.3307
   40POPC  H16S 5390   7.286   1.724   8.139 -0.2100  0.0521 -0.2533
   40POPC  C217 5391   7.444   1.597   8.157 -0.1765  0.2090 -0.5519
   40POPC  H17R 5392   7.495   1.686   8.199 -0.6107 -0.2831  1.0664
   40POPC  H17S 5393   7.519   1.543   8.095  0.3958  0.7477 -0.3312
   40POPC  C218 5394   7.385   1.526   8.276 -0.1175 -0.7997 -0.1529
   40POPC  H18R 5395   7.326   1.597   8.337 -0.7180 -0.5158 -1.0576
   40POPC  H18S 5396   7.462   1.484   8.344  0.7448 -1.6497 -1.6163
   40POPC  H18T 5397   7.321   1.440   8.248 -0.4257 -1.0949  1.3959
   40POPC   C33 5398   7.501   1.620   6.988  0.4310  0.5226  0.0073
   40POPC   H3X 5399   7.571   1.626   6.901 -1.7423  0.4033 -1.7780
   40POPC   H3Y 5400   7.573   1.575   7.060  2.9322  3.3937 -0.5558
   40POPC   C34 5401   7.457   1.758   7.038 -0.5828  0.1132  0.5163
   40POPC   H4X 5402   7.389   1.741   7.125 -0.9026  0.0473  0.2524
   40POPC   H4Y 5403   7.403   1.811   6.957  4.6119  0.7915 -2.7119
   40POPC   C35 5404   7.575   1.861   7.064 -0.1559  1.0661  0.2265
   40POPC   H5X 5405   7.542   1.967   7.059 -0.4462  1.0742  2.1736
   40POPC   H5Y 5406   7.637   1.844   6.973 -0.9105 -1.3696  0.1277
   40POPC   C36 5407   7.662   1.841   7.190 -0.2172 -0.4654 -0.0701
   40POPC   H6X 5408   7.762   1.889   7.184 -0.9811  1.4538  1.7829
   40POPC   H6Y 5409   7.682   1.736   7.219  1.5587  0.1655  1.0620
   40POPC   C37 5410   7.606   1.907   7.311 -0.2157 -0.3823  0.5870
   40POPC   H7X 5411   7.525   1.846   7.358 -0.6085 -0.1715  0.1857
   40POPC   H7Y 5412   7.573   2.005   7.271 -1.1840 -1.8957 -2.4128
   40POPC   C38 5413   7.712   1.924   7.419 -0.1994 -1.1327  0.0927
   40POPC   H8X 5414   7.796   1.989   7.386 -0.5680 -1.2613 -1.1116
   40POPC   H8Y 5415   7.757   1.827   7.449  0.9926 -1.2668 -2.0070
   40POPC   C39 5416   7.657   1.986   7.545 -0.0272 -0.3605 -0.3163
   40POPC   H9X 5417   7.560   1.938   7.570 -1.2603  2.8111  1.3277
   40POPC   H9Y 5418   7.638   2.096   7.542 -1.1566 -0.5654 -0.9454
   40POPC  C310 5419   7.746   1.967   7.669 -0.8470 -0.1327 -0.1201
   40POPC  H10X 5420   7.845   2.005   7.635 -1.0951  0.9105  0.2884
   40POPC  H10Y 5421   7.760   1.865   7.710 -2.1455  0.7336  2.6234
   40POPC  C311 5422   7.702   2.056   7.793  0.5420 -0.1489  0.8490
   40POPC  H11X 5423   7.609   2.020   7.841  0.1322 -0.5706 -0.2358
   40POPC  H11Y 5424   7.686   2.154   7.743  1.0464 -0.9917 -0.9906
   40POPC  C312 5425   7.812   2.058   7.906 -0.3380  0.6264  0.7115
   40POPC  H12X 5426   7.896   2.121   7.871 -2.1298  1.1011 -3.1377
   40POPC  H12Y 5427   7.854   1.956   7.914 -0.5744  0.5482  0.9638
   40POPC  C313 5428   7.761   2.100   8.049  0.3437  0.2382  0.2699
   40POPC  H13X 5429   7.715   2.199   8.029  0.1232  0.1853  0.5201
   40POPC  H13Y 5430   7.850   2.121   8.112  0.2162 -0.1998  0.6011
   40POPC  C314 5431   7.661   1.998   8.113 -1.1000 -0.3332  0.2397
   40POPC  H14X 5432   7.692   1.892   8.126 -2.0488 -0.3446  2.7524
   40POPC  H14Y 5433   7.566   2.004   8.056 -1.7804 -2.1553  1.1423
   40POPC  C315 5434   7.630   2.044   8.259 -0.0538  0.4168 -0.6364
   40POPC  H15X 5435   7.579   2.142   8.250 -0.5904  0.1195 -0.8666
   40POPC  H15Y 5436   7.722   2.064   8.318 -0.9373 -1.0499  1.2952
   40POPC  C316 5437   7.536   1.950   8.343 -0.1829 -0.1621  0.4901
   40POPC  H16X 5438   7.577   1.847   8.337 -1.6084 -0.8426  2.1176
   40POPC  H16Y 5439   7.437   1.962   8.295  0.4987 -1.4352 -1.2747
   40POPC  H16Z 5440   7.537   1.981   8.449 -2.7680 -1.2930  0.8537
   41CHL1    C3 5441   6.788   4.465  10.054  0.1832  0.5431 -0.9525
   41CHL1    H3 5442   6.893   4.499  10.041 -0.2500  3.3772  2.3213
   41CHL1    O3 5443   6.733   4.488  10.181 -0.0617 -0.2319 -0.0257
   41CHL1   H3' 5444   6.704   4.403  10.215  0.9425 -0.6666 -0.2158
   41CHL1    C4 5445   6.714   4.563   9.961 -0.7535 -0.1154 -0.3244
   41CHL1   H4A 5446   6.605   4.548   9.978 -1.1505  1.7201 -1.1321
   41CHL1   H4B 5447   6.730   4.665  10.002 -0.1755 -1.2682  2.4462
   41CHL1    C5 5448   6.762   4.541   9.814 -0.0671  1.1033  0.2360
   41CHL1    C6 5449   6.816   4.638   9.739  0.7439 -0.3377  0.3934
   41CHL1    H6 5450   6.840   4.738   9.776  2.8588 -1.0302  0.9887
   41CHL1    C7 5451   6.835   4.617   9.587 -0.3517  0.0637 -0.4107
   41CHL1   H7A 5452   6.797   4.704   9.530 -1.3298  1.8335  2.8027
   41CHL1   H7B 5453   6.945   4.605   9.571  0.0064  3.3496 -0.6711
   41CHL1    C8 5454   6.771   4.493   9.530  0.7947  0.4964  0.0509
   41CHL1    H8 5455   6.660   4.499   9.520  1.0056  3.0094 -0.8868
   41CHL1   C14 5456   6.824   4.461   9.394  0.0444 -0.1553  0.8787
   41CHL1   H14 5457   6.934   4.444   9.402  0.1835 -0.0882 -0.7134
   41CHL1   C15 5458   6.818   4.570   9.281 -0.7800 -0.2346 -0.0869
   41CHL1  H15A 5459   6.715   4.609   9.270 -1.6222 -2.2971  0.3579
   41CHL1  H15B 5460   6.878   4.659   9.309 -0.6143 -0.0082 -1.1353
   41CHL1   C16 5461   6.855   4.491   9.158 -0.4382  0.3080 -0.1780
   41CHL1  H16A 5462   6.784   4.503   9.073 -1.6368 -0.1878  0.7317
   41CHL1  H16B 5463   6.960   4.513   9.133 -0.0235 -0.4974  0.8269
   41CHL1   C17 5464   6.840   4.334   9.193  0.0954 -0.1514 -0.0138
   41CHL1   H17 5465   6.942   4.308   9.227 -0.1078 -0.0076  0.7199
   41CHL1   C13 5466   6.768   4.328   9.327  0.1616 -0.1019  0.6789
   41CHL1   C18 5467   6.614   4.330   9.300 -0.4603 -0.1735 -0.0165
   41CHL1  H18A 5468   6.594   4.419   9.237  1.2531 -0.5098 -1.0516
   41CHL1  H18B 5469   6.561   4.241   9.259 -0.6652  0.6824 -1.6454
   41CHL1  H18C 5470   6.560   4.363   9.391 -0.4674  2.0961 -0.8243
   41CHL1   C12 5471   6.816   4.219   9.427 -0.4108 -0.6857 -0.3341
   41CHL1  H12A 5472   6.790   4.119   9.387 -0.5276 -0.3977 -0.9890
   41CHL1  H12B 5473   6.925   4.232   9.444 -0.8873  2.9976  0.4658
   41CHL1   C11 5474   6.762   4.231   9.569  0.3061 -0.0062 -0.3635
   41CHL1  H11A 5475   6.652   4.222   9.554  0.2364  0.7709 -0.3184
   41CHL1  H11B 5476   6.802   4.145   9.628 -1.0265 -1.4028 -1.4465
   41CHL1    C9 5477   6.792   4.376   9.631 -0.2332  0.7891 -0.1832
   41CHL1    H9 5478   6.903   4.368   9.633 -0.1958  0.6723 -2.0606
   41CHL1   C10 5479   6.736   4.400   9.768 -1.6388  0.2684 -0.6990
   41CHL1   C19 5480   6.585   4.371   9.767  0.0317  0.1625 -0.1652
   41CHL1  H19A 5481   6.532   4.449   9.708 -0.0656 -0.6872 -1.2274
   41CHL1  H19B 5482   6.555   4.277   9.717 -1.6469  0.8354 -0.4532
   41CHL1  H19C 5483   6.531   4.365   9.864  3.0420 -0.4787  1.5285
   41CHL1    C1 5484   6.808   4.307   9.876 -0.1324 -0.0269 -0.8076
   41CHL1   H1A 5485   6.788   4.203   9.843  2.2998 -0.5254 -0.7551
   41CHL1   H1B 5486   6.918   4.320   9.870  0.1543 -0.1730  2.7360
   41CHL1    C2 5487   6.764   4.322  10.017  0.0006 -0.5563 -0.0347
   41CHL1   H2A 5488   6.830   4.270  10.090 -0.5810 -0.2654  0.7076
   41CHL1   H2B 5489   6.656   4.308  10.039 -0.0026  2.0998  1.9224
   41CHL1   C20 5490   6.789   4.258   9.072 -0.8423  0.3118  0.3837
   41CHL1   H20 5491   6.685   4.292   9.053 -1.2578 -0.4785  1.2250
   41CHL1   C21 5492   6.782   4.106   9.102 -0.0368  0.6067  0.2262
   41CHL1  H21A 5493   6.713   4.082   9.186  1.4973  2.4748  2.0889
   41CHL1  H21B 5494   6.875   4.066   9.148 -0.3101  1.4378  1.5539
   41CHL1  H21C 5495   6.759   4.051   9.008 -1.6758  1.8157 -0.1101
   41CHL1   C22 5496   6.865   4.273   8.940  0.2613 -0.0834 -0.2867
   41CHL1  H22A 5497   6.825   4.204   8.863  2.8631 -0.3865 -1.4488
   41CHL1  H22B 5498   6.850   4.374   8.894  1.3557  0.1317 -0.1922
   41CHL1   C23 5499   7.017   4.258   8.957  0.2061  0.1003 -0.7077
   41CHL1  H23A 5500   7.057   4.341   9.019 -0.1947 -0.5854  0.4635
   41CHL1  H23B 5501   7.036   4.166   9.015 -1.3299  0.1480 -0.1063
   41CHL1   C24 5502   7.105   4.254   8.833  0.0303 -0.0610 -0.1434
   41CHL1  H24A 5503   7.210   4.227   8.858 -0.0422 -1.1148 -0.9143
   41CHL1  H24B 5504   7.071   4.171   8.767 -0.4062 -0.2415  0.3030
   41CHL1   C25 5505   7.104   4.387   8.760 -0.7260  0.2986 -0.2495
   41CHL1   H25 5506   6.998   4.411   8.736 -0.5354  0.1029 -1.3305
   41CHL1   C26 5507   7.171   4.498   8.848 -0.0022 -0.0370  0.6079
   41CHL1  H26A 5508   7.275   4.462   8.862  0.0879 -0.2516 -0.5902
   41CHL1  H26B 5509   7.178   4.589   8.784  0.6441  0.1364  0.9199
   41CHL1  H26C 5510   7.106   4.535   8.930 -1.5036 -1.2937  0.0070
   41CHL1   C27 5511   7.182   4.370   8.617  0.2560  0.6460  0.2268
   41CHL1  H27A 5512   7.144   4.277   8.569 -0.6755  1.6680 -1.0452
   41CHL1  H27B 5513   7.151   4.452   8.549 -0.1546  0.3409  0.0392
   41CHL1  H27C 5514   7.291   4.368   8.636  0.0940 -0.0285  1.1065
   42CHL1    C3 5515   6.292   3.891   9.846 -0.0874  0.0551 -0.1510
   42CHL1    H3 5516   6.183   3.910   9.835  0.2610  1.4554 -1.3550
   42CHL1    O3 5517   6.330   3.903   9.985 -0.0099 -0.1966 -0.3090
   42CHL1   H3' 5518   6.283   3.840  10.040 -0.2005 -1.7133 -2.1485
   42CHL1    C4 5519   6.341   3.770   9.784 -0.0256  0.1678  0.9213
   42CHL1   H4A 5520   6.448   3.755   9.811  0.6052  2.0615 -0.3597
   42CHL1   H4B 5521   6.281   3.687   9.825  0.5862  0.9249  3.4692
   42CHL1    C5 5522   6.330   3.765   9.629 -0.4862  0.1225  0.0345
   42CHL1    C6 5523   6.260   3.665   9.567 -0.1779  0.5652 -0.2331
   42CHL1    H6 5524   6.215   3.583   9.625 -1.1040  1.3374  0.1691
   42CHL1    C7 5525   6.247   3.662   9.416 -0.4465  0.2526  0.7536
   42CHL1   H7A 5526   6.275   3.562   9.377  3.1643  1.1290  0.9487
   42CHL1   H7B 5527   6.140   3.672   9.388 -0.0761  2.3160 -0.0230
   42CHL1    C8 5528   6.330   3.769   9.337  0.0726  0.0562 -0.5665
   42CHL1    H8 5529   6.432   3.723   9.334  0.5271  1.0008  0.2214
   42CHL1   C14 5530   6.281   3.796   9.194  0.9969  0.4343 -0.2114
   42CHL1   H14 5531   6.188   3.855   9.204  1.3316  0.9374 -0.0296
   42CHL1   C15 5532   6.230   3.675   9.104 -0.4581 -0.0275  0.4292
   42CHL1  H15A 5533   6.291   3.583   9.116  0.8177  0.9606  1.7563
   42CHL1  H15B 5534   6.121   3.657   9.114 -0.6619  1.5013  1.0353
   42CHL1   C16 5535   6.240   3.730   8.963  0.1856 -0.0791  0.7103
   42CHL1  H16A 5536   6.309   3.654   8.919 -0.8931 -0.0053 -1.1146
   42CHL1  H16B 5537   6.148   3.728   8.901 -0.1026  0.9285  1.1021
   42CHL1   C17 5538   6.302   3.871   8.967 -0.4456  0.7535 -0.0403
   42CHL1   H17 5539   6.219   3.941   8.988  0.1623  1.0079  1.6383
   42CHL1   C13 5540   6.375   3.871   9.107  0.0742 -0.0148  0.9735
   42CHL1   C18 5541   6.510   3.794   9.088 -0.4071  0.3401  0.4468
   42CHL1  H18A 5542   6.493   3.696   9.038 -1.5871  1.8196 -2.1214
   42CHL1  H18B 5543   6.590   3.843   9.028  0.7214 -1.0927  0.7483
   42CHL1  H18C 5544   6.554   3.782   9.190  0.7752 -3.3873 -0.4254
   42CHL1   C12 5545   6.392   4.013   9.174 -0.4332 -0.1491 -0.2166
   42CHL1  H12A 5546   6.451   4.085   9.114 -0.9310 -0.9819 -1.7346
   42CHL1  H12B 5547   6.287   4.044   9.159  0.6037  3.1490 -1.0962
   42CHL1   C11 5548   6.436   3.999   9.323 -0.4644  0.4391  0.2172
   42CHL1  H11A 5549   6.539   3.957   9.323 -1.0312 -0.9776  0.2926
   42CHL1  H11B 5550   6.448   4.098   9.373  2.7209 -0.3912  1.2543
   42CHL1    C9 5551   6.352   3.899   9.406  0.1028  0.4154  0.0318
   42CHL1    H9 5552   6.248   3.937   9.416 -1.2124 -2.8490 -0.4170
   42CHL1   C10 5553   6.398   3.887   9.552  0.1526  0.8337  0.5774
   42CHL1   C19 5554   6.551   3.855   9.562 -0.2120 -0.6809  0.2240
   42CHL1  H19A 5555   6.610   3.941   9.525 -1.9598  1.7816  3.0324
   42CHL1  H19B 5556   6.572   3.856   9.671 -2.0779 -2.2165  0.6409
   42CHL1  H19C 5557   6.576   3.760   9.509  2.0985 -1.0191  1.8744
   42CHL1    C1 5558   6.362   4.019   9.626  0.5193 -0.1316 -0.0639
   42CHL1   H1A 5559   6.437   4.099   9.609 -2.1739  2.6145  0.5390
   42CHL1   H1B 5560   6.263   4.056   9.594  0.5457  0.8201  0.9316
   42CHL1    C2 5561   6.360   4.009   9.778  0.8193 -0.2186  0.1120
   42CHL1   H2A 5562   6.315   4.104   9.813  1.7465  1.0661 -2.0522
   42CHL1   H2B 5563   6.466   4.011   9.811  0.5594 -1.3772  1.0424
   42CHL1   C20 5564   6.370   3.907   8.831  0.1490 -0.2803  0.1423
   42CHL1   H20 5565   6.445   3.830   8.805  0.0848 -0.2625 -0.0980
   42CHL1   C21 5566   6.434   4.045   8.855 -0.6915  0.8169 -0.1088
   42CHL1  H21A 5567   6.519   4.044   8.927 -0.9256 -1.5797  0.1947
   42CHL1  H21B 5568   6.362   4.123   8.885 -1.3448  0.4713 -0.7670
   42CHL1  H21C 5569   6.490   4.072   8.763  2.3561  1.1413  1.7594
   42CHL1   C22 5570   6.272   3.919   8.712  0.1579 -0.7953  0.2773
   42CHL1  H22A 5571   6.224   3.822   8.687 -0.6675  0.1321 -1.8983
   42CHL1  H22B 5572   6.190   3.979   8.757  0.9783  1.0480 -0.6302
   42CHL1   C23 5573   6.338   3.992   8.589 -0.1733 -0.0039 -0.0407
   42CHL1  H23A 5574   6.258   3.997   8.513 -0.3758  1.5668  0.2590
   42CHL1  H23B 5575   6.368   4.097   8.609  1.6458 -0.5342  0.1625
   42CHL1   C24 5576   6.462   3.925   8.522 -0.4049  0.2984  0.2411
   42CHL1  H24A 5577   6.467   3.963   8.418  1.7929 -0.8426 -0.1172
   42CHL1  H24B 5578   6.557   3.954   8.573  0.5247 -1.6138 -0.3398
   42CHL1   C25 5579   6.452   3.774   8.511 -0.1356  0.9694 -0.0763
   42CHL1   H25 5580   6.439   3.732   8.613  1.3372  1.9155  0.5312
   42CHL1   C26 5581   6.321   3.737   8.441 -0.0733  0.5078  0.2600
   42CHL1  H26A 5582   6.225   3.758   8.493  0.5779 -0.5153  1.9150
   42CHL1  H26B 5583   6.324   3.794   8.345  1.8417  0.0307  0.0167
   42CHL1  H26C 5584   6.317   3.626   8.434 -0.2013  0.6430 -2.2521
   42CHL1   C27 5585   6.577   3.710   8.443  0.2542 -0.4727 -0.1594
   42CHL1  H27A 5586   6.559   3.601   8.430 -1.2359 -0.3974  1.1248
   42CHL1  H27B 5587   6.584   3.747   8.338 -1.3380  0.6108  0.1040
   42CHL1  H27C 5588   6.667   3.735   8.503 -1.6761  0.8963  2.2372
   43CHL1    C3 5589   0.474   4.335  10.051  0.3652  0.2816 -0.0714
   43CHL1    H3 5590   0.566   4.397  10.052 -0.2568  1.1911  1.4169
   43CHL1    O3 5591   0.416   4.330  10.175  0.1042  0.4351 -0.3078
   43CHL1   H3' 5592   0.336   4.277  10.169  0.1432  0.5072 -1.3934
   43CHL1    C4 5593   0.370   4.387   9.950 -0.1585  0.7961 -0.6118
   43CHL1   H4A 5594   0.273   4.339   9.975  0.3400  0.7800  1.3913
   43CHL1   H4B 5595   0.364   4.496   9.971 -2.9224  0.9814 -2.1476
   43CHL1    C5 5596   0.407   4.357   9.803  0.1959 -0.1824  0.2228
   43CHL1    C6 5597   0.408   4.460   9.714 -0.0921  0.1512 -0.2126
   43CHL1    H6 5598   0.350   4.549   9.739 -1.8475 -0.1082 -3.1064
   43CHL1    C7 5599   0.428   4.448   9.568 -0.2089 -0.5180 -0.6041
   43CHL1   H7A 5600   0.340   4.492   9.515  0.4153  0.6043 -0.7337
   43CHL1   H7B 5601   0.525   4.496   9.545 -1.1474  1.3250 -0.8959
   43CHL1    C8 5602   0.443   4.300   9.527  0.1338 -0.0916  0.1804
   43CHL1    H8 5603   0.341   4.260   9.511 -1.1327  2.3518  2.0118
   43CHL1   C14 5604   0.521   4.284   9.396 -0.2201  0.6961 -0.3594
   43CHL1   H14 5605   0.626   4.297   9.430 -0.5861 -0.0822  1.1090
   43CHL1   C15 5606   0.495   4.389   9.285 -1.1783  0.4532  0.0632
   43CHL1  H15A 5607   0.386   4.409   9.284 -1.7475 -2.0671  2.9693
   43CHL1  H15B 5608   0.550   4.484   9.306  0.9258 -0.0510 -2.9713
   43CHL1   C16 5609   0.554   4.337   9.149  0.2212  0.8067 -0.1669
   43CHL1  H16A 5610   0.474   4.343   9.073 -0.3461  2.3975  0.5285
   43CHL1  H16B 5611   0.643   4.396   9.117  0.6108 -0.0212 -0.6267
   43CHL1   C17 5612   0.592   4.187   9.195  0.2187 -0.3362  0.0034
   43CHL1   H17 5613   0.700   4.187   9.220  0.7631 -2.9621 -2.0138
   43CHL1   C13 5614   0.516   4.151   9.327  0.2363 -0.8680  0.0060
   43CHL1   C18 5615   0.367   4.105   9.291 -0.0515 -0.0531 -0.2311
   43CHL1  H18A 5616   0.307   4.092   9.383  2.0977 -1.3990  1.0126
   43CHL1  H18B 5617   0.315   4.180   9.227  0.9494  1.5845  0.8212
   43CHL1  H18C 5618   0.364   4.019   9.221 -0.8236  1.6493 -2.3505
   43CHL1   C12 5619   0.574   4.046   9.421  0.7010  0.2691 -0.7407
   43CHL1  H12A 5620   0.567   3.941   9.385 -1.4544  0.2806 -0.4171
   43CHL1  H12B 5621   0.681   4.075   9.429  0.7405  0.5574 -2.1795
   43CHL1   C11 5622   0.519   4.059   9.572 -0.0242 -0.5672 -0.4519
   43CHL1  H11A 5623   0.415   4.025   9.554 -0.1317 -1.7591  2.2972
   43CHL1  H11B 5624   0.565   3.980   9.635 -2.1615 -1.0179  0.5932
   43CHL1    C9 5625   0.516   4.203   9.627  0.4021 -0.5540 -0.1386
   43CHL1    H9 5626   0.622   4.235   9.640 -0.1890  1.9978 -1.1690
   43CHL1   C10 5627   0.452   4.218   9.770  0.6675 -0.0811  0.0142
   43CHL1   C19 5628   0.316   4.133   9.781  0.3403  0.2287 -0.0348
   43CHL1  H19A 5629   0.238   4.177   9.715 -0.0549 -0.3661  0.0373
   43CHL1  H19B 5630   0.338   4.031   9.743  2.3752  0.1628  1.2664
   43CHL1  H19C 5631   0.276   4.122   9.884 -0.4447  0.2522 -0.3380
   43CHL1    C1 5632   0.555   4.175   9.871  0.8027  0.1878 -0.3368
   43CHL1   H1A 5633   0.577   4.068   9.851 -1.8744 -0.4465 -0.1196
   43CHL1   H1B 5634   0.647   4.235   9.860 -0.5662  2.1058 -1.5336
   43CHL1    C2 5635   0.512   4.192  10.022 -0.0006 -0.5346 -0.0476
   43CHL1   H2A 5636   0.596   4.164  10.089 -1.1470  1.1822  2.1983
   43CHL1   H2B 5637   0.424   4.127  10.039  1.0629 -2.3366 -1.3539
   43CHL1   C20 5638   0.583   4.096   9.068  0.6603  0.2122 -0.7824
   43CHL1   H20 5639   0.475   4.085   9.044  0.7617  3.6956 -3.1526
   43CHL1   C21 5640   0.621   3.946   9.102 -0.0721  0.5848 -0.3405
   43CHL1  H21A 5641   0.664   3.896   9.013  0.8408  1.1170 -0.2082
   43CHL1  H21B 5642   0.535   3.893   9.147  1.2635  0.2267  1.8670
   43CHL1  H21C 5643   0.700   3.954   9.181 -2.1995 -2.2933  2.1847
   43CHL1   C22 5644   0.663   4.155   8.950  0.0966 -0.1424  0.5376
   43CHL1  H22A 5645   0.645   4.076   8.874  2.6519 -0.3852  0.1443
   43CHL1  H22B 5646   0.617   4.251   8.916  1.4978  0.4167  0.1771
   43CHL1   C23 5647   0.814   4.180   8.979 -0.7030  0.4069  0.2861
   43CHL1  H23A 5648   0.836   4.257   9.056  1.8391 -0.6549  0.6511
   43CHL1  H23B 5649   0.854   4.081   9.007 -0.9870  0.2514  0.1456
   43CHL1   C24 5650   0.883   4.221   8.853 -0.4183 -0.2567 -0.1908
   43CHL1  H24A 5651   0.886   4.141   8.776  0.3004 -0.4330  0.0185
   43CHL1  H24B 5652   0.827   4.305   8.806  0.8886  0.6684 -0.1044
   43CHL1   C25 5653   1.023   4.277   8.871 -0.9143  0.9220 -0.7142
   43CHL1   H25 5654   1.020   4.375   8.923 -0.1765  1.5139 -1.7874
   43CHL1   C26 5655   1.118   4.210   8.977 -0.2129 -0.0656  0.2454
   43CHL1  H26A 5656   1.134   4.108   8.936  1.0182  0.3219 -0.2956
   43CHL1  H26B 5657   1.214   4.265   8.964  1.0684 -2.3894 -0.3961
   43CHL1  H26C 5658   1.083   4.214   9.082 -0.5857  2.0373  0.0631
   43CHL1   C27 5659   1.094   4.287   8.738  0.3271 -0.3718  1.0151
   43CHL1  H27A 5660   1.198   4.323   8.748  0.0688  0.6758 -0.0027
   43CHL1  H27B 5661   1.088   4.187   8.689  3.2255 -0.0152 -0.1826
   43CHL1  H27C 5662   1.045   4.368   8.680  1.9618  0.6923  1.0961
   44CHL1    C3 5663   0.631   5.155  10.316 -0.4351  0.5819  0.2996
   44CHL1    H3 5664   0.734   5.184  10.287 -0.4599  2.2749  1.7891
   44CHL1    O3 5665   0.632   5.165  10.459  0.1342  0.0525  0.0613
   44CHL1   H3' 5666   0.544   5.134  10.483  0.2100 -1.3724 -1.4649
   44CHL1    C4 5667   0.524   5.251  10.255  0.5752 -0.1243 -0.0611
   44CHL1   H4A 5668   0.430   5.233  10.313  1.2626  0.1908  1.1628
   44CHL1   H4B 5669   0.545   5.359  10.270 -3.2239  1.0910 -2.6853
   44CHL1    C5 5670   0.507   5.219  10.102 -0.3194  0.4518 -0.1544
   44CHL1    C6 5671   0.540   5.306  10.009 -0.2627 -0.0051 -0.9118
   44CHL1    H6 5672   0.581   5.405  10.033  1.0707 -0.3258 -1.8072
   44CHL1    C7 5673   0.528   5.286   9.863 -0.2419  0.7448 -0.6181
   44CHL1   H7A 5674   0.501   5.376   9.803  0.0323  0.1816 -1.6085
   44CHL1   H7B 5675   0.624   5.254   9.817  0.6761  1.7861  0.5418
   44CHL1    C8 5676   0.430   5.172   9.822 -0.4041 -0.1596 -0.6020
   44CHL1    H8 5677   0.323   5.202   9.833 -0.2684  0.5632 -1.2300
   44CHL1   C14 5678   0.442   5.143   9.674 -0.5931 -0.6682  0.1812
   44CHL1   H14 5679   0.545   5.106   9.655 -0.1595  0.0164  1.1684
   44CHL1   C15 5680   0.412   5.260   9.573 -0.3248  0.4275 -0.3616
   44CHL1  H15A 5681   0.325   5.326   9.592 -0.6369 -0.1449  0.2411
   44CHL1  H15B 5682   0.504   5.321   9.579  0.5520 -0.8876 -0.1246
   44CHL1   C16 5683   0.390   5.180   9.442  0.3440 -0.5436  0.3409
   44CHL1  H16A 5684   0.291   5.202   9.396  1.1288  0.3999 -0.9014
   44CHL1  H16B 5685   0.468   5.195   9.365  1.1238 -0.4260  1.1538
   44CHL1   C17 5686   0.388   5.025   9.476  0.2799 -0.2618 -0.1034
   44CHL1   H17 5687   0.493   4.988   9.477  0.3182 -0.1629  1.1648
   44CHL1   C13 5688   0.346   5.029   9.625  0.4920 -0.1160 -0.3268
   44CHL1   C18 5689   0.201   5.076   9.634 -0.2799  0.4452  0.0596
   44CHL1  H18A 5690   0.189   5.169   9.575  2.5469  1.9582  1.7421
   44CHL1  H18B 5691   0.135   5.007   9.577  1.2247 -1.9859  1.1673
   44CHL1  H18C 5692   0.152   5.094   9.733 -1.0293 -1.2872  0.0262
   44CHL1   C12 5693   0.376   4.903   9.711  0.0043  0.1565 -0.1806
   44CHL1  H12A 5694   0.318   4.816   9.672  0.4389 -0.5404  0.7153
   44CHL1  H12B 5695   0.480   4.866   9.699  0.2768  0.9396 -0.2950
   44CHL1   C11 5696   0.365   4.933   9.858 -0.1924  0.1581  0.2977
   44CHL1  H11A 5697   0.261   4.971   9.870 -0.5543  0.3911 -3.0669
   44CHL1  H11B 5698   0.390   4.844   9.918 -1.3140  0.2165  0.8714
   44CHL1    C9 5699   0.452   5.046   9.911  0.3945  0.5116  0.2253
   44CHL1    H9 5700   0.556   5.014   9.886 -0.9659 -3.2131 -1.0911
   44CHL1   C10 5701   0.451   5.076  10.065 -0.0196 -0.1493  0.1135
   44CHL1   C19 5702   0.307   5.059  10.116 -0.0154  0.7568  0.3109
   44CHL1  H19A 5703   0.297   5.097  10.221  1.9298 -1.1981  1.2454
   44CHL1  H19B 5704   0.245   5.119  10.047 -0.5555 -1.7358 -1.4150
   44CHL1  H19C 5705   0.280   4.952  10.114 -0.5499  0.9194 -2.2944
   44CHL1    C1 5706   0.550   4.979  10.146  0.2217  0.5798  0.8283
   44CHL1   H1A 5707   0.511   4.875  10.148 -0.7181  0.8516 -1.5413
   44CHL1   H1B 5708   0.649   4.977  10.095 -0.3235 -0.5493 -0.2129
   44CHL1    C2 5709   0.594   5.007  10.294  0.0263  0.1212 -0.1881
   44CHL1   H2A 5710   0.679   4.941  10.322  1.8874  1.3488 -2.6951
   44CHL1   H2B 5711   0.507   4.979  10.357  0.3968 -2.5074 -0.7819
   44CHL1   C20 5712   0.300   4.958   9.377  0.1176 -0.2675 -0.1350
   44CHL1   H20 5713   0.199   4.999   9.396  1.0731  1.2869  1.8321
   44CHL1   C21 5714   0.302   4.803   9.403  0.7106  0.0606  0.2169
   44CHL1  H21A 5715   0.248   4.740   9.328 -0.4513 -2.2769  2.9364
   44CHL1  H21B 5716   0.246   4.779   9.495  0.3123  0.3543  0.0555
   44CHL1  H21C 5717   0.407   4.769   9.410  1.4945  2.2913 -0.2525
   44CHL1   C22 5718   0.342   4.985   9.231 -0.5636 -0.2558 -0.4579
   44CHL1  H22A 5719   0.263   4.931   9.174 -0.0413 -1.9467  0.3985
   44CHL1  H22B 5720   0.344   5.093   9.205  1.2746 -0.8366 -2.9071
   44CHL1   C23 5721   0.482   4.935   9.189  0.3284 -0.0321  0.0735
   44CHL1  H23A 5722   0.562   5.001   9.229  1.4689 -0.0684 -2.1114
   44CHL1  H23B 5723   0.509   4.833   9.225 -0.4789 -0.0633  0.6200
   44CHL1   C24 5724   0.499   4.927   9.037  0.1346 -0.1856 -0.6674
   44CHL1  H24A 5725   0.604   4.909   9.006  0.8090 -0.2982  1.5647
   44CHL1  H24B 5726   0.445   4.833   9.012 -0.1353 -0.0845 -0.4648
   44CHL1   C25 5727   0.446   5.049   8.952  0.1800 -0.2624  0.1472
   44CHL1   H25 5728   0.336   5.065   8.956  0.2169  0.2481 -0.6951
   44CHL1   C26 5729   0.533   5.171   8.994 -0.4425 -0.1558  0.2374
   44CHL1  H26A 5730   0.639   5.144   8.980  0.3962  2.6268  0.9450
   44CHL1  H26B 5731   0.499   5.267   8.948 -0.4282  0.6045  1.7745
   44CHL1  H26C 5732   0.510   5.178   9.102  0.7975  0.7739  0.4535
   44CHL1   C27 5733   0.475   5.026   8.802  0.2602  0.3898  0.1650
   44CHL1  H27A 5734   0.415   4.942   8.761 -1.6329  2.6800 -1.8763
   44CHL1  H27B 5735   0.432   5.109   8.742 -1.3277  0.0801  0.8368
   44CHL1  H27C 5736   0.581   5.005   8.777 -0.0579  0.6330 -1.4378
   45CHL1    C3 5737   3.913   3.566  10.284 -0.8214  0.6264 -0.1462
   45CHL1    H3 5738   4.002   3.499  10.277 -1.9456 -0.9018  0.0198
   45CHL1    O3 5739   3.889   3.597  10.419  0.2023  0.2977  0.3594
   45CHL1   H3' 5740   3.805   3.643  10.409 -1.4110 -2.7120 -0.4345
   45CHL1    C4 5741   3.935   3.697  10.207  1.1499 -0.5585  0.0488
   45CHL1   H4A 5742   3.842   3.757  10.200  2.0214  0.8770  0.7133
   45CHL1   H4B 5743   4.004   3.765  10.261  0.1864 -0.6989  1.4922
   45CHL1    C5 5744   3.970   3.666  10.059  0.5749 -0.1987  0.2701
   45CHL1    C6 5745   4.085   3.711  10.010 -0.4048 -0.6186 -0.1652
   45CHL1    H6 5746   4.142   3.781  10.072  0.6586 -0.1865 -1.5922
   45CHL1    C7 5747   4.138   3.670   9.880 -0.5913  0.3966 -0.6966
   45CHL1   H7A 5748   4.172   3.760   9.823 -1.2884 -0.3996 -2.4106
   45CHL1   H7B 5749   4.228   3.606   9.890 -1.4282 -0.6131  0.5050
   45CHL1    C8 5750   4.041   3.589   9.788 -0.0241 -0.1743 -0.2097
   45CHL1    H8 5751   4.109   3.518   9.736  1.2230 -0.8805  2.3022
   45CHL1   C14 5752   3.974   3.676   9.680  0.2787  0.2768 -0.0240
   45CHL1   H14 5753   3.922   3.761   9.730  0.7715  1.0144 -0.7454
   45CHL1   C15 5754   4.076   3.734   9.587  0.2107  0.3575  1.1658
   45CHL1  H15A 5755   4.096   3.843   9.587  0.4309  0.3258  2.0262
   45CHL1  H15B 5756   4.170   3.687   9.623  1.1475  2.7517  2.0000
   45CHL1   C16 5757   4.058   3.679   9.448  0.6590  0.1805 -0.2895
   45CHL1  H16A 5758   4.003   3.750   9.383  0.5005  0.8409  0.5606
   45CHL1  H16B 5759   4.157   3.648   9.405 -0.2420  0.1038 -2.3829
   45CHL1   C17 5760   3.971   3.560   9.470  0.0215 -0.2605  0.2493
   45CHL1   H17 5761   4.038   3.491   9.526  1.2519  1.5200  1.0175
   45CHL1   C13 5762   3.872   3.603   9.589  0.1288  0.3535  0.2790
   45CHL1   C18 5763   3.764   3.708   9.534  0.0685 -0.3989 -0.6288
   45CHL1  H18A 5764   3.821   3.798   9.503 -0.2559  0.4569  1.1514
   45CHL1  H18B 5765   3.715   3.676   9.440 -0.9978  0.3594 -0.3438
   45CHL1  H18C 5766   3.694   3.739   9.615  0.4261 -0.5386 -0.2680
   45CHL1   C12 5767   3.799   3.488   9.660 -0.1610 -0.1160  0.0707
   45CHL1  H12A 5768   3.710   3.532   9.709 -0.9537  2.6971 -3.7493
   45CHL1  H12B 5769   3.754   3.417   9.587  0.6278 -0.3024 -0.2395
   45CHL1   C11 5770   3.863   3.413   9.774  0.2210 -0.4935 -0.1703
   45CHL1  H11A 5771   3.802   3.342   9.833  0.7763 -1.2650 -0.5210
   45CHL1  H11B 5772   3.940   3.347   9.728  2.0587 -0.0191  2.1531
   45CHL1    C9 5773   3.944   3.506   9.864 -0.2728 -0.4460 -0.3797
   45CHL1    H9 5774   4.012   3.437   9.918  0.0440  0.8207  0.8816
   45CHL1   C10 5775   3.871   3.571   9.990  0.1491 -0.0917  0.5321
   45CHL1   C19 5776   3.743   3.651   9.955 -0.0083  0.5319  0.4611
   45CHL1  H19A 5777   3.657   3.581   9.944 -1.3852  2.1495  0.6192
   45CHL1  H19B 5778   3.717   3.722  10.037  1.4404 -0.1774  1.5608
   45CHL1  H19C 5779   3.767   3.705   9.861  0.7239 -1.7125 -0.6473
   45CHL1    C1 5780   3.824   3.458  10.083  0.0434 -0.2875 -0.0360
   45CHL1   H1A 5781   3.728   3.412  10.051 -0.7192  0.7087  0.7783
   45CHL1   H1B 5782   3.900   3.377  10.089 -0.1680 -0.4880 -0.0404
   45CHL1    C2 5783   3.801   3.488  10.232 -0.1175  0.2332 -0.1797
   45CHL1   H2A 5784   3.782   3.397  10.292  0.0798 -0.4455 -1.1442
   45CHL1   H2B 5785   3.704   3.543  10.235 -1.8753 -2.8680  1.7827
   45CHL1   C20 5786   3.897   3.480   9.357 -0.2683  0.2308 -0.6926
   45CHL1   H20 5787   3.788   3.492   9.370 -0.9405 -4.0258 -1.5192
   45CHL1   C21 5788   3.928   3.328   9.373 -0.3359 -0.6357  0.1394
   45CHL1  H21A 5789   4.036   3.308   9.358 -0.3217 -2.8648  2.7043
   45CHL1  H21B 5790   3.867   3.259   9.311 -1.5376  0.6929 -0.1877
   45CHL1  H21C 5791   3.914   3.298   9.479 -0.6080 -0.0414  0.2749
   45CHL1   C22 5792   3.948   3.523   9.212  0.2047  0.3104 -0.4990
   45CHL1  H22A 5793   3.915   3.629   9.203 -1.5064 -0.2297 -0.8138
   45CHL1  H22B 5794   4.057   3.504   9.211  0.1527  0.0013 -2.1055
   45CHL1   C23 5795   3.889   3.447   9.094 -0.0984 -0.4073  0.3641
   45CHL1  H23A 5796   3.886   3.337   9.105 -2.8897 -0.6290 -2.0656
   45CHL1  H23B 5797   3.785   3.482   9.081  0.5851  0.7896 -2.4933
   45CHL1   C24 5798   3.956   3.475   8.959 -0.3184  1.2861 -0.1377
   45CHL1  H24A 5799   3.913   3.420   8.873  1.1925  0.1063 -0.1680
   45CHL1  H24B 5800   3.944   3.581   8.926 -1.7242  1.8386  2.0227
   45CHL1   C25 5801   4.103   3.431   8.962  0.3627 -0.0431  0.1814
   45CHL1   H25 5802   4.161   3.500   9.028 -2.0309  0.0501  2.2618
   45CHL1   C26 5803   4.124   3.291   9.019  0.9782  0.0640  0.8058
   45CHL1  H26A 5804   4.093   3.274   9.124  0.7461  1.9773  1.0747
   45CHL1  H26B 5805   4.067   3.210   8.968  2.6027 -2.0498  2.3006
   45CHL1  H26C 5806   4.233   3.270   9.012  0.3737 -2.5443 -2.1028
   45CHL1   C27 5807   4.162   3.441   8.826 -0.1457 -0.2681 -0.0494
   45CHL1  H27A 5808   4.152   3.549   8.800 -2.0582  0.1095  2.0856
   45CHL1  H27B 5809   4.270   3.419   8.838 -0.0256 -0.8101 -1.9790
   45CHL1  H27C 5810   4.121   3.376   8.746  1.6624 -0.9685 -0.4408
   46CHL1    C3 5811   6.377   0.797  10.006 -0.0562  0.2206  0.1556
   46CHL1    H3 5812   6.286   0.861  10.000  0.8223  1.3938 -0.7756
   46CHL1    O3 5813   6.424   0.790  10.144  0.0988 -0.6699 -0.6198
   46CHL1   H3' 5814   6.484   0.715  10.142  0.0482 -0.6943 -1.5121
   46CHL1    C4 5815   6.323   0.664   9.964 -0.1668 -0.5828  0.1868
   46CHL1   H4A 5816   6.399   0.583   9.973  0.3812  0.0306  1.1529
   46CHL1   H4B 5817   6.243   0.630  10.034  0.7336 -3.2472 -0.0247
   46CHL1    C5 5818   6.269   0.671   9.820 -0.4987 -1.4098  0.0983
   46CHL1    C6 5819   6.144   0.641   9.789  0.0726 -0.1604 -0.2201
   46CHL1    H6 5820   6.087   0.588   9.866  0.3707  0.9514  0.7810
   46CHL1    C7 5821   6.082   0.635   9.652 -0.4931  0.5609  0.0758
   46CHL1   H7A 5822   6.024   0.542   9.633  2.8740 -1.8403  0.9739
   46CHL1   H7B 5823   6.028   0.731   9.644 -0.3381  0.6355 -0.0964
   46CHL1    C8 5824   6.195   0.645   9.539 -0.3155  0.3287  0.4323
   46CHL1    H8 5825   6.238   0.543   9.539 -1.8457 -0.3483  1.4735
   46CHL1   C14 5826   6.140   0.668   9.403 -0.1680 -1.0310  0.1366
   46CHL1   H14 5827   6.085   0.764   9.407  2.0465  0.4135 -2.8240
   46CHL1   C15 5828   6.028   0.576   9.341 -0.1207 -0.3113 -0.4960
   46CHL1  H15A 5829   6.039   0.467   9.363  1.3278  0.1981  1.4428
   46CHL1  H15B 5830   5.929   0.614   9.375  0.2454  2.0401 -1.9463
   46CHL1   C16 5831   6.042   0.595   9.186 -0.1115  0.4495 -0.1511
   46CHL1  H16A 5832   6.073   0.504   9.130  0.2492 -0.1339  0.9807
   46CHL1  H16B 5833   5.946   0.632   9.144  1.5505  4.2995 -0.7940
   46CHL1   C17 5834   6.147   0.709   9.164  0.8594  0.1556 -0.2780
   46CHL1   H17 5835   6.095   0.806   9.173  1.5282  0.5686 -0.8168
   46CHL1   C13 5836   6.243   0.687   9.287  0.0659  0.4932  0.4955
   46CHL1   C18 5837   6.317   0.551   9.263 -0.0141  0.5344  0.0351
   46CHL1  H18A 5838   6.247   0.467   9.241 -0.7638  1.0324  0.4788
   46CHL1  H18B 5839   6.400   0.564   9.190  1.0030 -2.2865  0.6248
   46CHL1  H18C 5840   6.376   0.516   9.350  0.0330 -0.2638 -0.3118
   46CHL1   C12 5841   6.337   0.807   9.323  0.1869  0.3519  0.0927
   46CHL1  H12A 5842   6.407   0.822   9.238  3.0947  0.5724  2.4412
   46CHL1  H12B 5843   6.268   0.892   9.339  1.9180  1.5176  1.5994
   46CHL1   C11 5844   6.402   0.785   9.465  0.4088 -0.0344  0.1063
   46CHL1  H11A 5845   6.460   0.692   9.450 -1.0085 -0.5627 -2.3398
   46CHL1  H11B 5846   6.455   0.880   9.488 -2.3120  1.1034  2.0719
   46CHL1    C9 5847   6.297   0.758   9.574 -0.5079 -0.4792  0.3674
   46CHL1    H9 5848   6.242   0.851   9.603 -1.6983 -1.0525 -0.0118
   46CHL1   C10 5849   6.361   0.735   9.715 -0.6721  0.0794 -0.0983
   46CHL1   C19 5850   6.486   0.637   9.695 -0.1155  0.0783 -0.4013
   46CHL1  H19A 5851   6.522   0.609   9.797 -3.0478  1.0277  0.9427
   46CHL1  H19B 5852   6.450   0.545   9.644 -0.5985  0.4140 -0.6760
   46CHL1  H19C 5853   6.572   0.674   9.636  0.1551  1.8532  1.0812
   46CHL1    C1 5854   6.408   0.871   9.772  0.3743 -0.1957 -0.0294
   46CHL1   H1A 5855   6.483   0.921   9.707 -1.1130  1.7235 -0.3004
   46CHL1   H1B 5856   6.321   0.940   9.776 -0.4232 -1.1592 -0.3625
   46CHL1    C2 5857   6.476   0.861   9.911  0.4106 -0.4541  1.1334
   46CHL1   H2A 5858   6.497   0.964   9.946 -1.1614 -0.4203  2.0459
   46CHL1   H2B 5859   6.578   0.819   9.901  0.8612  0.6917  0.7953
   46CHL1   C20 5860   6.217   0.718   9.030 -0.2788  0.1374  0.0575
   46CHL1   H20 5861   6.324   0.686   9.029  0.6044  2.9538  0.0561
   46CHL1   C21 5862   6.233   0.865   9.000  0.4118  0.6622 -0.1253
   46CHL1  H21A 5863   6.135   0.918   8.997 -0.8390 -1.6650 -0.8461
   46CHL1  H21B 5864   6.286   0.880   8.904 -3.5081 -1.0148 -2.6621
   46CHL1  H21C 5865   6.297   0.916   9.075  0.7603  1.5950 -1.0461
   46CHL1   C22 5866   6.136   0.652   8.908  0.0940  0.2099  0.2266
   46CHL1  H22A 5867   6.122   0.543   8.926 -0.6685 -0.0641 -1.8802
   46CHL1  H22B 5868   6.029   0.682   8.898 -0.4436 -1.4604  0.7863
   46CHL1   C23 5869   6.197   0.662   8.772 -0.5886 -0.3836  0.6101
   46CHL1  H23A 5870   6.207   0.770   8.748 -0.7427  0.0697  2.4864
   46CHL1  H23B 5871   6.303   0.630   8.772 -0.8322 -1.2265  0.1904
   46CHL1   C24 5872   6.123   0.588   8.660  0.4022 -0.5845 -0.5025
   46CHL1  H24A 5873   6.066   0.503   8.703  0.2843 -0.3573 -0.2146
   46CHL1  H24B 5874   6.047   0.652   8.612  2.9737  1.5310 -1.9041
   46CHL1   C25 5875   6.210   0.539   8.542 -0.2247 -0.0063 -1.2878
   46CHL1   H25 5876   6.314   0.525   8.581 -0.1358  2.1105 -0.6837
   46CHL1   C26 5877   6.142   0.411   8.487  0.2358  0.2415 -1.0773
   46CHL1  H26A 5878   6.037   0.427   8.455 -0.0374  0.8288  0.0805
   46CHL1  H26B 5879   6.208   0.374   8.406 -0.2837 -2.2425 -0.3870
   46CHL1  H26C 5880   6.140   0.329   8.561  0.0245  0.2666 -1.0530
   46CHL1   C27 5881   6.226   0.647   8.434 -0.4556 -0.0272  0.4719
   46CHL1  H27A 5882   6.318   0.624   8.376  0.3164  1.0434  1.2517
   46CHL1  H27B 5883   6.136   0.635   8.370  0.2931 -2.0997 -0.2281
   46CHL1  H27C 5884   6.234   0.751   8.473  0.0413  1.3280 -2.9942
   47CHL1    C3 5885   0.911   4.651  10.177  0.8045 -0.0960 -0.7494
   47CHL1    H3 5886   1.018   4.656  10.148  0.5506  2.9369 -1.3602
   47CHL1    O3 5887   0.904   4.638  10.319 -0.0234 -0.0903  0.0882
   47CHL1   H3' 5888   0.814   4.660  10.347  0.2012 -0.5015  1.1384
   47CHL1    C4 5889   0.852   4.781  10.132  0.2148  0.4636  0.1144
   47CHL1   H4A 5890   0.743   4.782  10.154  0.5490 -1.2048  1.9318
   47CHL1   H4B 5891   0.905   4.866  10.181 -0.1119  0.9221 -0.3243
   47CHL1    C5 5892   0.859   4.793   9.976  0.6714  0.2307  0.1603
   47CHL1    C6 5893   0.919   4.898   9.919 -0.3328 -0.3595 -0.0376
   47CHL1    H6 5894   0.970   4.969   9.987  1.2880  0.5644 -2.1552
   47CHL1    C7 5895   0.939   4.916   9.770  0.4632 -0.0886  0.3682
   47CHL1   H7A 5896   0.909   5.018   9.739  1.2032 -0.6414 -2.3029
   47CHL1   H7B 5897   1.045   4.896   9.743 -0.0760 -1.3333 -0.9242
   47CHL1    C8 5898   0.853   4.815   9.688  0.6254 -0.2107  0.1796
   47CHL1    H8 5899   0.746   4.843   9.685  0.2598 -0.7835  4.2448
   47CHL1   C14 5900   0.900   4.812   9.542  0.4353  0.9666  0.2849
   47CHL1   H14 5901   1.011   4.801   9.542  0.4238  0.8224 -0.3716
   47CHL1   C15 5902   0.883   4.942   9.461 -0.8990 -0.4320 -0.5599
   47CHL1  H15A 5903   0.794   5.005   9.483  0.2666  1.2798 -0.7338
   47CHL1  H15B 5904   0.967   5.011   9.483 -1.3184  1.1178 -3.5875
   47CHL1   C16 5905   0.895   4.902   9.316 -0.4340 -0.0815 -0.2290
   47CHL1  H16A 5906   0.807   4.950   9.267 -1.8550 -1.8406  0.5302
   47CHL1  H16B 5907   0.994   4.932   9.277  1.2099 -5.1340 -0.2698
   47CHL1   C17 5908   0.901   4.743   9.320 -0.0786  0.0103 -0.1903
   47CHL1   H17 5909   1.011   4.731   9.324 -0.0742  0.3030  0.7524
   47CHL1   C13 5910   0.844   4.701   9.456 -0.2175 -0.4548 -0.1026
   47CHL1   C18 5911   0.690   4.723   9.457  0.3165 -0.3531 -0.1310
   47CHL1  H18A 5912   0.640   4.647   9.394 -0.3755 -0.6268  0.7387
   47CHL1  H18B 5913   0.650   4.716   9.560 -2.0680 -0.2668 -1.0352
   47CHL1  H18C 5914   0.657   4.816   9.405 -1.7082 -2.2623 -2.3547
   47CHL1   C12 5915   0.881   4.560   9.516  0.8922 -0.5392 -0.0219
   47CHL1  H12A 5916   0.828   4.475   9.468  0.6255 -1.4411  1.8336
   47CHL1  H12B 5917   0.989   4.536   9.500  1.5696 -0.2189  3.6677
   47CHL1   C11 5918   0.831   4.551   9.663 -0.1649  0.0672 -0.9358
   47CHL1  H11A 5919   0.727   4.512   9.668 -0.2373  0.4736  2.2060
   47CHL1  H11B 5920   0.898   4.479   9.715  0.5819  0.5889 -1.1674
   47CHL1    C9 5921   0.865   4.677   9.750 -0.5166 -0.2581  0.2839
   47CHL1    H9 5922   0.975   4.665   9.762 -0.0673  2.7159 -0.2729
   47CHL1   C10 5923   0.815   4.672   9.899  0.9885 -0.1806  0.5452
   47CHL1   C19 5924   0.660   4.669   9.896  0.2508  0.1311 -0.5284
   47CHL1  H19A 5925   0.627   4.671  10.002 -1.8418  3.6486 -1.1638
   47CHL1  H19B 5926   0.624   4.762   9.847 -1.5879  1.2322  2.8043
   47CHL1  H19C 5927   0.607   4.586   9.845 -1.1152 -0.0760  1.1840
   47CHL1    C1 5928   0.868   4.542   9.971  0.4156 -0.4793  0.9638
   47CHL1   H1A 5929   0.822   4.453   9.922  0.2689  0.7307 -1.1839
   47CHL1   H1B 5930   0.976   4.538   9.945  0.0701 -1.2258 -0.4367
   47CHL1    C2 5931   0.850   4.528  10.120  1.2273  0.1647 -0.5987
   47CHL1   H2A 5932   0.892   4.435  10.164  0.3890  1.2349  2.5660
   47CHL1   H2B 5933   0.742   4.526  10.147  0.9804 -2.4776 -1.6431
   47CHL1   C20 5934   0.856   4.679   9.186  0.4213 -0.0387 -0.6620
   47CHL1   H20 5935   0.747   4.692   9.167  0.3161  0.4538  0.2632
   47CHL1   C21 5936   0.888   4.526   9.200  0.3215 -0.4732  0.6789
   47CHL1  H21A 5937   0.815   4.463   9.255  0.3049 -0.5355  0.5840
   47CHL1  H21B 5938   0.989   4.505   9.240  0.8204 -0.8759 -0.7615
   47CHL1  H21C 5939   0.884   4.483   9.098 -1.7692  3.6884 -1.0930
   47CHL1   C22 5940   0.927   4.739   9.050  0.4844  0.0093  0.1781
   47CHL1  H22A 5941   0.917   4.849   9.046 -1.3860 -0.1916 -1.5850
   47CHL1  H22B 5942   1.032   4.709   9.068  1.2083  2.1574 -0.4226
   47CHL1   C23 5943   0.865   4.690   8.917 -0.3569  0.0112  0.1183
   47CHL1  H23A 5944   0.878   4.580   8.913  0.6435  0.1426 -0.3869
   47CHL1  H23B 5945   0.759   4.722   8.925 -0.0227  1.3271 -0.6644
   47CHL1   C24 5946   0.928   4.748   8.794 -0.0231 -0.9081  0.3507
   47CHL1  H24A 5947   0.964   4.850   8.819  1.1425 -0.4868 -2.7693
   47CHL1  H24B 5948   1.016   4.692   8.756 -0.6873 -0.4459 -1.9222
   47CHL1   C25 5949   0.825   4.766   8.673 -0.3392  0.2738  0.7556
   47CHL1   H25 5950   0.758   4.847   8.708 -2.1059 -0.6007 -0.5474
   47CHL1   C26 5951   0.895   4.819   8.546  0.3145  0.1312 -0.4671
   47CHL1  H26A 5952   0.950   4.912   8.572 -0.0815 -0.0389  1.0395
   47CHL1  H26B 5953   0.812   4.850   8.479 -1.1739 -1.0738  0.7848
   47CHL1  H26C 5954   0.962   4.745   8.496  0.2520 -0.9525  1.0027
   47CHL1   C27 5955   0.730   4.645   8.659  0.3999 -0.0917 -0.2298
   47CHL1  H27A 5956   0.688   4.636   8.556  1.0663 -2.6995 -0.2893
   47CHL1  H27B 5957   0.784   4.549   8.665  0.9124  0.1714 -0.5276
   47CHL1  H27C 5958   0.648   4.637   8.733  0.0788  1.8083 -0.3489
   48CHL1    C3 5959   1.551   5.538  10.146  0.3951 -0.7885 -0.2980
   48CHL1    H3 5960   1.652   5.494  10.158  0.1859 -0.7403  1.9596
   48CHL1    O3 5961   1.526   5.625  10.253  0.0480 -0.0392  0.0127
   48CHL1   H3' 5962   1.436   5.611  10.284 -0.5930  0.8417 -1.4311
   48CHL1    C4 5963   1.534   5.613  10.007  1.1285 -0.2200 -0.1076
   48CHL1   H4A 5964   1.448   5.683  10.008 -0.1652 -1.7712 -0.5574
   48CHL1   H4B 5965   1.624   5.677   9.993  0.8248 -0.0183 -1.1810
   48CHL1    C5 5966   1.529   5.527   9.884  0.4545 -0.2065  0.9155
   48CHL1    C6 5967   1.615   5.547   9.780  0.6532 -0.9851 -0.4482
   48CHL1    H6 5968   1.698   5.618   9.786  0.6257 -0.9248 -0.7733
   48CHL1    C7 5969   1.596   5.460   9.658 -0.0693 -0.5978 -0.2929
   48CHL1   H7A 5970   1.613   5.518   9.565  0.4636 -0.0184  0.1697
   48CHL1   H7B 5971   1.677   5.384   9.655  0.3870 -0.1428  0.5941
   48CHL1    C8 5972   1.458   5.380   9.639  0.2423  0.1763  0.8958
   48CHL1    H8 5973   1.377   5.448   9.605  1.2226 -0.1479 -2.3380
   48CHL1   C14 5974   1.480   5.268   9.545 -0.8025 -0.6661  0.4611
   48CHL1   H14 5975   1.563   5.204   9.584  0.5066  0.2863 -0.7313
   48CHL1   C15 5976   1.530   5.296   9.411 -0.0980 -0.4785 -0.6144
   48CHL1  H15A 5977   1.474   5.372   9.352 -0.4416 -0.7433 -0.6326
   48CHL1  H15B 5978   1.636   5.328   9.419 -0.5011  0.6286  0.3660
   48CHL1   C16 5979   1.520   5.160   9.336  0.5814  0.2574 -0.3297
   48CHL1  H16A 5980   1.476   5.180   9.236  0.3233 -0.0272 -0.2729
   48CHL1  H16B 5981   1.619   5.115   9.311  0.8519  2.5141 -3.6081
   48CHL1   C17 5982   1.431   5.067   9.428 -0.4596  0.4650  0.5796
   48CHL1   H17 5983   1.487   4.995   9.491 -2.2734 -1.4689  0.0217
   48CHL1   C13 5984   1.365   5.162   9.530 -0.0671  0.1442  0.1459
   48CHL1   C18 5985   1.245   5.231   9.462 -0.7296  0.2874  0.0505
   48CHL1  H18A 5986   1.277   5.255   9.358 -1.4438 -0.9872 -0.4751
   48CHL1  H18B 5987   1.160   5.160   9.455  0.4313 -1.0486 -0.7516
   48CHL1  H18C 5988   1.208   5.320   9.518 -0.4769 -1.9011  3.8375
   48CHL1   C12 5989   1.325   5.105   9.664 -0.1512 -0.5889 -1.0490
   48CHL1  H12A 5990   1.233   5.042   9.657  0.0732 -1.1270  0.4999
   48CHL1  H12B 5991   1.414   5.043   9.690 -0.2626 -1.4811 -2.7181
   48CHL1   C11 5992   1.304   5.220   9.762 -0.6766 -0.3708 -0.2058
   48CHL1  H11A 5993   1.215   5.283   9.740 -0.0155  0.5396 -0.2893
   48CHL1  H11B 5994   1.273   5.176   9.859  1.7044  0.4197  0.9439
   48CHL1    C9 5995   1.428   5.314   9.771  0.0951 -0.0350 -0.4259
   48CHL1    H9 5996   1.511   5.244   9.796  0.5345 -0.0135 -1.8020
   48CHL1   C10 5997   1.428   5.413   9.885 -0.0758 -0.3621  0.2363
   48CHL1   C19 5998   1.292   5.490   9.871  1.1363 -0.2642 -0.0299
   48CHL1  H19A 5999   1.266   5.531   9.771  1.8051 -0.4047 -0.2681
   48CHL1  H19B 6000   1.212   5.420   9.905 -1.4913  2.3180 -0.7543
   48CHL1  H19C 6001   1.270   5.575   9.938 -0.1209 -1.8552  1.6377
   48CHL1    C1 6002   1.447   5.336  10.021  0.7677 -0.3359 -1.0158
   48CHL1   H1A 6003   1.386   5.243  10.025  0.6978 -0.2083  1.7151
   48CHL1   H1B 6004   1.549   5.292  10.015  1.0031 -0.2612  1.6861
   48CHL1    C2 6005   1.442   5.429  10.154 -0.0373  0.0019  0.3527
   48CHL1   H2A 6006   1.448   5.356  10.238 -1.6479  0.3610  0.8073
   48CHL1   H2B 6007   1.344   5.482  10.145 -0.2120 -0.5748 -1.4543
   48CHL1   C20 6008   1.342   4.976   9.338  0.6440  0.7697  0.4500
   48CHL1   H20 6009   1.272   5.038   9.278  0.8387  0.5620  0.0113
   48CHL1   C21 6010   1.270   4.871   9.427 -0.3673 -0.1542  0.8355
   48CHL1  H21A 6011   1.337   4.808   9.489 -1.0512  0.2642  2.0385
   48CHL1  H21B 6012   1.215   4.797   9.365 -0.0584 -0.6815  1.1823
   48CHL1  H21C 6013   1.202   4.932   9.491 -0.2904  0.3211  0.4602
   48CHL1   C22 6014   1.432   4.885   9.246  0.4898 -0.4660  0.4756
   48CHL1  H22A 6015   1.510   4.942   9.192  0.9013 -1.4491  0.0354
   48CHL1  H22B 6016   1.477   4.798   9.297 -0.9209 -1.4300  0.1171
   48CHL1   C23 6017   1.352   4.820   9.128  0.2896 -0.1075 -0.0171
   48CHL1  H23A 6018   1.297   4.732   9.167 -1.5079  0.4842 -1.1668
   48CHL1  H23B 6019   1.275   4.889   9.088 -1.3981 -1.3083  1.1016
   48CHL1   C24 6020   1.451   4.763   9.023  0.3066  0.2910 -0.0010
   48CHL1  H24A 6021   1.493   4.851   8.970 -2.7189  1.8685  0.1136
   48CHL1  H24B 6022   1.534   4.714   9.077  0.7314  0.7423 -0.2455
   48CHL1   C25 6023   1.377   4.686   8.915  0.1040  0.0539 -0.4676
   48CHL1   H25 6024   1.303   4.765   8.890 -0.9541 -0.6337  0.4180
   48CHL1   C26 6025   1.480   4.675   8.804  0.4510  0.3922 -0.1921
   48CHL1  H26A 6026   1.561   4.610   8.843  0.5578 -0.0399 -1.1279
   48CHL1  H26B 6027   1.452   4.618   8.713  1.6957  0.6636 -0.7477
   48CHL1  H26C 6028   1.522   4.776   8.783  1.9864  0.0167  1.0362
   48CHL1   C27 6029   1.314   4.551   8.943  0.5701  0.0934  0.5121
   48CHL1  H27A 6030   1.382   4.488   9.005  1.1533 -1.9477 -2.0811
   48CHL1  H27B 6031   1.219   4.567   8.999  0.0162 -2.4011  0.3481
   48CHL1  H27C 6032   1.297   4.490   8.852  1.7757 -1.6910  1.4321
   49CHL1    C3 6033   6.153   0.149  10.145 -0.0885  0.4255  0.3053
   49CHL1    H3 6034   6.079   0.067  10.143  0.3282  0.0796 -1.6378
   49CHL1    O3 6035   6.208   0.174  10.278 -0.5188 -0.5129  0.3628
   49CHL1   H3' 6036   6.135   0.221  10.319  0.2969  0.4030  0.7677
   49CHL1    C4 6037   6.271   0.099  10.062  0.0301  0.3371 -0.7590
   49CHL1   H4A 6038   6.348   0.179  10.059  2.4773 -1.6987  3.5047
   49CHL1   H4B 6039   6.312   0.002  10.097 -2.3936 -0.2345  0.5925
   49CHL1    C5 6040   6.225   0.067   9.922 -0.5184  0.3511  0.5008
   49CHL1    C6 6041   6.235  -0.051   9.867 -0.4743 -0.4455  0.8897
   49CHL1    H6 6042   6.278  -0.128   9.932  0.4434 -0.2350  0.5358
   49CHL1    C7 6043   6.217  -0.090   9.727 -0.4189 -0.3074 -0.1224
   49CHL1   H7A 6044   6.308  -0.143   9.691  0.4402  0.3135  1.0876
   49CHL1   H7B 6045   6.132  -0.161   9.719  0.8501 -1.9385  0.4020
   49CHL1    C8 6046   6.185   0.034   9.633  0.0994 -0.3331  0.7843
   49CHL1    H8 6047   6.288   0.076   9.631  1.2375 -2.9414  2.3997
   49CHL1   C14 6048   6.135  -0.001   9.493 -0.0230  0.4325  0.5786
   49CHL1   H14 6049   6.034  -0.044   9.506 -0.8803  1.5163 -2.1453
   49CHL1   C15 6050   6.227  -0.102   9.412 -0.1567  0.3755  0.2581
   49CHL1  H15A 6051   6.335  -0.098   9.434  0.8599  1.3166 -4.4135
   49CHL1  H15B 6052   6.194  -0.205   9.439 -0.7855  1.0002  2.0050
   49CHL1   C16 6053   6.192  -0.073   9.268 -0.1436 -0.7857  0.1033
   49CHL1  H16A 6054   6.285  -0.043   9.214  0.8308 -0.7783  1.7227
   49CHL1  H16B 6055   6.139  -0.151   9.210  0.5470 -2.0153  1.0905
   49CHL1   C17 6056   6.084   0.047   9.274  0.2499  0.3921  0.4444
   49CHL1   H17 6057   5.983   0.003   9.281  0.5431 -0.2424  0.7420
   49CHL1   C13 6058   6.116   0.119   9.407 -0.0011 -0.4264  0.3851
   49CHL1   C18 6059   6.238   0.209   9.397 -0.3527  0.1824  0.6705
   49CHL1  H18A 6060   6.272   0.237   9.499  0.7968  0.2893  0.2708
   49CHL1  H18B 6061   6.319   0.157   9.340 -1.2820  1.1956 -1.6311
   49CHL1  H18C 6062   6.213   0.300   9.338 -0.2745 -0.7038 -0.7456
   49CHL1   C12 6063   5.998   0.199   9.481  0.4644  0.0505  0.1349
   49CHL1  H12A 6064   5.966   0.285   9.418 -1.7599 -0.3690  0.6759
   49CHL1  H12B 6065   5.908   0.135   9.482  1.0336 -0.7806 -1.1473
   49CHL1   C11 6066   6.034   0.244   9.625 -0.3024  0.4001 -0.5328
   49CHL1  H11A 6067   6.109   0.325   9.613 -2.1198  2.0326 -0.9400
   49CHL1  H11B 6068   5.939   0.282   9.667 -0.7034  0.7774 -1.7774
   49CHL1    C9 6069   6.094   0.130   9.712  0.3304 -0.8630  0.5443
   49CHL1    H9 6070   6.007   0.067   9.738 -1.0294  0.8836  0.3072
   49CHL1   C10 6071   6.166   0.182   9.839  0.1761 -0.2225  0.7556
   49CHL1   C19 6072   6.269   0.288   9.815  0.2202  0.4189 -0.8657
   49CHL1  H19A 6073   6.344   0.256   9.739 -0.1667 -0.9318 -0.6861
   49CHL1  H19B 6074   6.225   0.384   9.782  1.7085  0.6108 -2.3901
   49CHL1  H19C 6075   6.310   0.315   9.915  2.1750 -1.4192 -1.1215
   49CHL1    C1 6076   6.057   0.249   9.933 -0.1706 -0.1683  0.0724
   49CHL1   H1A 6077   6.029   0.347   9.890 -0.9763 -0.3082  0.2830
   49CHL1   H1B 6078   5.965   0.187   9.940 -0.3745 -0.2757 -2.9220
   49CHL1    C2 6079   6.091   0.277  10.089  0.6879 -0.2776  0.3190
   49CHL1   H2A 6080   5.996   0.302  10.141 -0.1488 -2.1978 -0.2591
   49CHL1   H2B 6081   6.162   0.362  10.097  0.4767  0.0804 -1.4000
   49CHL1   C20 6082   6.077   0.137   9.153  0.0429 -0.4363  0.6089
   49CHL1   H20 6083   6.060   0.240   9.192 -1.2189  0.7602 -2.9248
   49CHL1   C21 6084   5.957   0.082   9.063  0.3167 -0.2586  0.0969
   49CHL1  H21A 6085   5.864   0.070   9.124  0.7065  0.1444  0.7830
   49CHL1  H21B 6086   5.980  -0.019   9.023  1.4586  0.4720 -1.1004
   49CHL1  H21C 6087   5.925   0.156   8.987 -2.4366  0.5476  1.9335
   49CHL1   C22 6088   6.194   0.150   9.053  0.2146 -0.3734  0.1226
   49CHL1  H22A 6089   6.273   0.176   9.126  0.1215 -0.0269  0.1014
   49CHL1  H22B 6090   6.219   0.053   9.005  0.9265  0.3293 -0.9504
   49CHL1   C23 6091   6.180   0.252   8.945  0.0119  0.2508 -0.1861
   49CHL1  H23A 6092   6.113   0.218   8.863 -1.7785  0.5151  1.1281
   49CHL1  H23B 6093   6.141   0.344   8.992  0.1654  1.0132 -1.5484
   49CHL1   C24 6094   6.310   0.284   8.882  0.2044  0.8454 -0.0208
   49CHL1  H24A 6095   6.301   0.362   8.803  1.9377 -1.1652 -2.2697
   49CHL1  H24B 6096   6.378   0.325   8.961  2.4560 -2.7335 -0.0250
   49CHL1   C25 6097   6.390   0.163   8.818 -0.6428 -0.2990  0.0485
   49CHL1   H25 6098   6.357   0.083   8.888 -2.1043 -0.5949 -0.9635
   49CHL1   C26 6099   6.330   0.130   8.680 -0.5129 -0.1922  0.0869
   49CHL1  H26A 6100   6.375   0.184   8.593  0.4123 -0.5910  0.3198
   49CHL1  H26B 6101   6.352   0.025   8.652  2.9256  0.8607 -1.4906
   49CHL1  H26C 6102   6.219   0.136   8.674 -0.5180 -0.0219  0.3620
   49CHL1   C27 6103   6.539   0.182   8.816 -0.1637  0.2463 -0.0512
   49CHL1  H27A 6104   6.585   0.084   8.790  0.0598 -0.1490  1.7855
   49CHL1  H27B 6105   6.575   0.261   8.747 -0.7525  0.7385  0.2008
   49CHL1  H27C 6106   6.572   0.210   8.918  0.0769  0.0504 -0.0763
   50CHL1    C3 6107   3.010   2.837  10.185  0.0602  0.2855  0.1769
   50CHL1    H3 6108   2.904   2.833  10.151  0.2856  1.9717 -0.7800
   50CHL1    O3 6109   3.021   2.872  10.322  0.1709  0.2103 -0.2021
   50CHL1   H3' 6110   2.968   2.951  10.335  0.0942 -0.2591  2.9766
   50CHL1    C4 6111   3.080   2.703  10.183  0.4932 -0.4112  0.4014
   50CHL1   H4A 6112   3.182   2.720  10.223  0.6768  0.9575 -0.5894
   50CHL1   H4B 6113   3.032   2.630  10.250 -2.9334  1.9431  0.6652
   50CHL1    C5 6114   3.092   2.650  10.041 -0.2666  0.0637  0.3824
   50CHL1    C6 6115   3.035   2.534  10.003  0.0686  0.7529 -0.7699
   50CHL1    H6 6116   2.985   2.472  10.079  1.4248  1.3927  0.6868
   50CHL1    C7 6117   3.050   2.481   9.863  0.1198  1.0562 -0.0858
   50CHL1   H7A 6118   3.060   2.370   9.861  0.2341  0.9921  2.4661
   50CHL1   H7B 6119   2.952   2.503   9.815 -0.1552  0.4315  0.1722
   50CHL1    C8 6120   3.162   2.545   9.772  0.3309  0.6896  0.1480
   50CHL1    H8 6121   3.257   2.500   9.806  0.3734  0.1286 -0.7203
   50CHL1   C14 6122   3.143   2.516   9.624  0.3553  0.2651 -0.1473
   50CHL1   H14 6123   3.050   2.571   9.599 -1.2898 -2.6235 -0.6423
   50CHL1   C15 6124   3.119   2.372   9.568 -0.2891 -0.1064 -0.3032
   50CHL1  H15A 6125   3.163   2.290   9.630 -0.3889  1.8445  2.4414
   50CHL1  H15B 6126   3.008   2.365   9.569 -0.3158  0.3321  0.3308
   50CHL1   C16 6127   3.186   2.375   9.432  0.2559  0.1941  0.3006
   50CHL1  H16A 6128   3.283   2.321   9.438 -0.1326 -0.7620 -1.6467
   50CHL1  H16B 6129   3.126   2.328   9.352 -0.5426  1.6207  0.0367
   50CHL1   C17 6130   3.212   2.531   9.397  0.8393  0.3793 -0.6658
   50CHL1   H17 6131   3.115   2.565   9.357  0.7181 -0.6296 -1.2564
   50CHL1   C13 6132   3.245   2.587   9.538  0.5961 -0.2347 -0.1642
   50CHL1   C18 6133   3.388   2.546   9.583  0.1796 -0.1493 -0.2570
   50CHL1  H18A 6134   3.421   2.582   9.683  0.1000 -1.9246  0.4292
   50CHL1  H18B 6135   3.400   2.436   9.575  0.1954 -0.2044  0.5296
   50CHL1  H18C 6136   3.457   2.583   9.505 -0.4527 -0.6148 -1.0434
   50CHL1   C12 6137   3.228   2.741   9.549 -0.0541 -0.6908  0.1413
   50CHL1  H12A 6138   3.300   2.793   9.483  1.2231 -2.1738  0.3210
   50CHL1  H12B 6139   3.127   2.762   9.508 -0.2580  1.0193  1.4656
   50CHL1   C11 6140   3.239   2.789   9.698  0.7137  0.6985  0.0975
   50CHL1  H11A 6141   3.345   2.777   9.730  0.2556 -2.6385  0.5073
   50CHL1  H11B 6142   3.207   2.896   9.703  0.9799  0.7289  1.2903
   50CHL1    C9 6143   3.158   2.698   9.791  0.3598  0.4739  0.1554
   50CHL1    H9 6144   3.053   2.723   9.761  0.6710 -0.0758 -1.4330
   50CHL1   C10 6145   3.173   2.739   9.945  0.6913 -0.7935  0.3880
   50CHL1   C19 6146   3.317   2.721   9.988  1.2517 -0.5237  0.3921
   50CHL1  H19A 6147   3.358   2.619   9.983  1.7559 -0.3526  0.9969
   50CHL1  H19B 6148   3.377   2.801   9.940 -0.0834  0.7058  0.7093
   50CHL1  H19C 6149   3.327   2.760  10.092  2.0258  1.9303 -0.5603
   50CHL1    C1 6150   3.123   2.892   9.963 -0.2218 -0.3811 -0.3524
   50CHL1   H1A 6151   3.185   2.967   9.909  0.9378 -1.0672  0.0266
   50CHL1   H1B 6152   3.022   2.892   9.916 -1.0768  1.7869  1.4037
   50CHL1    C2 6153   3.086   2.938  10.103 -0.8810 -0.1581 -0.8213
   50CHL1   H2A 6154   3.040   3.038  10.089 -0.8740  0.3564  2.3431
   50CHL1   H2B 6155   3.181   2.960  10.157 -0.9514  2.0308 -1.5104
   50CHL1   C20 6156   3.311   2.546   9.271  0.7162  0.6372 -0.0918
   50CHL1   H20 6157   3.414   2.519   9.303  0.5621 -0.7964 -0.7309
   50CHL1   C21 6158   3.303   2.687   9.213 -0.1114  0.1101 -0.0726
   50CHL1  H21A 6159   3.194   2.710   9.212  0.0998  1.1871  0.6580
   50CHL1  H21B 6160   3.338   2.680   9.108 -0.2057  0.5152 -0.1327
   50CHL1  H21C 6161   3.356   2.767   9.270 -1.0308  0.1936  0.6883
   50CHL1   C22 6162   3.292   2.431   9.160  0.3839 -0.0424 -0.0852
   50CHL1  H22A 6163   3.377   2.449   9.091 -0.2430  0.4514 -0.7398
   50CHL1  H22B 6164   3.293   2.329   9.204 -2.2067  0.3229  0.8943
   50CHL1   C23 6165   3.155   2.447   9.083 -0.0220 -0.1710 -0.4938
   50CHL1  H23A 6166   3.075   2.417   9.153  1.5652 -0.2618  1.3161
   50CHL1  H23B 6167   3.152   2.557   9.066  0.5632  0.2925  2.1724
   50CHL1   C24 6168   3.142   2.367   8.953 -0.0212 -0.2341 -0.2089
   50CHL1  H24A 6169   3.229   2.395   8.889 -0.9512  2.1817 -0.4817
   50CHL1  H24B 6170   3.129   2.257   8.964  1.0164 -0.4126 -0.7290
   50CHL1   C25 6171   3.010   2.401   8.870 -0.1577 -0.5613 -0.2504
   50CHL1   H25 6172   3.008   2.511   8.855  1.4745 -0.4257  0.4774
   50CHL1   C26 6173   3.017   2.336   8.731 -1.0978  0.3751  0.3187
   50CHL1  H26A 6174   2.922   2.359   8.678 -1.6902 -0.2126  1.1054
   50CHL1  H26B 6175   3.108   2.371   8.678 -1.6199  1.5780  0.2023
   50CHL1  H26C 6176   3.021   2.226   8.745  2.8296  0.4108  0.0162
   50CHL1   C27 6177   2.884   2.359   8.944 -0.1385  0.7419  0.1761
   50CHL1  H27A 6178   2.900   2.381   9.051 -1.0655  0.1156  0.4476
   50CHL1  H27B 6179   2.792   2.413   8.914 -0.6308  0.9032  1.9494
   50CHL1  H27C 6180   2.860   2.251   8.929 -2.3871  1.1611  0.5731
   51CHL1    C3 6181   4.102   5.237  10.371  0.7503 -0.5987 -0.2237
   51CHL1    H3 6182   4.089   5.127  10.384 -1.1377 -0.0294  3.5132
   51CHL1    O3 6183   4.129   5.285  10.500 -0.3532  0.6237 -0.4618
   51CHL1   H3' 6184   4.171   5.209  10.541  0.1757  0.4332 -1.3332
   51CHL1    C4 6185   4.220   5.259  10.272 -0.2796  0.5199  0.1258
   51CHL1   H4A 6186   4.257   5.364  10.273 -1.0132  0.8427 -2.6726
   51CHL1   H4B 6187   4.292   5.187  10.316 -1.6751 -1.4546 -0.7675
   51CHL1    C5 6188   4.179   5.223  10.129  0.2820 -0.3204  1.1269
   51CHL1    C6 6189   4.250   5.127  10.051 -0.0692 -0.6227  0.0822
   51CHL1    H6 6190   4.340   5.074  10.087 -0.2698 -0.7889  0.3383
   51CHL1    C7 6191   4.203   5.079   9.919 -0.2087  0.0724 -0.1271
   51CHL1   H7A 6192   4.286   5.069   9.847 -0.3975  1.6343 -0.5916
   51CHL1   H7B 6193   4.158   4.979   9.935  0.3103 -0.1917 -0.3172
   51CHL1    C8 6194   4.102   5.169   9.847 -0.0248 -0.2500  0.4146
   51CHL1    H8 6195   4.149   5.266   9.823  0.6858 -0.5567  0.5361
   51CHL1   C14 6196   4.048   5.113   9.714 -0.5792  0.5505  0.2635
   51CHL1   H14 6197   3.993   5.023   9.749 -1.0558  0.3670 -0.9227
   51CHL1   C15 6198   4.152   5.051   9.620 -0.0414 -0.1690  0.4527
   51CHL1  H15A 6199   4.249   5.105   9.624 -1.1867  2.3316 -2.8245
   51CHL1  H15B 6200   4.183   4.949   9.652  1.5226  0.8474  2.2979
   51CHL1   C16 6201   4.082   5.051   9.487 -0.0828  0.2674  0.5435
   51CHL1  H16A 6202   4.140   5.101   9.407 -0.7413  1.4720  0.8035
   51CHL1  H16B 6203   4.065   4.947   9.451 -2.4548  0.7334  0.2508
   51CHL1   C17 6204   3.945   5.125   9.505 -0.3732  0.2517 -0.3099
   51CHL1   H17 6205   3.863   5.052   9.524  1.9635 -3.2244 -2.9433
   51CHL1   C13 6206   3.955   5.204   9.640 -0.7171  0.3394 -0.1791
   51CHL1   C18 6207   4.023   5.335   9.603 -0.2624  0.6414 -0.9734
   51CHL1  H18A 6208   4.114   5.322   9.540  0.4595  0.1198  0.1750
   51CHL1  H18B 6209   3.949   5.393   9.544 -1.4349  0.1340 -0.0252
   51CHL1  H18C 6210   4.043   5.392   9.696  2.2615 -0.6459 -0.6785
   51CHL1   C12 6211   3.824   5.226   9.731 -0.2094  0.0836  0.2740
   51CHL1  H12A 6212   3.751   5.306   9.707  2.8316  2.4971 -1.3692
   51CHL1  H12B 6213   3.789   5.122   9.746 -0.5024  0.4681  2.4567
   51CHL1   C11 6214   3.874   5.279   9.871  0.2939 -0.3599 -0.0089
   51CHL1  H11A 6215   3.907   5.384   9.861 -1.5954  0.2097 -0.4640
   51CHL1  H11B 6216   3.779   5.279   9.929 -0.3167 -1.4423 -0.9954
   51CHL1    C9 6217   3.988   5.202   9.939 -0.0028 -0.3259 -0.1548
   51CHL1    H9 6218   3.939   5.110   9.978  1.5339 -0.6711  1.0089
   51CHL1   C10 6219   4.040   5.278  10.075 -0.2961  0.3744  0.5754
   51CHL1   C19 6220   4.064   5.427  10.051  0.5101 -0.4014 -0.3566
   51CHL1  H19A 6221   3.970   5.473  10.015  2.6499  3.5748 -1.1528
   51CHL1  H19B 6222   4.097   5.483  10.141  1.8734 -0.2386 -0.9488
   51CHL1  H19C 6223   4.141   5.440   9.971  0.2585  1.7683 -0.2763
   51CHL1    C1 6224   3.928   5.254  10.178  0.2956  0.3209 -1.0394
   51CHL1   H1A 6225   3.834   5.300  10.139 -0.4491  0.5870  1.0044
   51CHL1   H1B 6226   3.909   5.144  10.184  0.5181  0.4028  2.9051
   51CHL1    C2 6227   3.970   5.299  10.321 -0.2720  0.7023 -0.1988
   51CHL1   H2A 6228   3.892   5.276  10.396 -0.6161  0.5451 -0.5997
   51CHL1   H2B 6229   3.982   5.409  10.331 -3.9999  0.9514  2.7402
   51CHL1   C20 6230   3.891   5.191   9.374 -0.1398  0.2882  0.0634
   51CHL1   H20 6231   3.956   5.278   9.350  0.6595  0.5516  3.0506
   51CHL1   C21 6232   3.753   5.249   9.384 -0.1862 -0.2513  0.0949
   51CHL1  H21A 6233   3.747   5.313   9.474  0.6054 -0.2473  0.1498
   51CHL1  H21B 6234   3.688   5.160   9.398 -0.5434 -0.1271 -0.7618
   51CHL1  H21C 6235   3.721   5.302   9.292 -1.4757  0.6479  1.0546
   51CHL1   C22 6236   3.899   5.089   9.256  0.1147 -0.3486  0.1611
   51CHL1  H22A 6237   3.995   5.034   9.242 -0.9867 -2.2305 -0.1108
   51CHL1  H22B 6238   3.821   5.012   9.271  0.7434 -0.7751  1.3410
   51CHL1   C23 6239   3.874   5.154   9.115  0.9653 -0.6728  0.1532
   51CHL1  H23A 6240   3.862   5.076   9.036 -0.8097  0.6596 -0.9258
   51CHL1  H23B 6241   3.778   5.209   9.112  0.3102 -1.6558  2.2191
   51CHL1   C24 6242   3.987   5.238   9.059  0.2352 -0.6674  0.2963
   51CHL1  H24A 6243   4.003   5.325   9.126  2.2125 -1.4289  0.8631
   51CHL1  H24B 6244   4.081   5.178   9.059  0.5589 -0.1939 -0.9915
   51CHL1   C25 6245   3.957   5.307   8.923 -0.2788  0.3669  0.0026
   51CHL1   H25 6246   3.852   5.342   8.927 -1.2013 -2.0240 -1.6976
   51CHL1   C26 6247   4.044   5.429   8.905  0.2899  0.3347 -1.1264
   51CHL1  H26A 6248   4.152   5.404   8.911  0.7032  2.2149 -0.2803
   51CHL1  H26B 6249   4.025   5.492   8.815  1.0078  1.2476 -0.6432
   51CHL1  H26C 6250   4.022   5.504   8.984 -0.1147 -0.6380 -0.3108
   51CHL1   C27 6251   3.963   5.222   8.791  0.0007 -0.0200 -0.3745
   51CHL1  H27A 6252   3.894   5.136   8.798 -1.1814  1.0276  1.3178
   51CHL1  H27B 6253   3.925   5.293   8.715  0.6881  0.9592  0.1705
   51CHL1  H27C 6254   4.065   5.180   8.778 -0.8953 -2.9723  1.5538
   52CHL1    C3 6255   1.019   4.090  10.072 -0.4158  0.4222  0.5384
   52CHL1    H3 6256   1.108   4.146  10.036  2.7761 -4.9860 -0.5574
   52CHL1    O3 6257   0.999   4.133  10.208  0.5668 -0.4175  0.0177
   52CHL1   H3' 6258   0.913   4.096  10.224  0.1747  0.8452  0.8545
   52CHL1    C4 6259   0.896   4.119   9.981  0.8899  0.3579  0.3919
   52CHL1   H4A 6260   0.803   4.067  10.014  0.0104  1.3842 -0.4464
   52CHL1   H4B 6261   0.877   4.229   9.980 -0.9631  0.0762  1.3391
   52CHL1    C5 6262   0.920   4.076   9.842 -0.1810 -0.6772  0.3756
   52CHL1    C6 6263   0.923   4.161   9.737 -0.7186  0.1252 -0.1353
   52CHL1    H6 6264   0.894   4.267   9.751  1.7975  0.8568 -0.2735
   52CHL1    C7 6265   0.952   4.122   9.595 -0.4903  0.2780  0.5997
   52CHL1   H7A 6266   0.883   4.176   9.527 -0.6489  0.6744  1.0737
   52CHL1   H7B 6267   1.059   4.142   9.573  0.2315 -1.4863  2.3590
   52CHL1    C8 6268   0.934   3.977   9.569 -0.2840 -0.1665 -0.5451
   52CHL1    H8 6269   0.828   3.943   9.578 -0.0905 -0.8136 -0.6315
   52CHL1   C14 6270   0.998   3.941   9.440 -0.1549 -0.5331 -0.4816
   52CHL1   H14 6271   1.106   3.961   9.455 -0.0173 -1.5207 -0.1180
   52CHL1   C15 6272   0.967   4.025   9.315 -0.1082 -0.0926  0.2390
   52CHL1  H15A 6273   0.857   4.043   9.315 -0.2540 -0.9534  0.6073
   52CHL1  H15B 6274   1.014   4.126   9.316  1.1777 -0.6785 -0.4291
   52CHL1   C16 6275   1.008   3.924   9.202 -0.3397  0.2209 -0.9041
   52CHL1  H16A 6276   0.909   3.902   9.158  0.6990 -2.4267 -2.0272
   52CHL1  H16B 6277   1.072   3.978   9.129 -0.5508  0.6048 -0.8068
   52CHL1   C17 6278   1.060   3.793   9.256 -0.2379  0.3928 -0.0761
   52CHL1   H17 6279   1.170   3.796   9.270 -0.2163 -0.6252  0.0051
   52CHL1   C13 6280   1.000   3.791   9.399  0.5296 -0.1368  0.3121
   52CHL1   C18 6281   0.861   3.732   9.394  0.2350  0.6802  0.3354
   52CHL1  H18A 6282   0.816   3.746   9.494  1.1993 -0.2887  0.9208
   52CHL1  H18B 6283   0.803   3.794   9.323  0.2766  1.3708  0.9001
   52CHL1  H18C 6284   0.854   3.623   9.371  1.7428  1.1048 -2.3591
   52CHL1   C12 6285   1.084   3.723   9.510 -0.5226  0.0619 -0.3964
   52CHL1  H12A 6286   1.092   3.616   9.480 -2.4873  0.0621 -1.0482
   52CHL1  H12B 6287   1.184   3.769   9.500  0.2654 -1.5756 -0.1863
   52CHL1   C11 6288   1.034   3.751   9.652 -0.5793  0.4804  0.1228
   52CHL1  H11A 6289   0.937   3.698   9.658 -0.9095  1.2816  2.6281
   52CHL1  H11B 6290   1.103   3.705   9.725  0.5278 -0.3679 -1.4273
   52CHL1    C9 6291   1.007   3.897   9.679  0.3651 -0.4511  0.0729
   52CHL1    H9 6292   1.109   3.942   9.677  1.3877 -2.7061 -1.6195
   52CHL1   C10 6293   0.955   3.919   9.822 -0.4884 -0.6012 -0.1639
   52CHL1   C19 6294   0.823   3.832   9.844 -0.5272 -0.6989  0.0522
   52CHL1  H19A 6295   0.742   3.873   9.780 -1.7989 -0.6691  1.6404
   52CHL1  H19B 6296   0.840   3.723   9.829 -0.2675 -0.4022 -1.9177
   52CHL1  H19C 6297   0.791   3.848   9.949  2.1702 -0.8197  0.9289
   52CHL1    C1 6298   1.074   3.879   9.920 -0.5452  0.1561  0.0511
   52CHL1   H1A 6299   1.076   3.769   9.933 -3.1355  0.0305 -0.2755
   52CHL1   H1B 6300   1.172   3.906   9.875  0.0050 -0.2676  0.9870
   52CHL1    C2 6301   1.054   3.940  10.066  0.5729 -0.4824 -0.9658
   52CHL1   H2A 6302   1.146   3.920  10.125 -0.2963  0.1741  0.6488
   52CHL1   H2B 6303   0.968   3.904  10.127  2.1277  1.0676  2.2843
   52CHL1   C20 6304   1.047   3.683   9.153 -0.6276  0.4969 -0.3294
   52CHL1   H20 6305   0.939   3.660   9.138 -0.3182 -1.6246  0.4769
   52CHL1   C21 6306   1.112   3.552   9.203 -0.0716  0.3375 -0.6569
   52CHL1  H21A 6307   1.097   3.467   9.131  0.0522  0.4838 -0.8553
   52CHL1  H21B 6308   1.079   3.523   9.305 -0.1047 -1.0593 -1.0533
   52CHL1  H21C 6309   1.221   3.569   9.212 -0.0667  0.6115 -1.1852
   52CHL1   C22 6310   1.090   3.728   9.010 -0.1615 -0.3194  0.0958
   52CHL1  H22A 6311   1.072   3.644   8.940 -0.9046  0.8315 -1.1200
   52CHL1  H22B 6312   1.017   3.802   8.970 -0.0513  0.3296  1.0753
   52CHL1   C23 6313   1.238   3.776   9.002 -0.7288 -0.0210 -0.8264
   52CHL1  H23A 6314   1.256   3.855   9.078  1.0589  0.5845 -1.8193
   52CHL1  H23B 6315   1.313   3.694   9.011 -1.0713 -0.1315  1.1188
   52CHL1   C24 6316   1.259   3.839   8.864 -0.0594  0.6711  0.2593
   52CHL1  H24A 6317   1.235   3.770   8.780 -0.7959  1.6333 -0.3320
   52CHL1  H24B 6318   1.200   3.932   8.851  0.1894  0.5340 -2.1595
   52CHL1   C25 6319   1.409   3.876   8.833 -0.4285  0.5760 -0.1594
   52CHL1   H25 6320   1.464   3.780   8.849 -0.4782  0.7493  1.1145
   52CHL1   C26 6321   1.438   3.913   8.697 -0.0318 -0.3435  0.7517
   52CHL1  H26A 6322   1.371   3.997   8.667 -0.7268 -1.0083  0.4410
   52CHL1  H26B 6323   1.545   3.938   8.681 -0.7773  2.6000 -0.1111
   52CHL1  H26C 6324   1.411   3.830   8.629  2.6926 -2.1496  1.8054
   52CHL1   C27 6325   1.462   3.986   8.927  0.0136  0.5086  0.2946
   52CHL1  H27A 6326   1.415   4.083   8.898  0.7498  0.7127 -0.2090
   52CHL1  H27B 6327   1.434   3.956   9.030 -1.4730 -0.2094 -0.3039
   52CHL1  H27C 6328   1.571   3.994   8.908  0.1301 -1.1445  0.2122
   53CHL1    C3 6329   1.795   3.956  10.138  0.3237  0.4202  0.5433
   53CHL1    H3 6330   1.703   3.895  10.126 -0.0280  0.6186  2.1370
   53CHL1    O3 6331   1.793   4.014  10.268 -0.2741 -0.1543 -0.6581
   53CHL1   H3' 6332   1.728   4.085  10.265  0.3817  0.4871  0.0413
   53CHL1    C4 6333   1.914   3.867  10.125 -0.5833 -0.9358  0.2528
   53CHL1   H4A 6334   2.002   3.925  10.161 -2.1393  0.7094  1.5015
   53CHL1   H4B 6335   1.896   3.782  10.195  0.9373 -2.9919 -1.7739
   53CHL1    C5 6336   1.939   3.821   9.978  0.3200  0.8921 -0.5728
   53CHL1    C6 6337   1.964   3.690   9.952  0.2405  0.3865  0.6079
   53CHL1    H6 6338   1.974   3.619  10.036 -2.0530  0.9763  1.3960
   53CHL1    C7 6339   1.993   3.644   9.810 -0.4895 -0.4688  0.6713
   53CHL1   H7A 6340   2.093   3.597   9.811  0.8197  2.0714 -2.0771
   53CHL1   H7B 6341   1.923   3.568   9.768 -1.1401 -0.5307  1.8509
   53CHL1    C8 6342   1.994   3.755   9.703  0.0369  0.2777  0.2632
   53CHL1    H8 6343   2.098   3.795   9.704 -0.5300  1.7524  2.1879
   53CHL1   C14 6344   1.974   3.692   9.565 -0.5217 -0.2634 -0.7030
   53CHL1   H14 6345   1.872   3.648   9.564 -1.1822  1.1461  1.0009
   53CHL1   C15 6346   2.068   3.587   9.519  0.0476  0.2507 -0.5353
   53CHL1  H15A 6347   2.173   3.622   9.524 -0.0943  0.5588  0.5257
   53CHL1  H15B 6348   2.054   3.483   9.558 -1.3745  0.3433 -0.7635
   53CHL1   C16 6349   2.032   3.580   9.368  0.2293 -0.4047 -0.1306
   53CHL1  H16A 6350   2.127   3.592   9.312  1.1095  3.5432  2.0074
   53CHL1  H16B 6351   1.970   3.492   9.341  0.6507 -0.7220 -0.0630
   53CHL1   C17 6352   1.946   3.702   9.326 -0.7229  0.1855 -0.5187
   53CHL1   H17 6353   1.839   3.672   9.330 -1.2809  2.2229  1.0270
   53CHL1   C13 6354   1.965   3.791   9.451  0.2229 -1.1225  0.6458
   53CHL1   C18 6355   2.091   3.882   9.439  0.0798 -0.4268 -0.1662
   53CHL1  H18A 6356   2.176   3.823   9.400  1.6066  0.5441  1.6218
   53CHL1  H18B 6357   2.070   3.964   9.366  1.9651 -0.0204 -0.2596
   53CHL1  H18C 6358   2.112   3.941   9.531  0.3541  0.1288 -0.5823
   53CHL1   C12 6359   1.844   3.883   9.480 -0.2466 -1.1890  0.2187
   53CHL1  H12A 6360   1.836   3.967   9.408  0.1170 -0.1017  1.4182
   53CHL1  H12B 6361   1.749   3.827   9.483  0.3074 -2.3827 -3.1715
   53CHL1   C11 6362   1.865   3.951   9.615  0.3194  0.3961  0.3793
   53CHL1  H11A 6363   1.937   4.036   9.610 -1.0039  1.5119 -0.1667
   53CHL1  H11B 6364   1.778   4.015   9.642  1.2203  1.5247  0.6782
   53CHL1    C9 6365   1.883   3.852   9.730  0.2230 -0.6324 -0.4039
   53CHL1    H9 6366   1.789   3.795   9.743 -0.3659  0.5636  0.7253
   53CHL1   C10 6367   1.923   3.923   9.866  0.3960 -0.1710 -0.2805
   53CHL1   C19 6368   2.057   3.999   9.857  0.5507 -0.0945 -0.1741
   53CHL1  H19A 6369   2.068   4.052   9.953 -1.1091 -0.9666  0.5250
   53CHL1  H19B 6370   2.140   3.930   9.831  1.2984  0.8103 -0.1850
   53CHL1  H19C 6371   2.045   4.067   9.770  0.5983 -2.4325 -2.0760
   53CHL1    C1 6372   1.798   4.012   9.893  0.2036  0.3091 -0.7292
   53CHL1   H1A 6373   1.802   4.098   9.824 -1.5427  1.4757  0.5663
   53CHL1   H1B 6374   1.708   3.951   9.871 -1.1578  0.9009  2.7928
   53CHL1    C2 6375   1.792   4.066  10.035 -0.4697  0.3632 -1.0007
   53CHL1   H2A 6376   1.708   4.135  10.056  0.5291  1.1059  0.7063
   53CHL1   H2B 6377   1.881   4.128  10.060 -1.1703  0.0528  2.4651
   53CHL1   C20 6378   1.964   3.759   9.182  0.0985  0.2799 -0.1657
   53CHL1   H20 6379   2.062   3.813   9.182  0.2040  0.0842  0.3941
   53CHL1   C21 6380   1.859   3.861   9.164  0.1365  0.5680 -0.2382
   53CHL1  H21A 6381   1.757   3.830   9.195  0.5816  1.8544  2.5979
   53CHL1  H21B 6382   1.846   3.879   9.055  0.6347 -2.5895 -0.8925
   53CHL1  H21C 6383   1.897   3.954   9.211 -1.4558  1.3077 -0.3869
   53CHL1   C22 6384   1.957   3.654   9.066  0.6110  0.5204  0.5289
   53CHL1  H22A 6385   2.044   3.588   9.086  1.1239  0.6525 -1.2516
   53CHL1  H22B 6386   1.876   3.582   9.090  2.4086 -1.2700  1.4070
   53CHL1   C23 6387   1.935   3.687   8.920 -0.6848 -0.1401  0.2173
   53CHL1  H23A 6388   1.965   3.594   8.867  1.0177 -0.2021  1.2712
   53CHL1  H23B 6389   1.830   3.693   8.884 -0.4682 -1.5228 -0.6978
   53CHL1   C24 6390   2.030   3.797   8.853 -0.0369 -0.2531 -0.1185
   53CHL1  H24A 6391   2.003   3.897   8.892  1.3807  0.0740  0.0602
   53CHL1  H24B 6392   2.134   3.780   8.889 -0.0061 -1.5684 -0.7811
   53CHL1   C25 6393   2.027   3.798   8.700  0.4407  0.3174 -0.8973
   53CHL1   H25 6394   1.918   3.805   8.680  0.4020 -1.1627 -1.2853
   53CHL1   C26 6395   2.106   3.915   8.645 -0.4010 -0.4701 -0.2100
   53CHL1  H26A 6396   2.062   4.005   8.695  0.4374  0.8975 -1.8840
   53CHL1  H26B 6397   2.208   3.911   8.689 -1.4708  1.1851  2.5506
   53CHL1  H26C 6398   2.102   3.927   8.535  2.0085 -1.9332 -0.4758
   53CHL1   C27 6399   2.079   3.670   8.631  0.9846 -0.2530 -0.6897
   53CHL1  H27A 6400   2.069   3.670   8.521 -0.2957  0.3910 -0.5916
   53CHL1  H27B 6401   2.187   3.654   8.649  0.4906 -2.5469  0.4700
   53CHL1  H27C 6402   2.031   3.577   8.669  1.4703 -0.3701 -0.3602
   54CHL1    C3 6403   1.736   5.248  10.262  0.5527  0.0438 -0.4307
   54CHL1    H3 6404   1.652   5.300  10.211 -0.3877 -2.0985 -1.1015
   54CHL1    O3 6405   1.747   5.277  10.406  0.3096  0.2576 -0.1723
   54CHL1   H3' 6406   1.822   5.227  10.437 -0.1105  0.7667  1.7621
   54CHL1    C4 6407   1.720   5.097  10.246 -0.2635  0.1752  0.4229
   54CHL1   H4A 6408   1.799   5.040  10.301 -0.3526 -1.1616 -0.8070
   54CHL1   H4B 6409   1.622   5.077  10.294 -0.1203 -1.7745 -0.0618
   54CHL1    C5 6410   1.733   5.056  10.101  0.3899 -0.1691  0.1288
   54CHL1    C6 6411   1.642   4.979  10.050 -0.3785  0.3084  0.0154
   54CHL1    H6 6412   1.558   4.931  10.104 -0.3925  0.2465 -0.0613
   54CHL1    C7 6413   1.650   4.925   9.907 -0.4646 -0.0081  0.5254
   54CHL1   H7A 6414   1.634   4.815   9.913 -2.6503  0.2634  0.3379
   54CHL1   H7B 6415   1.561   4.964   9.852 -1.2989 -1.5040  0.7926
   54CHL1    C8 6416   1.781   4.954   9.830 -0.3797  0.3935 -0.7670
   54CHL1    H8 6417   1.855   4.883   9.872  1.3110  1.2501 -2.2234
   54CHL1   C14 6418   1.769   4.942   9.683 -0.0856 -0.3293  0.6738
   54CHL1   H14 6419   1.697   5.021   9.651  0.9353 -0.0448 -0.9543
   54CHL1   C15 6420   1.707   4.811   9.636 -0.7595 -0.0965  0.2960
   54CHL1  H15A 6421   1.744   4.716   9.679  1.2165 -0.8258 -2.8281
   54CHL1  H15B 6422   1.596   4.814   9.644 -0.7955 -1.0531  0.1420
   54CHL1   C16 6423   1.746   4.808   9.484 -0.7291 -0.4997  0.2050
   54CHL1  H16A 6424   1.796   4.713   9.458 -1.5761  0.0736 -3.8987
   54CHL1  H16B 6425   1.653   4.830   9.426 -0.0921 -0.2595 -0.7340
   54CHL1   C17 6426   1.851   4.929   9.461 -0.3007 -0.3429  0.3737
   54CHL1   H17 6427   1.790   5.015   9.428 -0.7045 -1.3877 -1.6792
   54CHL1   C13 6428   1.900   4.958   9.604 -0.8129  0.1543 -0.3651
   54CHL1   C18 6429   1.996   4.841   9.646  0.0395 -0.0694  0.2252
   54CHL1  H18A 6430   1.956   4.742   9.614  1.8863 -1.1869  1.3088
   54CHL1  H18B 6431   2.096   4.857   9.601  0.4861  1.3892  1.6921
   54CHL1  H18C 6432   2.021   4.835   9.754  0.0121 -1.3755  0.1702
   54CHL1   C12 6433   1.951   5.100   9.629  1.0578  0.7870  0.4108
   54CHL1  H12A 6434   2.051   5.116   9.583  1.7181 -0.3030  1.4500
   54CHL1  H12B 6435   1.880   5.175   9.588 -1.5095 -1.8748 -0.2283
   54CHL1   C11 6436   1.968   5.122   9.784  0.3283  0.0270  0.4019
   54CHL1  H11A 6437   2.055   5.059   9.813  0.0317  0.3198  2.0063
   54CHL1  H11B 6438   1.985   5.230   9.806 -0.3850  0.6187 -1.8108
   54CHL1    C9 6439   1.840   5.093   9.866 -0.4503  0.1248  0.0647
   54CHL1    H9 6440   1.764   5.168   9.833 -1.2285 -0.0222  1.4717
   54CHL1   C10 6441   1.856   5.117  10.024  1.0193 -0.0052  0.8773
   54CHL1   C19 6442   1.982   5.032  10.064  0.5919 -0.4720 -0.2911
   54CHL1  H19A 6443   2.070   5.077  10.014 -1.0361  1.6568 -1.2990
   54CHL1  H19B 6444   1.996   5.027  10.174 -1.1665  1.2925  0.0460
   54CHL1  H19C 6445   1.966   4.924  10.040 -0.3625 -0.5589  0.6846
   54CHL1    C1 6446   1.876   5.266  10.046 -0.3432  0.2379 -0.9540
   54CHL1   H1A 6447   1.971   5.309  10.008  1.2478 -2.2053  0.0725
   54CHL1   H1B 6448   1.792   5.318   9.997 -0.9685  0.7589  0.6643
   54CHL1    C2 6449   1.864   5.298  10.199  0.6327 -0.3652 -0.8281
   54CHL1   H2A 6450   1.868   5.403  10.233 -1.6867 -0.6059  0.3283
   54CHL1   H2B 6451   1.954   5.247  10.241  0.5265 -1.6777 -2.1482
   54CHL1   C20 6452   1.940   4.904   9.334 -0.5497 -0.5163  0.1576
   54CHL1   H20 6453   2.005   4.816   9.351  1.5376  0.5683 -2.0131
   54CHL1   C21 6454   2.031   5.022   9.306  1.1414 -0.2483 -0.6067
   54CHL1  H21A 6455   2.105   4.994   9.227 -0.7366 -1.5810 -1.9419
   54CHL1  H21B 6456   2.081   5.054   9.400 -0.5143  0.6009  0.0004
   54CHL1  H21C 6457   1.967   5.103   9.265  0.3197 -0.5524  0.0663
   54CHL1   C22 6458   1.862   4.866   9.208  0.6122  0.1827 -0.2602
   54CHL1  H22A 6459   1.802   4.773   9.225  0.5783  0.6838  2.6565
   54CHL1  H22B 6460   1.787   4.946   9.190  1.6205  1.2958  0.4032
   54CHL1   C23 6461   1.950   4.842   9.091 -0.4527 -0.2584  0.5769
   54CHL1  H23A 6462   2.000   4.936   9.060  1.9344 -1.7581 -0.2965
   54CHL1  H23B 6463   2.030   4.771   9.121  1.0447  0.1519 -2.2750
   54CHL1   C24 6464   1.869   4.781   8.973 -0.0321  0.3501  0.0578
   54CHL1  H24A 6465   1.846   4.676   9.001 -0.9463  0.3273 -0.7875
   54CHL1  H24B 6466   1.777   4.841   8.958  0.0009  1.0295  2.3781
   54CHL1   C25 6467   1.952   4.784   8.838  0.0325 -0.0761 -0.0532
   54CHL1   H25 6468   1.983   4.888   8.815  1.9523 -0.6919 -0.4029
   54CHL1   C26 6469   2.088   4.706   8.862 -0.4897  0.4215  0.5566
   54CHL1  H26A 6470   2.130   4.679   8.763 -0.4330  0.6293  0.5229
   54CHL1  H26B 6471   2.157   4.777   8.912  0.2076  0.0843  0.0717
   54CHL1  H26C 6472   2.081   4.613   8.921  2.0651 -0.0166  0.2102
   54CHL1   C27 6473   1.862   4.740   8.725 -0.3215  1.0899 -0.4379
   54CHL1  H27A 6474   1.755   4.761   8.747 -1.0420  1.3969 -3.9254
   54CHL1  H27B 6475   1.899   4.767   8.624 -3.4461 -0.1602 -2.0044
   54CHL1  H27C 6476   1.861   4.629   8.724 -1.8928  1.0716  1.0891
   55CHL1    C3 6477   2.492   2.173  10.073  0.2596 -0.5708 -0.4106
   55CHL1    H3 6478   2.397   2.118  10.061  0.2817 -0.1973 -2.4722
   55CHL1    O3 6479   2.527   2.181  10.215  0.0970  0.1949 -0.0032
   55CHL1   H3' 6480   2.438   2.190  10.251  0.2698  2.5419 -0.0967
   55CHL1    C4 6481   2.609   2.107  10.002  1.0404 -0.6476  0.2270
   55CHL1   H4A 6482   2.708   2.146  10.032  0.8076 -1.1904  1.7480
   55CHL1   H4B 6483   2.607   2.000  10.033 -2.1870 -0.5047  0.7347
   55CHL1    C5 6484   2.602   2.115   9.850  0.3568  0.2837 -0.0928
   55CHL1    C6 6485   2.608   1.995   9.775  0.2701 -0.2110  0.0802
   55CHL1    H6 6486   2.628   1.899   9.824  0.5383  0.2540  0.9023
   55CHL1    C7 6487   2.603   1.998   9.622 -0.1355 -0.1614 -0.0507
   55CHL1   H7A 6488   2.691   1.944   9.581 -1.2385 -1.7128 -0.4109
   55CHL1   H7B 6489   2.513   1.942   9.588 -0.1055 -0.5139  0.4364
   55CHL1    C8 6490   2.600   2.138   9.559 -0.2494  0.0817 -0.5975
   55CHL1    H8 6491   2.704   2.179   9.556 -0.7282  1.2902 -0.9216
   55CHL1   C14 6492   2.560   2.126   9.414 -0.4248  0.3385  0.0257
   55CHL1   H14 6493   2.454   2.094   9.422 -0.9001  2.4330  3.1560
   55CHL1   C15 6494   2.626   2.025   9.319  0.5468  0.0959  0.8216
   55CHL1  H15A 6495   2.736   2.040   9.326  0.6506 -0.4190  0.3511
   55CHL1  H15B 6496   2.601   1.918   9.335 -0.9708  0.4386  0.8311
   55CHL1   C16 6497   2.584   2.074   9.178 -0.5606 -0.2312 -0.5669
   55CHL1  H16A 6498   2.678   2.073   9.118 -0.5728  2.2301 -0.6915
   55CHL1  H16B 6499   2.513   2.001   9.133  0.8913 -2.1996  0.3241
   55CHL1   C17 6500   2.508   2.209   9.201 -0.1378 -0.2775 -0.6144
   55CHL1   H17 6501   2.402   2.182   9.224  0.0009 -0.0549  0.3057
   55CHL1   C13 6502   2.561   2.256   9.337  0.3598 -0.3981  0.1098
   55CHL1   C18 6503   2.703   2.321   9.327 -0.5745  0.4425  0.7376
   55CHL1  H18A 6504   2.737   2.352   9.429  0.3409  0.9526  0.2900
   55CHL1  H18B 6505   2.780   2.246   9.298 -0.4615  1.4805 -1.7716
   55CHL1  H18C 6506   2.708   2.404   9.254  2.7540 -0.9290 -0.7501
   55CHL1   C12 6507   2.471   2.353   9.412 -0.7365 -0.3076  0.5341
   55CHL1  H12A 6508   2.489   2.454   9.369  2.0264 -1.5038 -1.3017
   55CHL1  H12B 6509   2.365   2.319   9.420 -0.1148 -2.2936  0.6774
   55CHL1   C11 6510   2.506   2.373   9.563  0.0991 -0.1661 -0.2822
   55CHL1  H11A 6511   2.594   2.440   9.557 -1.4504  1.6584 -3.2520
   55CHL1  H11B 6512   2.428   2.436   9.611  1.3753  1.8664 -0.8207
   55CHL1    C9 6513   2.520   2.239   9.633  0.5390  0.1743  0.2266
   55CHL1    H9 6514   2.415   2.202   9.637  0.8995 -0.7168  2.2947
   55CHL1   C10 6515   2.563   2.250   9.780  0.4204 -0.4810 -0.2366
   55CHL1   C19 6516   2.688   2.339   9.796  0.3289 -0.6220  0.0960
   55CHL1  H19A 6517   2.766   2.298   9.728 -0.6563 -0.5122 -1.1156
   55CHL1  H19B 6518   2.671   2.446   9.771 -0.2289 -0.6013  0.5557
   55CHL1  H19C 6519   2.732   2.342   9.898 -2.2885  1.0957  1.2136
   55CHL1    C1 6520   2.443   2.304   9.869  0.2775  0.1987  0.2957
   55CHL1   H1A 6521   2.423   2.409   9.836  0.1158  0.3175  0.7738
   55CHL1   H1B 6522   2.350   2.246   9.850  0.6408 -0.4785  0.6246
   55CHL1    C2 6523   2.474   2.316  10.021 -0.2453 -0.6549 -0.2560
   55CHL1   H2A 6524   2.395   2.371  10.077 -0.4868 -0.3687 -0.8671
   55CHL1   H2B 6525   2.568   2.372  10.039 -1.6940  1.0635  2.4707
   55CHL1   C20 6526   2.507   2.294   9.073  0.5837  0.5257 -0.0425
   55CHL1   H20 6527   2.603   2.343   9.047  0.2296  0.0707 -2.2607
   55CHL1   C21 6528   2.407   2.420   9.088 -0.6730  0.0413 -0.0222
   55CHL1  H21A 6529   2.387   2.465   8.989  0.2581 -3.5645 -1.9319
   55CHL1  H21B 6530   2.446   2.481   9.173  1.1187 -1.4877  0.3094
   55CHL1  H21C 6531   2.305   2.383   9.110 -0.8019 -0.8262 -2.0018
   55CHL1   C22 6532   2.467   2.207   8.950 -0.7067 -1.2629  0.5022
   55CHL1  H22A 6533   2.473   2.269   8.858 -3.7012 -3.0849 -0.9997
   55CHL1  H22B 6534   2.538   2.124   8.934 -0.5116 -0.5043 -3.0681
   55CHL1   C23 6535   2.317   2.162   8.931  0.1453 -0.0973 -0.4151
   55CHL1  H23A 6536   2.309   2.054   8.958  0.4993 -0.4059 -1.5100
   55CHL1  H23B 6537   2.259   2.225   9.001  0.6734  1.8191 -1.6650
   55CHL1   C24 6538   2.246   2.185   8.794 -0.5599 -0.2471  0.4437
   55CHL1  H24A 6539   2.136   2.167   8.793 -1.0015  2.2438 -2.4693
   55CHL1  H24B 6540   2.248   2.292   8.766 -0.1431 -1.3666 -4.2323
   55CHL1   C25 6541   2.314   2.123   8.675  0.5100 -0.1316  0.3560
   55CHL1   H25 6542   2.421   2.154   8.675  0.6214 -0.5083  0.2911
   55CHL1   C26 6543   2.305   1.970   8.670 -0.3865  0.0367 -0.4761
   55CHL1  H26A 6544   2.376   1.926   8.596  0.8521  3.5000 -1.4265
   55CHL1  H26B 6545   2.333   1.930   8.770  2.0464 -2.8896 -2.2235
   55CHL1  H26C 6546   2.198   1.948   8.651 -0.5587 -0.4856  0.9778
   55CHL1   C27 6547   2.269   2.179   8.529 -0.2039 -0.7909  0.1433
   55CHL1  H27A 6548   2.332   2.140   8.446  0.7946  0.4971  0.2870
   55CHL1  H27B 6549   2.165   2.144   8.511 -0.6515  0.0254  1.0906
   55CHL1  H27C 6550   2.269   2.290   8.537  0.6720 -0.8548  1.1365
   56CHL1    C3 6551   0.113   0.579  10.074  0.0977 -0.1802  0.6389
   56CHL1    H3 6552   0.211   0.630  10.086 -0.6649  1.0880  1.5941
   56CHL1    O3 6553   0.040   0.591  10.195 -0.7840 -0.1480  0.7546
   56CHL1   H3' 6554   0.069   0.528  10.260  1.5219 -1.7331 -1.7131
   56CHL1    C4 6555   0.033   0.654   9.966 -0.3895  0.2234  0.4212
   56CHL1   H4A 6556  -0.076   0.635   9.955  0.1266 -2.4663 -0.4943
   56CHL1   H4B 6557   0.033   0.758  10.004 -0.7281  0.4033 -0.0647
   56CHL1    C5 6558   0.094   0.637   9.834  0.7396 -0.2142  0.0339
   56CHL1    C6 6559   0.126   0.739   9.757  0.1928  0.0349  0.2752
   56CHL1    H6 6560   0.116   0.843   9.792 -1.1780 -0.0985  0.2755
   56CHL1    C7 6561   0.159   0.724   9.610 -0.5552  0.3914  0.5794
   56CHL1   H7A 6562   0.105   0.802   9.552 -1.3809 -0.4257  0.2331
   56CHL1   H7B 6563   0.265   0.749   9.590 -0.1021 -1.0569  1.0938
   56CHL1    C8 6564   0.138   0.585   9.549  0.2087  0.2376  0.5404
   56CHL1    H8 6565   0.033   0.563   9.519  0.5531 -1.0717  0.2494
   56CHL1   C14 6566   0.218   0.559   9.421  0.4039  0.6537 -0.3442
   56CHL1   H14 6567   0.327   0.570   9.443  0.2858 -0.1753  0.6959
   56CHL1   C15 6568   0.196   0.658   9.304  0.3817 -0.5487 -0.6572
   56CHL1  H15A 6569   0.088   0.674   9.287  0.8389  1.8322 -1.4579
   56CHL1  H15B 6570   0.257   0.750   9.318 -1.5441  0.7419 -0.6913
   56CHL1   C16 6571   0.264   0.583   9.190 -0.7802  0.8255  0.0517
   56CHL1  H16A 6572   0.209   0.604   9.096 -0.5801  0.7182 -0.0907
   56CHL1  H16B 6573   0.374   0.599   9.183 -0.4505 -1.4428 -0.3368
   56CHL1   C17 6574   0.267   0.432   9.226 -0.0780 -0.5372  0.4801
   56CHL1   H17 6575   0.373   0.413   9.253 -0.2087 -1.8408  0.1063
   56CHL1   C13 6576   0.190   0.422   9.361  0.5687 -0.4359 -0.1893
   56CHL1   C18 6577   0.041   0.394   9.324 -0.3597 -0.3985  0.2372
   56CHL1  H18A 6578  -0.020   0.413   9.415  1.6090 -1.1460  1.7363
   56CHL1  H18B 6579   0.003   0.459   9.241  0.3587  2.8892  2.3956
   56CHL1  H18C 6580   0.026   0.287   9.299 -1.8201  0.1655 -1.4250
   56CHL1   C12 6581   0.245   0.319   9.458  0.1111  0.0243  0.4422
   56CHL1  H12A 6582   0.237   0.215   9.418  0.9296 -0.1518  0.7321
   56CHL1  H12B 6583   0.352   0.346   9.458 -0.3408  1.9229  1.7633
   56CHL1   C11 6584   0.184   0.331   9.595 -0.1201  0.0167  0.0761
   56CHL1  H11A 6585   0.084   0.282   9.596 -0.1528  0.0673 -0.3340
   56CHL1  H11B 6586   0.247   0.268   9.661  1.0705  0.0676 -0.9931
   56CHL1    C9 6587   0.182   0.476   9.651  0.1620  0.4679 -0.3624
   56CHL1    H9 6588   0.289   0.499   9.668  0.1034  1.0014 -0.6752
   56CHL1   C10 6589   0.101   0.490   9.784  0.1646  0.3849 -1.3218
   56CHL1   C19 6590  -0.043   0.422   9.762 -0.6996 -0.1192  0.1474
   56CHL1  H19A 6591  -0.030   0.313   9.780 -0.1535  0.0931  1.0958
   56CHL1  H19B 6592  -0.117   0.470   9.830  0.1294  3.2089 -1.1959
   56CHL1  H19C 6593  -0.088   0.441   9.662 -0.2005  0.6533  0.0630
   56CHL1    C1 6594   0.187   0.410   9.889 -0.8190 -0.2987  0.3175
   56CHL1   H1A 6595   0.191   0.302   9.865 -0.3045 -0.1061 -0.4783
   56CHL1   H1B 6596   0.290   0.452   9.887 -1.8658  2.4025  0.8879
   56CHL1    C2 6597   0.138   0.431  10.040  0.1637 -0.6126  0.1464
   56CHL1   H2A 6598   0.215   0.387  10.106 -1.4514 -0.2460  2.2985
   56CHL1   H2B 6599   0.049   0.367  10.056 -0.8186  0.7292  0.1227
   56CHL1   C20 6600   0.254   0.332   9.110  0.0258 -0.5253  0.5091
   56CHL1   H20 6601   0.147   0.326   9.083  1.2303 -4.0786 -4.1552
   56CHL1   C21 6602   0.304   0.199   9.143 -0.6877 -0.0900  0.0579
   56CHL1  H21A 6603   0.410   0.202   9.179 -0.5309 -2.0791 -0.1895
   56CHL1  H21B 6604   0.314   0.148   9.045  1.8578  0.6124 -0.0841
   56CHL1  H21C 6605   0.238   0.145   9.214  0.6667  0.3544  1.7026
   56CHL1   C22 6606   0.323   0.382   8.973  0.4667  0.4764  0.1638
   56CHL1  H22A 6607   0.366   0.482   8.995  1.0283  0.1267  0.6583
   56CHL1  H22B 6608   0.414   0.322   8.951  1.2266  2.3163 -1.9342
   56CHL1   C23 6609   0.238   0.380   8.846  0.2165 -0.1338  0.1790
   56CHL1  H23A 6610   0.215   0.272   8.836 -1.4381  0.2048  0.2143
   56CHL1  H23B 6611   0.144   0.436   8.867  0.6111  1.5253 -2.2037
   56CHL1   C24 6612   0.302   0.437   8.718  0.5086 -0.2792  0.7633
   56CHL1  H24A 6613   0.341   0.536   8.749  0.4802 -0.6370  1.9989
   56CHL1  H24B 6614   0.384   0.371   8.682 -0.8641 -0.8363 -1.4163
   56CHL1   C25 6615   0.192   0.448   8.602  0.5022 -0.3409  0.2439
   56CHL1   H25 6616   0.112   0.509   8.649  1.3987 -0.5838  2.1251
   56CHL1   C26 6617   0.246   0.522   8.478  0.1875 -0.0443 -0.6110
   56CHL1  H26A 6618   0.181   0.508   8.389 -0.9669  2.3143 -0.1712
   56CHL1  H26B 6619   0.269   0.631   8.489 -0.7389  0.4874 -3.4074
   56CHL1  H26C 6620   0.345   0.479   8.449 -0.5786  0.0024 -3.5359
   56CHL1   C27 6621   0.141   0.313   8.571 -0.5473  0.3250 -0.1011
   56CHL1  H27A 6622   0.212   0.247   8.516  0.7072 -0.6260  2.5862
   56CHL1  H27B 6623   0.111   0.265   8.666 -0.4801  0.9138  0.2203
   56CHL1  H27C 6624   0.051   0.332   8.509 -0.8503  0.3436  0.3422
   57CHL1    C3 6625   2.715   3.537  10.264 -0.5791 -0.3233  1.0061
   57CHL1    H3 6626   2.799   3.610  10.267 -1.3129  0.5110  1.3909
   57CHL1    O3 6627   2.627   3.557  10.374 -0.5183 -0.3999  0.2618
   57CHL1   H3' 6628   2.565   3.484  10.365 -0.1293 -0.6542 -0.4133
   57CHL1    C4 6629   2.634   3.563  10.136  0.6532 -0.0223 -0.1497
   57CHL1   H4A 6630   2.538   3.506  10.133  0.1937  0.8019 -1.4859
   57CHL1   H4B 6631   2.604   3.670  10.135  0.8707  0.0425 -1.5183
   57CHL1    C5 6632   2.701   3.532  10.001 -1.0643  0.1746 -0.8403
   57CHL1    C6 6633   2.703   3.615   9.894  0.2744  0.0535  0.5845
   57CHL1    H6 6634   2.648   3.711   9.901 -0.5856 -0.5431  2.2786
   57CHL1    C7 6635   2.763   3.587   9.752 -0.7797  0.6693 -0.5208
   57CHL1   H7A 6636   2.699   3.604   9.663 -1.4595  1.6737  0.1541
   57CHL1   H7B 6637   2.849   3.655   9.737 -0.2741  0.1381 -0.0998
   57CHL1    C8 6638   2.802   3.438   9.745 -1.0056 -0.3845 -0.1122
   57CHL1    H8 6639   2.706   3.387   9.727  0.1212 -1.8076 -2.3274
   57CHL1   C14 6640   2.898   3.418   9.637 -0.0751  0.9090  0.2209
   57CHL1   H14 6641   2.995   3.464   9.665  0.7209 -0.7982  0.3019
   57CHL1   C15 6642   2.854   3.471   9.498  0.2694 -0.0543 -0.1269
   57CHL1  H15A 6643   2.749   3.444   9.476  0.4115  1.2907 -2.7523
   57CHL1  H15B 6644   2.859   3.582   9.488 -0.0376 -0.0527 -0.2756
   57CHL1   C16 6645   2.952   3.397   9.406  0.1933  0.0487 -0.8690
   57CHL1  H16A 6646   2.899   3.349   9.321  1.8486 -0.8489 -1.4245
   57CHL1  H16B 6647   3.025   3.477   9.380  1.2193 -0.0278  1.6502
   57CHL1   C17 6648   3.022   3.278   9.478  0.3009  1.0225  0.0525
   57CHL1   H17 6649   3.125   3.307   9.506  0.5861 -1.0802  1.3008
   57CHL1   C13 6650   2.943   3.272   9.613 -0.0118  0.5376  0.0289
   57CHL1   C18 6651   2.819   3.181   9.593  0.2158  0.2307 -0.1432
   57CHL1  H18A 6652   2.856   3.078   9.579 -0.5391 -0.1477  0.6217
   57CHL1  H18B 6653   2.763   3.178   9.689 -0.5161 -1.7475 -0.6219
   57CHL1  H18C 6654   2.758   3.215   9.507 -1.4876 -1.6369  0.3002
   57CHL1   C12 6655   3.030   3.233   9.734  0.2813  0.3713  0.6696
   57CHL1  H12A 6656   3.063   3.127   9.729  1.8925  0.8993 -0.4857
   57CHL1  H12B 6657   3.125   3.290   9.743 -0.0905  0.7765  2.2779
   57CHL1   C11 6658   2.949   3.253   9.862  0.0249 -0.4414 -0.4045
   57CHL1  H11A 6659   2.880   3.166   9.866 -0.4229  0.0126  2.3016
   57CHL1  H11B 6660   3.010   3.261   9.954 -1.2019  0.3790  0.3454
   57CHL1    C9 6661   2.868   3.387   9.880  0.1887 -0.1835 -0.2927
   57CHL1    H9 6662   2.947   3.459   9.910  1.5286 -1.0760 -1.6711
   57CHL1   C10 6663   2.770   3.395  10.001 -0.4280 -0.0827 -0.2400
   57CHL1   C19 6664   2.665   3.286   9.979  0.2315  0.3038 -0.2522
   57CHL1  H19A 6665   2.714   3.186   9.982 -0.9050 -0.2181  4.2294
   57CHL1  H19B 6666   2.577   3.281  10.046  1.6683 -3.1581  1.5037
   57CHL1  H19C 6667   2.621   3.288   9.877  1.6788  0.3763 -0.8882
   57CHL1    C1 6668   2.845   3.372  10.132  0.4984 -0.5320 -0.9581
   57CHL1   H1A 6669   2.886   3.269  10.144  1.0868 -0.2364 -0.4058
   57CHL1   H1B 6670   2.936   3.435  10.136  2.0806 -2.7290 -1.0877
   57CHL1    C2 6671   2.766   3.395  10.265  0.3541  0.3003 -0.0508
   57CHL1   H2A 6672   2.823   3.368  10.357 -0.3721 -1.1865 -0.0213
   57CHL1   H2B 6673   2.677   3.328  10.272  1.0551 -0.5436  0.9757
   57CHL1   C20 6674   3.040   3.152   9.400  0.5117  0.3889 -0.5814
   57CHL1   H20 6675   2.941   3.106   9.380  1.0564 -0.6241 -0.9977
   57CHL1   C21 6676   3.117   3.040   9.479  0.4039  0.7445  0.1714
   57CHL1  H21A 6677   3.215   3.079   9.514  0.6599 -0.9309  1.3929
   57CHL1  H21B 6678   3.145   2.957   9.411  0.7995  1.5710 -0.6972
   57CHL1  H21C 6679   3.048   3.011   9.561 -1.1276 -0.5665 -1.5693
   57CHL1   C22 6680   3.108   3.179   9.266  0.1588  0.8457 -0.6428
   57CHL1  H22A 6681   3.063   3.272   9.224 -1.6089 -0.2524 -1.2482
   57CHL1  H22B 6682   3.216   3.203   9.268  0.2871  0.6556 -3.4625
   57CHL1   C23 6683   3.085   3.063   9.169  0.3712 -0.0258  0.2783
   57CHL1  H23A 6684   3.160   2.985   9.194  1.4528  0.7810 -0.3392
   57CHL1  H23B 6685   2.983   3.021   9.173  0.4125 -0.1373  0.1695
   57CHL1   C24 6686   3.113   3.123   9.026 -0.3153 -0.1553 -1.1188
   57CHL1  H24A 6687   3.036   3.200   9.005 -1.0865 -0.6473 -0.1376
   57CHL1  H24B 6688   3.211   3.175   9.029 -0.7762  0.6468  0.1521
   57CHL1   C25 6689   3.133   3.026   8.910  0.4156  0.3260 -0.4759
   57CHL1   H25 6690   3.035   2.973   8.917 -0.1882  1.4642 -0.1117
   57CHL1   C26 6691   3.147   3.098   8.774  0.2200  0.2412 -0.8401
   57CHL1  H26A 6692   3.247   3.147   8.777  0.4597 -0.2595 -0.6343
   57CHL1  H26B 6693   3.140   3.034   8.684  1.4900 -0.1149 -0.7000
   57CHL1  H26C 6694   3.075   3.181   8.759  0.4137  0.0640 -2.7785
   57CHL1   C27 6695   3.239   2.917   8.924 -0.6517  0.6450  0.7610
   57CHL1  H27A 6696   3.345   2.948   8.938 -0.2169  0.6626 -2.1241
   57CHL1  H27B 6697   3.204   2.850   9.005 -4.2340  1.4730  0.0204
   57CHL1  H27C 6698   3.232   2.849   8.836 -0.1630  0.6893  0.6885
   58CHL1    C3 6699   5.244   1.424   9.946  0.4956 -0.5196  0.1205
   58CHL1    H3 6700   5.153   1.487   9.947  0.5189 -0.4862  1.7256
   58CHL1    O3 6701   5.276   1.383  10.079  0.0291  0.1890 -0.1883
   58CHL1   H3' 6702   5.309   1.456  10.131 -0.1660 -0.1651  0.4455
   58CHL1    C4 6703   5.227   1.295   9.855  0.2001  0.2213  0.9931
   58CHL1   H4A 6704   5.304   1.218   9.876  0.7617 -0.2621 -2.4576
   58CHL1   H4B 6705   5.133   1.251   9.895 -0.9669  2.3029  0.6368
   58CHL1    C5 6706   5.217   1.318   9.708  0.4957 -0.1579  0.0238
   58CHL1    C6 6707   5.118   1.265   9.637  1.0798  0.5774 -0.6919
   58CHL1    H6 6708   5.037   1.210   9.686  2.1829  1.7467  2.5572
   58CHL1    C7 6709   5.115   1.267   9.484 -0.5013  0.4033 -0.8395
   58CHL1   H7A 6710   5.105   1.159   9.458  1.6251  0.3287 -1.4466
   58CHL1   H7B 6711   5.030   1.331   9.451 -0.8104  0.4966  0.1271
   58CHL1    C8 6712   5.251   1.313   9.419  0.0183  0.1660  0.0735
   58CHL1    H8 6713   5.312   1.221   9.432  0.3168  0.2142 -0.9478
   58CHL1   C14 6714   5.231   1.359   9.280  0.2085 -0.5331  0.0140
   58CHL1   H14 6715   5.159   1.444   9.286  1.9976  0.9427  0.9352
   58CHL1   C15 6716   5.156   1.263   9.186 -0.3664 -0.4803 -0.1831
   58CHL1  H15A 6717   5.198   1.162   9.208 -0.9566 -0.2530  2.1807
   58CHL1  H15B 6718   5.048   1.252   9.211 -0.4726  0.4767 -0.2294
   58CHL1   C16 6719   5.186   1.305   9.042  0.4216  0.1994  0.6953
   58CHL1  H16A 6720   5.250   1.231   8.990 -0.1086 -0.2567  0.6933
   58CHL1  H16B 6721   5.096   1.324   8.980  0.5608 -1.5727 -0.0736
   58CHL1   C17 6722   5.273   1.434   9.059 -0.7835 -0.0662  0.5147
   58CHL1   H17 6723   5.209   1.521   9.082 -1.4373 -0.4538  0.1837
   58CHL1   C13 6724   5.345   1.402   9.199 -0.0052  0.2961  0.2857
   58CHL1   C18 6725   5.451   1.287   9.180  0.4090 -0.3079  0.7526
   58CHL1  H18A 6726   5.508   1.276   9.275 -0.1760  1.6645  1.3685
   58CHL1  H18B 6727   5.407   1.187   9.159  0.0346 -0.1936  0.9859
   58CHL1  H18C 6728   5.525   1.324   9.106 -0.4208 -1.5143 -0.6871
   58CHL1   C12 6729   5.416   1.512   9.273 -0.2183 -0.0078  0.1050
   58CHL1  H12A 6730   5.515   1.535   9.229 -0.6114  1.8917  0.1526
   58CHL1  H12B 6731   5.361   1.606   9.254 -1.0043 -0.6019 -0.5922
   58CHL1   C11 6732   5.438   1.484   9.423 -0.6109 -0.3730  0.5446
   58CHL1  H11A 6733   5.520   1.409   9.425  0.1677  0.4620  0.3623
   58CHL1  H11B 6734   5.467   1.580   9.470 -0.5690 -0.1189  0.0004
   58CHL1    C9 6735   5.319   1.430   9.500  0.1434  0.2207  0.5975
   58CHL1    H9 6736   5.245   1.513   9.499  0.0341  0.1638  2.2822
   58CHL1   C10 6737   5.340   1.395   9.658 -0.2163 -1.0316  0.8641
   58CHL1   C19 6738   5.468   1.306   9.670 -0.7728 -0.2804 -0.1073
   58CHL1  H19A 6739   5.556   1.372   9.658  0.4894 -1.9397 -0.1476
   58CHL1  H19B 6740   5.462   1.269   9.775  0.6773 -0.1662  0.0327
   58CHL1  H19C 6741   5.483   1.218   9.604 -1.5922 -2.2416  2.2161
   58CHL1    C1 6742   5.352   1.526   9.738 -0.4884 -0.1735  0.2795
   58CHL1   H1A 6743   5.449   1.567   9.705 -0.7869  0.4019  0.1056
   58CHL1   H1B 6744   5.269   1.598   9.721 -0.4764 -0.3865 -0.6678
   58CHL1    C2 6745   5.361   1.505   9.888 -0.5064  0.7483 -0.5863
   58CHL1   H2A 6746   5.344   1.606   9.932 -1.5674  0.5122 -0.4275
   58CHL1   H2B 6747   5.458   1.464   9.921 -1.2779 -1.4809 -0.9829
   58CHL1   C20 6748   5.351   1.472   8.929  0.4569 -0.0189  0.6482
   58CHL1   H20 6749   5.423   1.390   8.910 -1.5830 -1.5164 -0.8134
   58CHL1   C21 6750   5.423   1.605   8.949 -0.3224  0.5158 -0.0704
   58CHL1  H21A 6751   5.464   1.657   8.860 -1.3761  0.8167 -0.3876
   58CHL1  H21B 6752   5.500   1.597   9.029 -1.2386 -0.8740  0.6925
   58CHL1  H21C 6753   5.356   1.691   8.974 -0.8039  0.6539 -1.7841
   58CHL1   C22 6754   5.263   1.494   8.800 -0.9342 -0.7788  0.2272
   58CHL1  H22A 6755   5.321   1.545   8.719 -0.9043 -1.0176  0.0972
   58CHL1  H22B 6756   5.226   1.393   8.774  1.0524 -1.4241 -0.1735
   58CHL1   C23 6757   5.135   1.573   8.818 -0.4820 -0.0021  0.4305
   58CHL1  H23A 6758   5.092   1.545   8.916 -1.8720 -1.2977 -0.5044
   58CHL1  H23B 6759   5.157   1.682   8.813 -0.0936 -0.0415  1.2204
   58CHL1   C24 6760   5.046   1.548   8.696 -0.1660 -0.1332  0.1819
   58CHL1  H24A 6761   5.108   1.574   8.608 -0.3377 -0.5309 -0.0581
   58CHL1  H24B 6762   5.028   1.438   8.700  1.5779 -0.5287 -2.0755
   58CHL1   C25 6763   4.907   1.616   8.693  0.0073  0.1974  0.3647
   58CHL1   H25 6764   4.854   1.592   8.787  0.1798  0.5417  0.5489
   58CHL1   C26 6765   4.918   1.769   8.679 -0.3971 -0.0318 -0.8694
   58CHL1  H26A 6766   4.947   1.796   8.575  0.5606 -1.4714 -0.9915
   58CHL1  H26B 6767   4.817   1.808   8.703 -0.7276 -0.3476 -1.7187
   58CHL1  H26C 6768   4.991   1.808   8.753 -1.3419  2.7199 -1.3410
   58CHL1   C27 6769   4.825   1.562   8.572 -0.1726 -0.3732 -0.7211
   58CHL1  H27A 6770   4.801   1.454   8.584 -3.8600  0.5736  1.4697
   58CHL1  H27B 6771   4.730   1.618   8.563 -0.3510 -0.7631 -1.2894
   58CHL1  H27C 6772   4.884   1.574   8.479  0.5674  0.0461 -0.1960
   59CHL1    C3 6773   4.505   0.833  10.358  0.9139  0.6262 -0.3562
   59CHL1    H3 6774   4.599   0.887  10.335  1.2766 -0.0051 -0.3856
   59CHL1    O3 6775   4.490   0.830  10.496 -0.3397 -0.0397 -0.1015
   59CHL1   H3' 6776   4.399   0.801  10.502 -0.1530 -0.7273 -0.6403
   59CHL1    C4 6777   4.382   0.895  10.287  0.5342 -0.3151 -0.1119
   59CHL1   H4A 6778   4.286   0.858  10.329 -0.3301  0.8628 -0.9991
   59CHL1   H4B 6779   4.376   1.000  10.324 -0.8708 -0.9851  1.6182
   59CHL1    C5 6780   4.389   0.891  10.136 -0.7141 -0.4113  0.3923
   59CHL1    C6 6781   4.366   1.007  10.063 -0.6517  0.2361 -0.0691
   59CHL1    H6 6782   4.361   1.103  10.116 -3.1218 -1.2902  2.6138
   59CHL1    C7 6783   4.377   1.012   9.913  0.2063  0.3170 -0.5125
   59CHL1   H7A 6784   4.298   1.082   9.880 -1.0304 -0.2899  1.0898
   59CHL1   H7B 6785   4.470   1.068   9.888  0.7641 -0.5355 -0.3787
   59CHL1    C8 6786   4.372   0.865   9.845 -0.0272  0.0960 -0.4745
   59CHL1    H8 6787   4.268   0.830   9.861  0.0070 -0.2538 -0.9850
   59CHL1   C14 6788   4.409   0.870   9.707 -0.1046  0.0998  0.2561
   59CHL1   H14 6789   4.517   0.896   9.699  0.3740 -1.8214  0.1650
   59CHL1   C15 6790   4.337   0.970   9.612 -0.7000 -0.6801 -0.5428
   59CHL1  H15A 6791   4.227   0.977   9.625 -0.5549  0.8737 -0.1196
   59CHL1  H15B 6792   4.378   1.073   9.616  0.3968 -1.0512 -1.8369
   59CHL1   C16 6793   4.370   0.912   9.476  0.3025 -0.6555  0.7558
   59CHL1  H16A 6794   4.273   0.899   9.422 -0.3927  1.6148  1.3886
   59CHL1  H16B 6795   4.434   0.966   9.403  0.4203 -0.7534  0.7874
   59CHL1   C17 6796   4.427   0.774   9.486 -0.1018  0.2381 -0.0737
   59CHL1   H17 6797   4.537   0.785   9.472 -0.1269 -0.0542 -0.5346
   59CHL1   C13 6798   4.403   0.739   9.630 -0.7102 -0.2882 -0.2100
   59CHL1   C18 6799   4.259   0.671   9.637 -0.2481  0.4537 -0.0862
   59CHL1  H18A 6800   4.247   0.585   9.568 -0.6520 -0.1076  0.6796
   59CHL1  H18B 6801   4.255   0.636   9.742 -1.5536  1.0978  0.0920
   59CHL1  H18C 6802   4.177   0.740   9.607  0.5275  1.6510  0.4972
   59CHL1   C12 6803   4.508   0.651   9.693  0.1338 -0.6538  0.9216
   59CHL1  H12A 6804   4.510   0.549   9.649 -1.2834 -0.3997  0.2293
   59CHL1  H12B 6805   4.610   0.691   9.676 -0.1552 -0.7677 -1.2923
   59CHL1   C11 6806   4.481   0.635   9.843  0.0050  0.0514  0.1942
   59CHL1  H11A 6807   4.399   0.569   9.877  1.8253 -2.8565 -0.9367
   59CHL1  H11B 6808   4.567   0.584   9.892 -0.8321  0.4499  2.1225
   59CHL1    C9 6809   4.455   0.769   9.922  0.1086  0.2822 -0.2397
   59CHL1    H9 6810   4.552   0.822   9.930  0.9829 -1.0648 -1.6116
   59CHL1   C10 6811   4.417   0.757  10.073 -0.1191  0.1109 -0.5987
   59CHL1   C19 6812   4.300   0.660  10.106 -0.5552 -0.3306 -0.7748
   59CHL1  H19A 6813   4.207   0.697  10.058 -0.4407  0.1385 -0.6391
   59CHL1  H19B 6814   4.316   0.555  10.072  0.8974  0.8532 -3.8644
   59CHL1  H19C 6815   4.274   0.661  10.214  0.5112  0.9053 -0.5086
   59CHL1    C1 6816   4.549   0.707  10.144 -0.3808 -0.4143  0.1688
   59CHL1   H1A 6817   4.575   0.605  10.108  1.4204 -0.4163  1.4036
   59CHL1   H1B 6818   4.630   0.781  10.128  0.8170 -1.7335  0.0151
   59CHL1    C2 6819   4.532   0.694  10.300  1.1370 -0.4541 -0.3337
   59CHL1   H2A 6820   4.625   0.651  10.342  1.6725  0.8589 -0.1576
   59CHL1   H2B 6821   4.448   0.626  10.329  1.1231 -1.0237 -1.6759
   59CHL1   C20 6822   4.374   0.679   9.370  0.2095  1.5737 -0.0845
   59CHL1   H20 6823   4.267   0.651   9.386  0.8772 -1.7921 -1.0954
   59CHL1   C21 6824   4.452   0.546   9.378 -0.2641  0.7152 -0.8719
   59CHL1  H21A 6825   4.409   0.489   9.463 -0.0761  0.8109 -0.7123
   59CHL1  H21B 6826   4.563   0.552   9.378 -0.2411  0.2916  0.2073
   59CHL1  H21C 6827   4.430   0.485   9.288  0.6907  0.5672 -1.0123
   59CHL1   C22 6828   4.380   0.748   9.237 -0.0169  0.2378  0.1089
   59CHL1  H22A 6829   4.316   0.839   9.238 -0.3683  0.1252 -3.7439
   59CHL1  H22B 6830   4.487   0.777   9.222 -0.6662  1.3861 -2.7969
   59CHL1   C23 6831   4.347   0.668   9.104  0.1171 -0.4168 -0.4100
   59CHL1  H23A 6832   4.412   0.578   9.101  0.1311 -0.4073 -0.3890
   59CHL1  H23B 6833   4.246   0.621   9.118  0.1580  0.2377  2.3543
   59CHL1   C24 6834   4.357   0.742   8.978  0.2540  0.4864  1.0629
   59CHL1  H24A 6835   4.270   0.812   8.972 -0.8621 -1.0454 -1.6804
   59CHL1  H24B 6836   4.447   0.807   8.983 -0.1320  0.9699  1.9003
   59CHL1   C25 6837   4.355   0.654   8.854 -0.3501 -0.1646  0.4475
   59CHL1   H25 6838   4.429   0.575   8.878  1.2825  0.6976 -1.6291
   59CHL1   C26 6839   4.220   0.577   8.834  0.5600 -0.0164  0.2420
   59CHL1  H26A 6840   4.219   0.517   8.741 -1.1386 -0.8189  0.7677
   59CHL1  H26B 6841   4.186   0.509   8.915 -2.3730  3.4267  2.0601
   59CHL1  H26C 6842   4.138   0.652   8.824  0.8152  0.2366  0.0386
   59CHL1   C27 6843   4.390   0.736   8.730  0.1629 -0.2166 -0.0738
   59CHL1  H27A 6844   4.397   0.662   8.648 -0.7547 -0.0341 -0.3172
   59CHL1  H27B 6845   4.317   0.808   8.687  0.5927  0.9901  1.1684
   59CHL1  H27C 6846   4.492   0.778   8.742  1.1046 -1.5380 -3.0842
   60CHL1    C3 6847   4.268   6.585  10.218  0.4796  0.3750 -0.1409
   60CHL1    H3 6848   4.200   6.667  10.188  0.8140 -0.2140 -2.6192
   60CHL1    O3 6849   4.332   6.603  10.344 -0.3381  0.0592 -0.0689
   60CHL1   H3' 6850   4.426   6.616  10.326 -0.2561 -1.1421 -0.5526
   60CHL1    C4 6851   4.182   6.458  10.222  0.1504 -0.0780 -0.0128
   60CHL1   H4A 6852   4.232   6.373  10.272 -2.1044 -1.7666 -0.5348
   60CHL1   H4B 6853   4.095   6.490  10.283 -0.1640  1.4791 -1.2519
   60CHL1    C5 6854   4.132   6.417  10.081  0.9303 -0.1476 -0.4036
   60CHL1    C6 6855   4.009   6.386  10.056 -0.3880 -0.5367  0.4188
   60CHL1    H6 6856   3.933   6.399  10.134 -1.6679 -1.0760 -0.7131
   60CHL1    C7 6857   3.958   6.324   9.932 -0.5363 -0.4136  0.1126
   60CHL1   H7A 6858   3.878   6.250   9.954  0.1875 -0.5229  2.4947
   60CHL1   H7B 6859   3.914   6.407   9.873 -1.1280 -2.0475 -1.8097
   60CHL1    C8 6860   4.066   6.280   9.834 -0.6141 -0.2342 -0.2158
   60CHL1    H8 6861   4.107   6.192   9.888  0.2020 -0.5888 -1.4028
   60CHL1   C14 6862   4.016   6.250   9.696 -0.4266 -0.3131  0.1307
   60CHL1   H14 6863   3.974   6.348   9.664  1.0986  0.5091  0.5938
   60CHL1   C15 6864   3.890   6.165   9.681  0.6716  0.3900 -0.1305
   60CHL1  H15A 6865   3.909   6.074   9.743  3.6097  0.7126 -0.4825
   60CHL1  H15B 6866   3.799   6.220   9.714  0.2869 -0.7405  0.7542
   60CHL1   C16 6867   3.896   6.124   9.535  0.9696  0.1685 -0.4375
   60CHL1  H16A 6868   3.883   6.013   9.534 -1.1902  0.3971 -1.2266
   60CHL1  H16B 6869   3.812   6.180   9.489 -1.1032 -0.2105  2.7088
   60CHL1   C17 6870   4.027   6.182   9.474  0.0232 -0.5159  0.2486
   60CHL1   H17 6871   4.010   6.288   9.445  1.3605  0.0934  1.5941
   60CHL1   C13 6872   4.120   6.202   9.596 -0.1874 -0.5942 -0.5157
   60CHL1   C18 6873   4.180   6.072   9.656 -0.0695  0.2228  0.6062
   60CHL1  H18A 6874   4.106   5.989   9.658 -2.4672  2.2868  1.2824
   60CHL1  H18B 6875   4.265   6.047   9.589 -1.7951 -2.8408 -0.5459
   60CHL1  H18C 6876   4.216   6.074   9.761 -1.1682  1.3126  0.9708
   60CHL1   C12 6877   4.223   6.315   9.592  0.2539 -0.2293 -0.2394
   60CHL1  H12A 6878   4.299   6.300   9.513  0.6764 -1.5716  0.4099
   60CHL1  H12B 6879   4.176   6.416   9.585 -0.0638 -0.1262  2.7501
   60CHL1   C11 6880   4.293   6.334   9.735 -0.2594 -0.3278  0.0657
   60CHL1  H11A 6881   4.336   6.237   9.770 -1.5047 -1.5232 -1.6174
   60CHL1  H11B 6882   4.369   6.414   9.728  0.8408 -1.3948 -0.3882
   60CHL1    C9 6883   4.190   6.381   9.840 -0.3216 -0.4579  0.3132
   60CHL1    H9 6884   4.153   6.480   9.804 -1.1185 -0.0280  2.2682
   60CHL1   C10 6885   4.244   6.408   9.976 -0.1501 -0.0101  0.4952
   60CHL1   C19 6886   4.329   6.293  10.026  0.5680 -0.4643 -0.5290
   60CHL1  H19A 6887   4.415   6.268   9.960  1.7755  0.5762  0.6211
   60CHL1  H19B 6888   4.367   6.321  10.126 -1.0773  2.0952 -0.5495
   60CHL1  H19C 6889   4.269   6.200  10.029  0.3879 -0.4315 -2.2130
   60CHL1    C1 6890   4.317   6.547   9.977  0.0616  0.4855  1.1658
   60CHL1   H1A 6891   4.400   6.541   9.904  1.3575 -0.6845  2.6920
   60CHL1   H1B 6892   4.241   6.623   9.950 -0.2496 -0.3358 -0.3528
   60CHL1    C2 6893   4.376   6.586  10.113 -0.1920 -0.4017  0.1719
   60CHL1   H2A 6894   4.408   6.693  10.107  0.4109 -0.6859 -2.5316
   60CHL1   H2B 6895   4.466   6.529  10.144 -1.4426 -3.9470 -2.3944
   60CHL1   C20 6896   4.071   6.096   9.354 -0.2696 -0.0289  0.6813
   60CHL1   H20 6897   4.100   5.996   9.391  2.1326  1.0928  1.9566
   60CHL1   C21 6898   4.205   6.158   9.301  0.0259  0.7929 -0.1510
   60CHL1  H21A 6899   4.281   6.153   9.382 -1.9935  0.8679  1.8166
   60CHL1  H21B 6900   4.190   6.260   9.262  0.6019  0.1556 -2.1057
   60CHL1  H21C 6901   4.249   6.101   9.216 -1.2378 -0.4452  0.0103
   60CHL1   C22 6902   3.966   6.087   9.240 -0.5478  0.7866  0.4612
   60CHL1  H22A 6903   3.872   6.067   9.295 -0.5777 -2.6197 -0.6843
   60CHL1  H22B 6904   3.953   6.188   9.195  2.4696 -0.1487 -2.7195
   60CHL1   C23 6905   3.990   5.985   9.129  0.4031 -0.6060 -0.2306
   60CHL1  H23A 6906   4.071   6.014   9.060  1.8463 -1.1225  1.2179
   60CHL1  H23B 6907   4.005   5.890   9.184 -0.0358 -0.0518  0.8779
   60CHL1   C24 6908   3.866   5.979   9.043 -0.1604 -0.2425 -0.4778
   60CHL1  H24A 6909   3.771   5.957   9.097  0.0368  0.6561  0.2559
   60CHL1  H24B 6910   3.848   6.077   8.994  2.7338  0.7812  0.4310
   60CHL1   C25 6911   3.867   5.862   8.948  0.1108 -0.3393 -0.1808
   60CHL1   H25 6912   3.977   5.854   8.933  0.0407 -0.3221 -0.7004
   60CHL1   C26 6913   3.826   5.731   9.004  0.1996 -0.3518  0.3053
   60CHL1  H26A 6914   3.879   5.694   9.094  0.9994 -1.5945 -0.6470
   60CHL1  H26B 6915   3.719   5.758   9.013  0.9995  2.3846  2.0259
   60CHL1  H26C 6916   3.830   5.659   8.919 -0.5354 -1.6939  1.3817
   60CHL1   C27 6917   3.794   5.899   8.815 -0.3043 -0.1747  0.4170
   60CHL1  H27A 6918   3.823   5.997   8.772 -2.1245  0.4836  0.6264
   60CHL1  H27B 6919   3.827   5.832   8.733  1.1608  1.5771 -0.4440
   60CHL1  H27C 6920   3.683   5.903   8.811 -0.2397  0.3086 -1.6658
   61CHL1    C3 6921   1.286   6.525  10.390  0.3817 -0.2914 -0.4078
   61CHL1    H3 6922   1.392   6.498  10.407  0.1566 -0.8900  0.0620
   61CHL1    O3 6923   1.233   6.578  10.512  0.3208 -0.4870 -0.2992
   61CHL1   H3' 6924   1.139   6.589  10.496 -0.2731  0.1973  3.2505
   61CHL1    C4 6925   1.259   6.638  10.281  0.0230 -0.1666  0.0586
   61CHL1   H4A 6926   1.149   6.654  10.282  0.0229  0.0507 -1.7521
   61CHL1   H4B 6927   1.320   6.725  10.314 -1.9601  0.7849  1.3010
   61CHL1    C5 6928   1.295   6.588  10.140  0.3625 -0.2829 -0.4488
   61CHL1    C6 6929   1.375   6.655  10.064 -0.4118 -0.3786  0.0391
   61CHL1    H6 6930   1.414   6.750  10.103 -0.1248  0.5321 -2.3689
   61CHL1    C7 6931   1.416   6.620   9.923 -0.2696 -0.0300 -0.0214
   61CHL1   H7A 6932   1.402   6.713   9.862 -1.8366  0.0706  0.4624
   61CHL1   H7B 6933   1.522   6.589   9.925  0.1402  1.3495  3.4058
   61CHL1    C8 6934   1.322   6.509   9.866  0.0848  0.1245  0.0097
   61CHL1    H8 6935   1.226   6.552   9.831  0.0695  0.5378  0.5418
   61CHL1   C14 6936   1.389   6.436   9.745  0.0214 -0.0643  0.3398
   61CHL1   H14 6937   1.471   6.384   9.800  1.3428 -0.0509 -1.5955
   61CHL1   C15 6938   1.447   6.532   9.640 -0.2394 -0.5018  0.0904
   61CHL1  H15A 6939   1.370   6.605   9.608 -0.0512 -1.1498 -1.9357
   61CHL1  H15B 6940   1.537   6.586   9.677  0.3920 -2.1007  0.9692
   61CHL1   C16 6941   1.473   6.444   9.523 -0.1161  0.5503 -0.8575
   61CHL1  H16A 6942   1.434   6.492   9.430  1.0955  2.4501 -0.4241
   61CHL1  H16B 6943   1.581   6.424   9.502  0.7648  1.6573  2.3809
   61CHL1   C17 6944   1.404   6.308   9.556  0.4948 -0.1388 -0.1592
   61CHL1   H17 6945   1.484   6.243   9.598  1.0086  1.1091  0.8461
   61CHL1   C13 6946   1.305   6.334   9.677 -0.6365  0.6375  0.2700
   61CHL1   C18 6947   1.173   6.393   9.621 -0.6111 -1.0552 -0.5786
   61CHL1  H18A 6948   1.190   6.441   9.522 -0.6854  0.9069  0.3385
   61CHL1  H18B 6949   1.092   6.319   9.607 -0.9953 -1.0005  1.2968
   61CHL1  H18C 6950   1.137   6.481   9.678  1.6642 -0.8105  0.5314
   61CHL1   C12 6951   1.278   6.229   9.779 -0.1954  0.0967 -0.0771
   61CHL1  H12A 6952   1.215   6.148   9.734 -2.7172  1.9478 -0.0309
   61CHL1  H12B 6953   1.372   6.181   9.813  0.6378 -0.3996 -2.9710
   61CHL1   C11 6954   1.207   6.287   9.903 -0.2716 -0.1602 -0.1683
   61CHL1  H11A 6955   1.108   6.323   9.869 -0.8526 -0.9162  0.6927
   61CHL1  H11B 6956   1.192   6.214   9.986  1.2576  0.0575  0.3175
   61CHL1    C9 6957   1.285   6.402   9.968 -0.1328  0.7677  0.7189
   61CHL1    H9 6958   1.379   6.346   9.990  1.2229  2.6568 -0.1438
   61CHL1   C10 6959   1.232   6.459  10.100 -0.3631  0.1869  0.6569
   61CHL1   C19 6960   1.082   6.506  10.070  0.2233 -0.3397 -0.5748
   61CHL1  H19A 6961   1.084   6.580   9.988  2.8180  1.2045  0.8048
   61CHL1  H19B 6962   1.019   6.418  10.043 -2.0140  1.0199  0.0801
   61CHL1  H19C 6963   1.041   6.536  10.169 -1.1238  0.4876 -1.3694
   61CHL1    C1 6964   1.246   6.360  10.210 -0.2947  0.1970  0.2677
   61CHL1   H1A 6965   1.175   6.275  10.200  0.2550 -0.5386  2.3343
   61CHL1   H1B 6966   1.349   6.318  10.199 -0.3130  0.9462 -3.2918
   61CHL1    C2 6967   1.208   6.405  10.352  0.2480 -0.2273 -1.0936
   61CHL1   H2A 6968   1.217   6.330  10.433  0.0363 -0.4933 -1.3148
   61CHL1   H2B 6969   1.102   6.438  10.348 -0.0820 -0.7178  2.0988
   61CHL1   C20 6970   1.353   6.233   9.430 -0.3086 -0.5669  0.2175
   61CHL1   H20 6971   1.257   6.275   9.392  0.0449  0.1265  0.1010
   61CHL1   C21 6972   1.326   6.087   9.473  0.6232 -0.2544  0.6878
   61CHL1  H21A 6973   1.417   6.039   9.516  1.7496  2.7311  1.7581
   61CHL1  H21B 6974   1.273   6.034   9.391  1.6240  1.1920 -0.9335
   61CHL1  H21C 6975   1.256   6.096   9.558  2.5737 -0.1592  2.3215
   61CHL1   C22 6976   1.455   6.243   9.312  0.7859 -0.0733  0.0113
   61CHL1  H22A 6977   1.469   6.352   9.292  1.3634 -0.1477 -0.0086
   61CHL1  H22B 6978   1.549   6.202   9.355  1.2988 -0.2147 -1.2115
   61CHL1   C23 6979   1.421   6.182   9.181  0.3676 -0.5887 -0.2230
   61CHL1  H23A 6980   1.424   6.074   9.203  1.3368 -0.1605  1.9086
   61CHL1  H23B 6981   1.317   6.214   9.155 -0.4627 -1.1110  2.3544
   61CHL1   C24 6982   1.517   6.218   9.064  0.0238  0.6915  0.7310
   61CHL1  H24A 6983   1.520   6.329   9.065 -2.4015  0.7955  0.9061
   61CHL1  H24B 6984   1.612   6.167   9.091  0.0569 -1.3862 -2.9793
   61CHL1   C25 6985   1.480   6.169   8.930 -0.6190  0.4290 -0.0108
   61CHL1   H25 6986   1.389   6.213   8.884  0.0866 -0.8212 -2.7103
   61CHL1   C26 6987   1.592   6.201   8.830 -0.4663  1.1692  0.3491
   61CHL1  H26A 6988   1.569   6.165   8.728  1.7602 -0.6441  0.4417
   61CHL1  H26B 6989   1.609   6.310   8.819  1.1946  0.8871  0.0430
   61CHL1  H26C 6990   1.688   6.163   8.871 -0.5009 -0.4645 -1.0259
   61CHL1   C27 6991   1.451   6.020   8.923 -0.1670  0.1742 -0.5548
   61CHL1  H27A 6992   1.447   5.990   8.816  1.4483  0.1973 -0.6306
   61CHL1  H27B 6993   1.531   5.958   8.968  0.1106 -1.3793 -3.0938
   61CHL1  H27C 6994   1.350   5.998   8.965  0.3214 -0.5571  0.2552
   62CHL1    C3 6995   2.484   2.767  10.075  0.2278  0.0980 -1.0087
   62CHL1    H3 6996   2.499   2.657  10.069 -0.1063 -0.0633  0.9940
   62CHL1    O3 6997   2.463   2.811  10.208  0.1344  0.2649 -0.2117
   62CHL1   H3' 6998   2.463   2.907  10.198 -1.6263  0.0811 -2.2913
   62CHL1    C4 6999   2.604   2.845  10.020 -0.2347  0.2868 -0.6883
   62CHL1   H4A 7000   2.578   2.952  10.033 -2.3579 -0.1798 -0.9471
   62CHL1   H4B 7001   2.693   2.815  10.079 -0.2997  1.0733 -0.1742
   62CHL1    C5 7002   2.629   2.813   9.873 -0.4415  0.4683  0.4659
   62CHL1    C6 7003   2.747   2.766   9.832  0.2986 -1.1554 -0.2302
   62CHL1    H6 7004   2.830   2.755   9.903 -0.1297  0.0175  0.4701
   62CHL1    C7 7005   2.773   2.739   9.689 -0.2349 -0.0359  0.2758
   62CHL1   H7A 7006   2.874   2.775   9.661 -1.0904  2.4502  0.1706
   62CHL1   H7B 7007   2.775   2.629   9.684 -1.4508 -0.1662  2.0831
   62CHL1    C8 7008   2.669   2.797   9.588 -0.1105  0.6284  0.5131
   62CHL1    H8 7009   2.678   2.907   9.582 -0.5602  0.5788 -1.2435
   62CHL1   C14 7010   2.678   2.732   9.453 -0.3983 -0.3011  0.4902
   62CHL1   H14 7011   2.645   2.626   9.452 -2.7329  0.3952 -0.9036
   62CHL1   C15 7012   2.822   2.725   9.390 -0.8531 -0.3486 -0.1238
   62CHL1  H15A 7013   2.876   2.822   9.398  0.1233 -0.6359 -2.7107
   62CHL1  H15B 7014   2.887   2.648   9.437  0.0326 -0.9125 -2.2316
   62CHL1   C16 7015   2.787   2.684   9.244 -0.3433 -0.1816 -0.6444
   62CHL1  H16A 7016   2.844   2.755   9.180 -1.3276  1.3021  0.1005
   62CHL1  H16B 7017   2.819   2.582   9.213 -1.9167 -0.0169 -2.9864
   62CHL1   C17 7018   2.636   2.713   9.219 -0.2471  0.8286 -0.1007
   62CHL1   H17 7019   2.583   2.617   9.236 -1.6703  1.0845 -2.8964
   62CHL1   C13 7020   2.585   2.794   9.346  0.9088  0.0784 -0.3542
   62CHL1   C18 7021   2.609   2.946   9.330  0.0843 -0.7438  0.1084
   62CHL1  H18A 7022   2.538   2.983   9.252 -1.2739 -1.5424  0.9504
   62CHL1  H18B 7023   2.604   3.007   9.422 -0.7234 -1.4432  0.5375
   62CHL1  H18C 7024   2.715   2.964   9.300 -0.5049  0.6116 -1.2647
   62CHL1   C12 7025   2.445   2.764   9.400 -0.0510 -0.6937  0.0380
   62CHL1  H12A 7026   2.364   2.794   9.331  0.6014 -1.3544 -1.0171
   62CHL1  H12B 7027   2.440   2.653   9.406 -2.1572 -0.7088 -1.3650
   62CHL1   C11 7028   2.421   2.821   9.539 -0.1074 -0.0629 -0.0880
   62CHL1  H11A 7029   2.420   2.931   9.521 -1.1811 -0.7394 -5.0417
   62CHL1  H11B 7030   2.318   2.787   9.564 -0.3910  0.0835 -1.0275
   62CHL1    C9 7031   2.530   2.777   9.644  0.3543 -0.0795  0.3309
   62CHL1    H9 7032   2.520   2.666   9.654 -0.2522 -0.1730 -1.1656
   62CHL1   C10 7033   2.508   2.837   9.780  0.1255 -0.1250 -0.0958
   62CHL1   C19 7034   2.473   2.987   9.770  0.0413  0.0278 -0.2192
   62CHL1  H19A 7035   2.380   3.004   9.711 -1.0129  0.1773  1.4531
   62CHL1  H19B 7036   2.445   3.033   9.867 -0.8902 -0.7644 -0.1014
   62CHL1  H19C 7037   2.560   3.040   9.725  0.9694  0.6507  2.2427
   62CHL1    C1 7038   2.380   2.772   9.841  0.1708  1.1199 -0.2096
   62CHL1   H1A 7039   2.286   2.809   9.795 -1.1658 -1.5933  0.2839
   62CHL1   H1B 7040   2.384   2.663   9.821 -0.7823  1.1728 -0.7176
   62CHL1    C2 7041   2.356   2.792   9.996  0.7704  0.1052 -0.0958
   62CHL1   H2A 7042   2.276   2.722  10.027 -0.3567  1.9582  1.3115
   62CHL1   H2B 7043   2.325   2.893  10.031 -0.7860 -1.1875  2.3809
   62CHL1   C20 7044   2.605   2.763   9.080  0.0093 -0.3868  0.0911
   62CHL1   H20 7045   2.657   2.860   9.064 -1.7856  1.3138  4.1437
   62CHL1   C21 7046   2.454   2.782   9.065 -0.5236  0.4960 -1.0175
   62CHL1  H21A 7047   2.444   2.821   8.962 -1.4382  2.0422 -0.3738
   62CHL1  H21B 7048   2.427   2.855   9.145  0.5166 -1.2261  0.9664
   62CHL1  H21C 7049   2.391   2.693   9.084 -0.0166  0.6975  1.8921
   62CHL1   C22 7050   2.662   2.667   8.969  0.0868 -0.2188 -0.3508
   62CHL1  H22A 7051   2.763   2.635   9.000 -0.1682  0.4548  1.1983
   62CHL1  H22B 7052   2.596   2.577   8.977 -0.7259  0.5600  1.8673
   62CHL1   C23 7053   2.649   2.728   8.828 -0.7589  0.1890  0.4094
   62CHL1  H23A 7054   2.699   2.652   8.764  0.7453 -0.7305  2.6304
   62CHL1  H23B 7055   2.541   2.725   8.803 -0.5324  0.0071 -0.5388
   62CHL1   C24 7056   2.707   2.877   8.815  0.0879  0.3973  0.5428
   62CHL1  H24A 7057   2.656   2.954   8.877 -0.4645  1.5698 -1.3427
   62CHL1  H24B 7058   2.808   2.868   8.860 -0.5940 -0.8227  1.8737
   62CHL1   C25 7059   2.715   2.931   8.673 -0.3935 -0.2045  0.2470
   62CHL1   H25 7060   2.776   2.857   8.616  0.8677 -0.5946  2.0578
   62CHL1   C26 7061   2.569   2.920   8.612  0.7491  0.3312 -0.8144
   62CHL1  H26A 7062   2.557   2.967   8.512  0.0072  1.2083 -0.3212
   62CHL1  H26B 7063   2.527   2.817   8.607 -1.7366  1.0852  2.2049
   62CHL1  H26C 7064   2.502   2.977   8.680 -0.5602 -0.6217 -1.2805
   62CHL1   C27 7065   2.778   3.072   8.666  0.4830  0.0817  0.3106
   62CHL1  H27A 7066   2.693   3.141   8.684 -0.3805 -1.0569  0.6226
   62CHL1  H27B 7067   2.861   3.083   8.739  0.2746 -0.2399  0.5945
   62CHL1  H27C 7068   2.828   3.101   8.570 -1.5884 -0.8900 -1.0963
   63CHL1    C3 7069   3.886   4.868  10.352 -0.4881 -1.2101  0.1734
   63CHL1    H3 7070   3.903   4.976  10.331 -0.3921 -1.2626 -0.0145
   63CHL1    O3 7071   3.892   4.847  10.490 -0.2943 -0.0524 -0.0547
   63CHL1   H3' 7072   3.893   4.751  10.493  1.7632 -0.0153  1.7326
   63CHL1    C4 7073   3.744   4.852  10.300  0.0958 -0.5312 -1.2552
   63CHL1   H4A 7074   3.701   4.758  10.340 -1.7832  2.1880  3.5936
   63CHL1   H4B 7075   3.686   4.932  10.351  0.8830  0.3225 -1.6914
   63CHL1    C5 7076   3.734   4.863  10.150  0.3691  0.9019  0.1100
   63CHL1    C6 7077   3.643   4.951  10.099 -0.2983  0.2490 -0.2808
   63CHL1    H6 7078   3.578   5.013  10.163  2.6176  2.6413  0.4629
   63CHL1    C7 7079   3.625   4.952   9.951  0.1160 -0.2513  0.5594
   63CHL1   H7A 7080   3.515   4.948   9.938  0.2700  2.6904 -2.0654
   63CHL1   H7B 7081   3.666   5.043   9.902 -1.1245  0.3045  0.5453
   63CHL1    C8 7082   3.679   4.822   9.877  0.2346  0.3283 -0.2881
   63CHL1    H8 7083   3.621   4.734   9.909 -0.4482  1.0270  0.4145
   63CHL1   C14 7084   3.679   4.840   9.725 -0.2380  0.0663  0.3900
   63CHL1   H14 7085   3.730   4.937   9.708 -1.1961  0.2044 -1.8817
   63CHL1   C15 7086   3.542   4.876   9.659 -0.1826  0.3567 -0.2464
   63CHL1  H15A 7087   3.460   4.821   9.711 -0.2678 -0.3837 -1.1502
   63CHL1  H15B 7088   3.523   4.985   9.656  0.0151  0.5079  2.9129
   63CHL1   C16 7089   3.556   4.827   9.511 -0.7142  0.1620 -0.3424
   63CHL1  H16A 7090   3.475   4.754   9.493 -1.1955  0.2167  1.5018
   63CHL1  H16B 7091   3.549   4.912   9.440 -1.3247 -0.1135 -0.6142
   63CHL1   C17 7092   3.704   4.770   9.502 -0.2475  0.1246  0.6705
   63CHL1   H17 7093   3.775   4.851   9.478 -0.1355 -0.4039 -0.7868
   63CHL1   C13 7094   3.740   4.717   9.648 -0.9017  0.7667 -0.0086
   63CHL1   C18 7095   3.655   4.587   9.674  0.2173  0.7358 -0.1096
   63CHL1  H18A 7096   3.553   4.594   9.631  0.7435 -1.4981 -1.8018
   63CHL1  H18B 7097   3.699   4.496   9.628 -2.2699  0.6898 -2.5142
   63CHL1  H18C 7098   3.643   4.571   9.783 -0.0038  0.0683 -0.2279
   63CHL1   C12 7099   3.890   4.708   9.682  0.1739 -0.0983 -0.0438
   63CHL1  H12A 7100   3.929   4.620   9.627 -1.7824 -1.1576  0.2060
   63CHL1  H12B 7101   3.950   4.798   9.658 -1.0336  0.0178 -2.7855
   63CHL1   C11 7102   3.900   4.689   9.834 -0.3450 -0.3819 -0.3524
   63CHL1  H11A 7103   3.874   4.582   9.851 -1.0498 -0.6475 -2.8771
   63CHL1  H11B 7104   4.007   4.692   9.862 -0.3074  2.4604 -0.6196
   63CHL1    C9 7105   3.830   4.801   9.918  0.5385  0.3540  0.2074
   63CHL1    H9 7106   3.874   4.899   9.892  0.1827 -0.1324 -2.4376
   63CHL1   C10 7107   3.838   4.771  10.076  0.1841  0.4509  0.3414
   63CHL1   C19 7108   3.804   4.620  10.100  0.3786  0.2123  0.4376
   63CHL1  H19A 7109   3.821   4.592  10.207  0.9106 -2.4152 -0.3041
   63CHL1  H19B 7110   3.703   4.586  10.070  0.5959  0.8380 -1.0299
   63CHL1  H19C 7111   3.867   4.542  10.052 -0.7130  0.6024 -1.6533
   63CHL1    C1 7112   3.978   4.810  10.123 -0.7009  0.3263 -0.6147
   63CHL1   H1A 7113   4.062   4.754  10.075  0.0948  1.6696 -0.8263
   63CHL1   H1B 7114   4.005   4.916  10.102 -1.7684  0.9242  0.9732
   63CHL1    C2 7115   3.991   4.783  10.275  0.6434  0.7105 -0.2371
   63CHL1   H2A 7116   4.092   4.819  10.301  0.6162 -0.9231  2.3819
   63CHL1   H2B 7117   3.983   4.675  10.303 -0.6660  0.6714 -0.6969
   63CHL1   C20 7118   3.716   4.670   9.388  0.1618  0.2367  0.2593
   63CHL1   H20 7119   3.658   4.577   9.399  0.3134  0.0452 -0.5147
   63CHL1   C21 7120   3.860   4.603   9.375 -0.3110  0.4834  0.1231
   63CHL1  H21A 7121   3.876   4.554   9.277  0.6560 -1.9726  1.4650
   63CHL1  H21B 7122   3.866   4.532   9.461  0.0340  1.1611  0.6716
   63CHL1  H21C 7123   3.927   4.691   9.385  0.1317  0.1041  0.5690
   63CHL1   C22 7124   3.670   4.731   9.254 -0.5983 -0.1472 -0.9050
   63CHL1  H22A 7125   3.563   4.760   9.257 -0.1922  1.4827 -1.3488
   63CHL1  H22B 7126   3.727   4.824   9.228  0.9265 -0.3956  1.4022
   63CHL1   C23 7127   3.673   4.631   9.143 -0.2621 -0.3839  0.0888
   63CHL1  H23A 7128   3.775   4.611   9.105  0.1272  1.8209 -0.1013
   63CHL1  H23B 7129   3.617   4.541   9.175  1.3426 -1.2889  0.3986
   63CHL1   C24 7130   3.601   4.689   9.015  0.2642  0.2585 -0.4973
   63CHL1  H24A 7131   3.607   4.606   8.941  2.0207 -0.2608  0.2034
   63CHL1  H24B 7132   3.495   4.712   9.036  0.5981  1.4903 -0.1302
   63CHL1   C25 7133   3.657   4.815   8.955 -0.2866 -0.4564 -0.0383
   63CHL1   H25 7134   3.645   4.892   9.034 -0.7104 -0.6042  0.0388
   63CHL1   C26 7135   3.814   4.826   8.927  0.2476  0.5137 -0.9170
   63CHL1  H26A 7136   3.846   4.929   8.900 -1.5786  1.2841 -0.2127
   63CHL1  H26B 7137   3.870   4.790   9.016  0.3796  1.7089 -0.5001
   63CHL1  H26C 7138   3.836   4.762   8.839  0.3238 -2.6772  1.3388
   63CHL1   C27 7139   3.580   4.872   8.838 -0.1285  0.9050  0.4091
   63CHL1  H27A 7140   3.611   4.846   8.734 -0.3443 -0.2812  0.6371
   63CHL1  H27B 7141   3.470   4.859   8.834  0.3186 -2.7035 -2.1219
   63CHL1  H27C 7142   3.585   4.983   8.839 -0.9496  0.9381  1.4206
   64CHL1    C3 7143   3.336   4.019  10.103  0.2024 -0.7901  0.6402
   64CHL1    H3 7144   3.276   3.926  10.095  2.3884 -2.2539  0.9939
   64CHL1    O3 7145   3.373   4.048  10.244 -0.1117  0.1703  0.1215
   64CHL1   H3' 7146   3.287   4.070  10.280 -0.0719 -0.9356  0.8881
   64CHL1    C4 7147   3.465   4.006  10.012  0.1568  0.1427  0.3327
   64CHL1   H4A 7148   3.509   4.102  10.046 -1.0587  0.4304  1.1393
   64CHL1   H4B 7149   3.536   3.928  10.046  0.3943  0.3612  0.3377
   64CHL1    C5 7150   3.440   4.026   9.856  0.0300  0.4523  0.3631
   64CHL1    C6 7151   3.474   3.930   9.771 -0.3100  0.5055 -0.5461
   64CHL1    H6 7152   3.523   3.837   9.803 -2.9166 -0.5245  0.5709
   64CHL1    C7 7153   3.460   3.957   9.617  0.0954  0.2071  0.8426
   64CHL1   H7A 7154   3.550   3.937   9.557 -0.9168 -3.3406  0.4007
   64CHL1   H7B 7155   3.373   3.896   9.585 -0.6504  1.7371 -0.0806
   64CHL1    C8 7156   3.433   4.108   9.585  0.6154 -0.1608 -0.1464
   64CHL1    H8 7157   3.534   4.151   9.603  0.7380 -1.0706  1.4308
   64CHL1   C14 7158   3.383   4.125   9.441 -0.0610  0.3240 -0.6366
   64CHL1   H14 7159   3.283   4.076   9.438  0.1506 -0.1324 -0.2965
   64CHL1   C15 7160   3.447   4.041   9.331  0.0620  0.5217  0.1122
   64CHL1  H15A 7161   3.555   4.063   9.346  0.3891 -1.8603  1.4802
   64CHL1  H15B 7162   3.410   3.937   9.339  1.0832  0.1693  0.2605
   64CHL1   C16 7163   3.402   4.103   9.199 -0.3614 -0.2727 -0.2989
   64CHL1  H16A 7164   3.491   4.130   9.139  1.2554  1.4081  2.7069
   64CHL1  H16B 7165   3.326   4.036   9.152 -2.9145  0.4726  2.5681
   64CHL1   C17 7166   3.321   4.234   9.239 -0.0620 -0.2746 -0.3999
   64CHL1   H17 7167   3.216   4.198   9.232 -0.1813  0.3524 -2.2773
   64CHL1   C13 7168   3.361   4.264   9.387 -0.1071  0.0353 -0.0593
   64CHL1   C18 7169   3.497   4.338   9.401  0.1884 -0.3786  0.4384
   64CHL1  H18A 7170   3.546   4.333   9.501  0.9422 -0.7855  0.0542
   64CHL1  H18B 7171   3.570   4.306   9.324 -0.4062  0.2096 -0.3733
   64CHL1  H18C 7172   3.479   4.446   9.382 -4.3232 -1.2899 -1.0285
   64CHL1   C12 7173   3.251   4.329   9.472 -0.1017 -0.8826  0.6713
   64CHL1  H12A 7174   3.225   4.432   9.440  1.9338 -0.0092  1.7015
   64CHL1  H12B 7175   3.162   4.264   9.461  1.2910 -2.4361 -1.8478
   64CHL1   C11 7176   3.289   4.320   9.629  0.3196 -0.2868  1.2626
   64CHL1  H11A 7177   3.378   4.385   9.644 -0.8420  1.6756 -0.2053
   64CHL1  H11B 7178   3.210   4.359   9.696 -2.9165  0.9357 -3.0797
   64CHL1    C9 7179   3.331   4.172   9.673 -0.0626  0.6980  0.2707
   64CHL1    H9 7180   3.241   4.108   9.663 -0.4038  0.8768  2.0284
   64CHL1   C10 7181   3.368   4.155   9.820  0.6305  0.4172  0.5386
   64CHL1   C19 7182   3.463   4.270   9.860  0.8073  0.2933 -0.1247
   64CHL1  H19A 7183   3.415   4.367   9.832  0.6655  0.1335 -0.4355
   64CHL1  H19B 7184   3.490   4.269   9.968 -0.3257 -0.0899  0.1640
   64CHL1  H19C 7185   3.563   4.274   9.813  0.3774  2.1610 -0.9444
   64CHL1    C1 7186   3.240   4.153   9.909  0.9877 -0.5148  0.4895
   64CHL1   H1A 7187   3.179   4.243   9.886 -0.0361 -1.1524  0.6914
   64CHL1   H1B 7188   3.172   4.072   9.875 -0.7711  1.7892 -1.6566
   64CHL1    C2 7189   3.249   4.140  10.061  0.2493 -0.1477 -0.1742
   64CHL1   H2A 7190   3.154   4.121  10.115  1.3689 -0.7688  1.5948
   64CHL1   H2B 7191   3.280   4.234  10.112 -0.2424 -0.2407  0.3030
   64CHL1   C20 7192   3.347   4.359   9.145 -0.6123  0.3668  0.8277
   64CHL1   H20 7193   3.456   4.382   9.148 -0.2793 -0.8876 -0.8623
   64CHL1   C21 7194   3.275   4.486   9.188 -0.1091 -0.1297 -0.5402
   64CHL1  H21A 7195   3.165   4.472   9.190 -0.0106 -1.2556 -2.1376
   64CHL1  H21B 7196   3.300   4.574   9.125  2.7745  0.5372  1.4475
   64CHL1  H21C 7197   3.309   4.535   9.282  0.5885  2.0128 -1.8538
   64CHL1   C22 7198   3.317   4.341   8.994 -0.2324  0.1310 -0.1760
   64CHL1  H22A 7199   3.367   4.429   8.949 -0.7412  0.0897 -0.8302
   64CHL1  H22B 7200   3.372   4.250   8.963  1.5874  0.9999  0.4365
   64CHL1   C23 7201   3.170   4.334   8.955  0.2995  0.4941 -0.2295
   64CHL1  H23A 7202   3.112   4.265   9.020  1.9216 -0.0221  0.7087
   64CHL1  H23B 7203   3.125   4.433   8.977  2.0918  1.6389 -1.4957
   64CHL1   C24 7204   3.153   4.297   8.806  0.3241 -0.7019 -0.2566
   64CHL1  H24A 7205   3.200   4.382   8.752  0.8459  0.0604  1.3474
   64CHL1  H24B 7206   3.217   4.209   8.783 -1.7193 -2.0211 -1.0133
   64CHL1   C25 7207   3.013   4.266   8.757  0.3113 -0.6585  0.0117
   64CHL1   H25 7208   2.965   4.196   8.829 -1.9635  1.3387  0.5063
   64CHL1   C26 7209   2.914   4.388   8.758 -0.1823  0.3566  0.0903
   64CHL1  H26A 7210   2.899   4.415   8.864  2.4955  1.9187  0.1095
   64CHL1  H26B 7211   2.943   4.473   8.692 -1.8287 -0.5315 -1.8608
   64CHL1  H26C 7212   2.813   4.350   8.729  0.6594 -1.8948  0.0618
   64CHL1   C27 7213   3.024   4.206   8.619  0.4533  0.4265 -0.8661
   64CHL1  H27A 7214   3.085   4.272   8.555 -0.7876 -0.2572 -2.7992
   64CHL1  H27B 7215   3.063   4.102   8.624 -0.9280 -0.0391  1.0007
   64CHL1  H27C 7216   2.922   4.194   8.576  0.3053  1.1149 -0.6996
   65CHL1    C3 7217   4.909   0.760  10.350  0.0259 -0.2116 -0.1867
   65CHL1    H3 7218   4.814   0.809  10.320  1.8652  3.1183 -0.9184
   65CHL1    O3 7219   4.903   0.728  10.488  0.8411  0.2961 -0.0619
   65CHL1   H3' 7220   4.980   0.670  10.495 -0.0483 -0.8338  0.5811
   65CHL1    C4 7221   4.934   0.632  10.269  0.7308 -0.1274 -0.5981
   65CHL1   H4A 7222   5.025   0.583  10.311 -0.1573 -0.7967  0.6006
   65CHL1   H4B 7223   4.847   0.567  10.291 -1.1521  2.6705  0.5386
   65CHL1    C5 7224   4.950   0.668  10.123  0.5056  0.0595 -0.4154
   65CHL1    C6 7225   4.863   0.609  10.039  0.0480 -0.0114 -0.4522
   65CHL1    H6 7226   4.783   0.540  10.073 -0.0291  0.1321 -0.3424
   65CHL1    C7 7227   4.865   0.640   9.893 -0.8065  0.1374 -0.7597
   65CHL1   H7A 7228   4.838   0.553   9.829  0.6949 -0.2155 -0.9169
   65CHL1   H7B 7229   4.798   0.727   9.871 -1.3802  0.2750  1.4728
   65CHL1    C8 7230   5.009   0.696   9.852 -0.1240  0.1204 -0.4020
   65CHL1    H8 7231   5.090   0.619   9.857 -1.2159 -1.0857 -0.8827
   65CHL1   C14 7232   5.023   0.738   9.708  0.3175  0.0667  0.0844
   65CHL1   H14 7233   4.964   0.832   9.706  1.5901  0.8598 -2.3178
   65CHL1   C15 7234   4.968   0.648   9.596  1.1669 -0.6477 -1.2121
   65CHL1  H15A 7235   5.007   0.545   9.614 -0.2237 -1.2839 -1.7179
   65CHL1  H15B 7236   4.859   0.634   9.613  1.5013  0.4587  2.2097
   65CHL1   C16 7237   5.021   0.702   9.465  0.6288 -0.2006  0.1927
   65CHL1  H16A 7238   5.062   0.617   9.407  1.7514  0.2919  0.2569
   65CHL1  H16B 7239   4.948   0.761   9.405  1.1903 -0.4967 -0.7778
   65CHL1   C17 7240   5.138   0.802   9.503  0.2350 -0.3796 -0.3264
   65CHL1   H17 7241   5.085   0.899   9.504 -2.0619 -1.5670  3.0522
   65CHL1   C13 7242   5.162   0.784   9.658  0.0713 -0.3154 -0.3494
   65CHL1   C18 7243   5.272   0.672   9.675 -0.1490  0.2106  0.3317
   65CHL1  H18A 7244   5.269   0.638   9.781  0.8021 -2.5491 -0.4649
   65CHL1  H18B 7245   5.247   0.591   9.603 -1.3742  1.1431 -0.2940
   65CHL1  H18C 7246   5.370   0.714   9.644  0.2107 -1.8786 -1.5383
   65CHL1   C12 7247   5.196   0.915   9.739  0.7635 -0.2751 -0.1918
   65CHL1  H12A 7248   5.286   0.972   9.710  0.7745  1.4540  3.0643
   65CHL1  H12B 7249   5.116   0.986   9.708  1.7019  0.6870 -0.4358
   65CHL1   C11 7250   5.178   0.893   9.889  0.4203 -0.2592  0.7103
   65CHL1  H11A 7251   5.272   0.839   9.914 -0.0381 -1.0095  0.8227
   65CHL1  H11B 7252   5.176   0.990   9.943 -1.4791  0.0639  0.0771
   65CHL1    C9 7253   5.059   0.803   9.943  0.2256  0.7137  0.7999
   65CHL1    H9 7254   4.969   0.869   9.943  0.9955  1.7826  1.8053
   65CHL1   C10 7255   5.062   0.772  10.093  0.2265  0.3836 -1.2022
   65CHL1   C19 7256   5.190   0.698  10.134 -0.4199 -0.3301 -0.3828
   65CHL1  H19A 7257   5.197   0.598  10.088  2.0895  0.1571 -1.1404
   65CHL1  H19B 7258   5.281   0.753  10.100 -0.5152  0.5149  0.6760
   65CHL1  H19C 7259   5.205   0.687  10.244 -0.5085 -1.0288 -0.4408
   65CHL1    C1 7260   5.042   0.894  10.176  0.2865 -0.7795  0.0669
   65CHL1   H1A 7261   5.132   0.956  10.154 -0.6559  0.9015  0.7902
   65CHL1   H1B 7262   4.958   0.959  10.144  0.3671 -0.7035  0.0101
   65CHL1    C2 7263   5.025   0.862  10.323 -0.2365 -0.0464 -0.1900
   65CHL1   H2A 7264   4.991   0.956  10.372 -2.7284 -0.6422 -0.6888
   65CHL1   H2B 7265   5.122   0.839  10.372 -1.1275 -0.0167  1.6216
   65CHL1   C20 7266   5.255   0.803   9.407  0.2774 -0.1518  0.4368
   65CHL1   H20 7267   5.311   0.708   9.411  1.6818  0.6166 -0.4265
   65CHL1   C21 7268   5.353   0.910   9.445 -0.0418 -0.2891 -0.2408
   65CHL1  H21A 7269   5.428   0.909   9.362  2.2952  0.6843  1.8053
   65CHL1  H21B 7270   5.419   0.898   9.533  0.6956 -0.9106 -0.8664
   65CHL1  H21C 7271   5.295   1.005   9.448  0.0418 -0.1543 -2.0945
   65CHL1   C22 7272   5.195   0.826   9.263 -0.3292 -0.9009  0.0005
   65CHL1  H22A 7273   5.156   0.731   9.221 -1.0292  0.2931 -2.1391
   65CHL1  H22B 7274   5.116   0.903   9.259  0.9214  0.4213  0.3727
   65CHL1   C23 7275   5.297   0.876   9.153  0.0198  0.2597 -0.3079
   65CHL1  H23A 7276   5.321   0.980   9.183  2.7609 -0.7737  1.1970
   65CHL1  H23B 7277   5.381   0.804   9.146 -1.7437 -1.8512 -0.2015
   65CHL1   C24 7278   5.232   0.892   9.010 -0.0311  0.0469  0.1092
   65CHL1  H24A 7279   5.204   0.792   8.971  3.4219  0.0912 -2.7804
   65CHL1  H24B 7280   5.139   0.952   9.021  1.0527  1.6436  0.7320
   65CHL1   C25 7281   5.325   0.962   8.914  0.1477 -0.0567 -0.2697
   65CHL1   H25 7282   5.364   1.057   8.958 -3.1149  0.0850  2.5703
   65CHL1   C26 7283   5.450   0.882   8.868  0.1493 -0.1815  0.6632
   65CHL1  H26A 7284   5.512   0.856   8.956  0.5067  0.9588  0.7521
   65CHL1  H26B 7285   5.423   0.782   8.827 -1.3951  1.8179 -3.4881
   65CHL1  H26C 7286   5.508   0.940   8.793  0.6270 -0.8700  0.4930
   65CHL1   C27 7287   5.247   1.009   8.793  0.5540 -0.8903  0.0998
   65CHL1  H27A 7288   5.164   1.072   8.831 -2.7448 -4.0053 -1.6048
   65CHL1  H27B 7289   5.312   1.065   8.722  1.8894 -1.1891  1.0585
   65CHL1  H27C 7290   5.192   0.924   8.747 -0.5824  0.5127 -1.2133
   66CHL1    C3 7291   3.305   6.532  10.587 -0.1110 -0.2462 -0.1225
   66CHL1    H3 7292   3.382   6.607  10.559  0.8154 -0.7318  1.0961
   66CHL1    O3 7293   3.320   6.484  10.724  0.1290 -0.1666 -0.4881
   66CHL1   H3' 7294   3.368   6.401  10.733  0.7486  0.2938  0.4449
   66CHL1    C4 7295   3.174   6.607  10.574  1.0425 -0.3737 -0.6117
   66CHL1   H4A 7296   3.084   6.554  10.613 -0.8534  1.6911 -2.0590
   66CHL1   H4B 7297   3.174   6.693  10.644 -0.5927 -1.0829  0.3020
   66CHL1    C5 7298   3.145   6.650  10.435  0.2169  0.2139 -0.3964
   66CHL1    C6 7299   3.116   6.782  10.403 -0.0308  0.0449 -0.0526
   66CHL1    H6 7300   3.133   6.865  10.473 -5.0044 -1.3677  3.0759
   66CHL1    C7 7301   3.072   6.818  10.264 -0.0407 -0.2889  0.1151
   66CHL1   H7A 7302   2.971   6.863  10.259  0.8853  1.6406 -2.1186
   66CHL1   H7B 7303   3.144   6.892  10.224  1.0156 -0.3751  1.7968
   66CHL1    C8 7304   3.040   6.704  10.173  0.4686  0.3267  0.0090
   66CHL1    H8 7305   2.933   6.683  10.192  0.5177 -0.8451 -0.9754
   66CHL1   C14 7306   3.039   6.764  10.029  0.5353 -1.0179 -0.2422
   66CHL1   H14 7307   3.145   6.789  10.005 -0.0274  0.7443 -1.0339
   66CHL1   C15 7308   2.944   6.884   9.992 -0.1449  0.8984  0.6955
   66CHL1  H15A 7309   2.846   6.854  10.036  1.2986 -0.6987  2.9193
   66CHL1  H15B 7310   2.974   6.983  10.033 -0.1851  1.0667  0.3276
   66CHL1   C16 7311   2.933   6.879   9.837  0.3540 -0.6284 -0.0010
   66CHL1  H16A 7312   2.827   6.883   9.805  0.5384 -0.7827 -0.6243
   66CHL1  H16B 7313   2.982   6.966   9.788  2.0414 -0.4195  1.9484
   66CHL1   C17 7314   3.008   6.749   9.788  0.1908 -0.0029  0.1063
   66CHL1   H17 7315   3.114   6.776   9.772  0.0403  0.1482 -0.6487
   66CHL1   C13 7316   3.015   6.660   9.919 -0.6247  0.8223  0.3939
   66CHL1   C18 7317   2.877   6.590   9.938  0.4359  0.2647  0.0080
   66CHL1  H18A 7318   2.791   6.660   9.928 -1.0020 -0.7615  4.0114
   66CHL1  H18B 7319   2.863   6.499   9.876 -0.6172  0.6183 -0.2932
   66CHL1  H18C 7320   2.873   6.542  10.039 -2.8555 -0.1227 -0.2522
   66CHL1   C12 7321   3.130   6.547   9.928 -0.4448  0.2110  0.3596
   66CHL1  H12A 7322   3.115   6.468   9.851 -0.4151  0.5073  0.0488
   66CHL1  H12B 7323   3.223   6.601   9.902  0.1585 -0.6214  0.7702
   66CHL1   C11 7324   3.129   6.486  10.064 -1.0691  0.1704 -0.5852
   66CHL1  H11A 7325   3.041   6.420  10.084  0.4966 -1.9312 -0.4859
   66CHL1  H11B 7326   3.218   6.420  10.063 -0.8338  0.4397  1.2135
   66CHL1    C9 7327   3.140   6.591  10.185  0.0829  0.7625  0.2789
   66CHL1    H9 7328   3.239   6.639  10.175  0.2356 -0.2017 -3.4637
   66CHL1   C10 7329   3.142   6.534  10.334 -0.4720  0.2101  0.2427
   66CHL1   C19 7330   3.023   6.435  10.363 -0.3789 -0.1090  0.3714
   66CHL1  H19A 7331   3.018   6.412  10.472 -2.3062 -0.3895  0.2507
   66CHL1  H19B 7332   2.928   6.490  10.341 -0.8946 -0.2065  2.2200
   66CHL1  H19C 7333   3.018   6.346  10.297  2.5034  0.7114 -0.9992
   66CHL1    C1 7334   3.282   6.453  10.346  0.3602 -0.0219 -0.2108
   66CHL1   H1A 7335   3.288   6.373  10.269  1.7278 -1.8529  1.7121
   66CHL1   H1B 7336   3.359   6.525  10.312 -1.2719  1.5912 -0.5396
   66CHL1    C2 7337   3.306   6.408  10.488  0.2481  0.1622 -0.0308
   66CHL1   H2A 7338   3.398   6.350  10.510  1.4558  1.5450 -1.2970
   66CHL1   H2B 7339   3.219   6.348  10.521 -1.2828  2.3138 -0.0593
   66CHL1   C20 7340   2.945   6.700   9.653 -0.2668  0.3347  0.6510
   66CHL1   H20 7341   2.837   6.680   9.668  0.1743 -1.3605  1.6822
   66CHL1   C21 7342   3.012   6.566   9.595  0.6946  0.3053  0.1068
   66CHL1  H21A 7343   3.008   6.483   9.669  3.6764  1.3093  1.4697
   66CHL1  H21B 7344   3.116   6.585   9.563  1.2130 -0.0332  1.5370
   66CHL1  H21C 7345   2.947   6.524   9.515  0.6512  0.7353 -0.0870
   66CHL1   C22 7346   2.962   6.813   9.549  0.3168  0.0416  0.1921
   66CHL1  H22A 7347   2.899   6.904   9.562 -1.6926 -1.6202  2.5382
   66CHL1  H22B 7348   3.066   6.852   9.550  1.3131 -2.5250 -0.0379
   66CHL1   C23 7349   2.929   6.763   9.402 -0.3495  0.6309  0.5614
   66CHL1  H23A 7350   3.015   6.699   9.374  0.9473  2.3911  0.3816
   66CHL1  H23B 7351   2.840   6.698   9.413  0.1670 -0.1570  0.1004
   66CHL1   C24 7352   2.921   6.880   9.308  0.1991 -0.1987 -0.4936
   66CHL1  H24A 7353   2.836   6.950   9.322  1.9558  2.1124 -1.1758
   66CHL1  H24B 7354   3.012   6.935   9.342  0.9476 -0.8809 -1.3717
   66CHL1   C25 7355   2.942   6.848   9.159 -0.3357 -0.4980 -0.2148
   66CHL1   H25 7356   3.037   6.792   9.148 -0.4027 -0.6324 -0.1101
   66CHL1   C26 7357   2.846   6.751   9.091  0.4595  0.0886  0.1721
   66CHL1  H26A 7358   2.879   6.745   8.985 -0.7626  2.2407 -0.3577
   66CHL1  H26B 7359   2.861   6.650   9.133  0.2359  0.1914  0.4907
   66CHL1  H26C 7360   2.739   6.779   9.091  0.4370  0.0073 -0.4342
   66CHL1   C27 7361   2.940   6.979   9.072 -0.2200  0.1141  0.3983
   66CHL1  H27A 7362   2.839   7.025   9.079 -1.3311 -1.9383 -1.3895
   66CHL1  H27B 7363   3.017   7.049   9.110 -0.8372  0.9408  0.1503
   66CHL1  H27C 7364   2.960   6.943   8.969  0.7808  0.7743  0.3526
   67CHL1    C3 7365   0.201   6.526  10.270  0.2185 -0.5875 -0.4235
   67CHL1    H3 7366   0.298   6.569  10.302  0.3608 -2.3611  1.6182
   67CHL1    O3 7367   0.134   6.493  10.389  0.6690  0.3693 -0.0405
   67CHL1   H3' 7368   0.189   6.543  10.450 -1.7126  0.5086  2.0981
   67CHL1    C4 7369   0.117   6.622  10.179 -0.0653  0.2054 -0.0678
   67CHL1   H4A 7370   0.015   6.581  10.165  0.1967  0.1865 -2.0581
   67CHL1   H4B 7371   0.104   6.712  10.242 -3.4328 -2.2436  2.9327
   67CHL1    C5 7372   0.183   6.633  10.043 -0.5233  0.1426  0.4563
   67CHL1    C6 7373   0.227   6.749  10.001 -0.3651 -0.1702 -0.2042
   67CHL1    H6 7374   0.214   6.842  10.059  1.7716  1.7251 -2.6413
   67CHL1    C7 7375   0.289   6.772   9.860  0.0790  0.1742  0.1566
   67CHL1   H7A 7376   0.258   6.868   9.815 -0.4969 -0.7221 -1.4243
   67CHL1   H7B 7377   0.399   6.778   9.874  0.3706 -1.2686 -1.3134
   67CHL1    C8 7378   0.253   6.649   9.771  0.0898 -0.0094 -0.4045
   67CHL1    H8 7379   0.150   6.658   9.731  0.0359 -1.8069 -0.6874
   67CHL1   C14 7380   0.346   6.662   9.650 -0.4173  0.9716 -0.0485
   67CHL1   H14 7381   0.449   6.643   9.689  1.0025  0.3045 -3.9765
   67CHL1   C15 7382   0.359   6.800   9.578 -0.0646  1.0023 -0.2357
   67CHL1  H15A 7383   0.264   6.857   9.564 -0.2952  0.5459 -0.5519
   67CHL1  H15B 7384   0.422   6.880   9.623 -0.8304  1.4422  0.0785
   67CHL1   C16 7385   0.428   6.762   9.446  0.4334 -0.2494 -1.0553
   67CHL1  H16A 7386   0.366   6.805   9.363  0.5957 -0.1660 -1.1331
   67CHL1  H16B 7387   0.530   6.804   9.432  0.1799  1.0900  0.9455
   67CHL1   C17 7388   0.436   6.600   9.437 -0.0271 -0.0935  0.3491
   67CHL1   H17 7389   0.538   6.568   9.470  1.0678  2.1569 -0.7795
   67CHL1   C13 7390   0.327   6.555   9.540 -0.4296  0.2480  0.7362
   67CHL1   C18 7391   0.184   6.583   9.486  0.2485  0.6978 -0.3782
   67CHL1  H18A 7392   0.159   6.506   9.410  1.4863 -0.7943  0.7191
   67CHL1  H18B 7393   0.106   6.571   9.564  1.2107  0.1086  0.5024
   67CHL1  H18C 7394   0.163   6.686   9.449 -1.0361  0.3897 -0.5490
   67CHL1   C12 7395   0.344   6.415   9.610  0.5600  0.0001  0.4595
   67CHL1  H12A 7396   0.314   6.337   9.537  0.7032  2.8743 -2.8055
   67CHL1  H12B 7397   0.445   6.393   9.650 -0.1117 -0.9045  1.6906
   67CHL1   C11 7398   0.255   6.406   9.734  0.0540 -0.0751 -0.2579
   67CHL1  H11A 7399   0.150   6.409   9.697 -0.2243 -1.8315  0.3563
   67CHL1  H11B 7400   0.257   6.308   9.785  0.5951  0.2402  0.3385
   67CHL1    C9 7401   0.278   6.515   9.840 -0.1062  0.3627 -0.2021
   67CHL1    H9 7402   0.387   6.514   9.864 -0.0581 -0.5160 -0.4746
   67CHL1   C10 7403   0.196   6.503   9.969 -0.3945  0.3169 -0.1939
   67CHL1   C19 7404   0.057   6.435   9.933 -0.1633  0.9636 -0.2459
   67CHL1  H19A 7405  -0.023   6.435  10.009 -0.9429  2.6956 -1.0296
   67CHL1  H19B 7406   0.007   6.488   9.849 -0.0709  2.2018  0.4585
   67CHL1  H19C 7407   0.065   6.331   9.895 -1.3720  0.4223  0.9328
   67CHL1    C1 7408   0.288   6.414  10.063 -0.2073  1.1349  0.3344
   67CHL1   H1A 7409   0.310   6.319  10.010 -2.7007  0.8322 -0.2155
   67CHL1   H1B 7410   0.387   6.463  10.073  0.9412 -1.1117  0.2491
   67CHL1    C2 7411   0.222   6.395  10.196  0.2487 -0.4146 -0.1013
   67CHL1   H2A 7412   0.277   6.321  10.259 -1.2414 -1.7081 -0.3028
   67CHL1   H2B 7413   0.125   6.344  10.179 -0.8149  1.5160  0.0768
   67CHL1   C20 7414   0.422   6.556   9.292  0.1740  0.4974 -0.0265
   67CHL1   H20 7415   0.326   6.587   9.245  1.2521  0.7393 -2.1147
   67CHL1   C21 7416   0.434   6.403   9.291  0.1229 -0.4283 -0.2315
   67CHL1  H21A 7417   0.336   6.352   9.305 -0.1327  0.5239  1.5004
   67CHL1  H21B 7418   0.514   6.373   9.361 -0.5723  1.6965  1.5228
   67CHL1  H21C 7419   0.457   6.372   9.187 -0.6883  1.7280 -1.0806
   67CHL1   C22 7420   0.531   6.615   9.205 -0.2253 -0.6878  0.1935
   67CHL1  H22A 7421   0.531   6.726   9.209  0.1302 -0.5768 -2.2173
   67CHL1  H22B 7422   0.632   6.580   9.233 -1.3831 -2.4663  2.3180
   67CHL1   C23 7423   0.506   6.603   9.045 -0.6729  0.1217 -0.2701
   67CHL1  H23A 7424   0.545   6.500   9.030  1.1921  0.8052 -0.1778
   67CHL1  H23B 7425   0.404   6.628   9.009 -1.5807 -2.7900  0.1285
   67CHL1   C24 7426   0.591   6.699   8.970 -0.4479  0.2362  0.7995
   67CHL1  H24A 7427   0.569   6.807   8.987 -0.1561  0.5186 -0.5133
   67CHL1  H24B 7428   0.695   6.685   9.006  0.0591 -0.0504 -0.7383
   67CHL1   C25 7429   0.605   6.673   8.822 -0.7798  0.4901 -0.7333
   67CHL1   H25 7430   0.505   6.675   8.774 -0.4632 -0.9282 -1.4730
   67CHL1   C26 7431   0.681   6.785   8.750  0.0012 -0.1947 -0.1197
   67CHL1  H26A 7432   0.629   6.883   8.764 -1.4870 -0.9685 -0.1006
   67CHL1  H26B 7433   0.782   6.805   8.792 -0.1392  0.8502 -0.2481
   67CHL1  H26C 7434   0.684   6.771   8.640  0.9951  1.5169 -0.3313
   67CHL1   C27 7435   0.661   6.530   8.803 -0.1607  0.6306  0.4032
   67CHL1  H27A 7436   0.763   6.532   8.848  0.1241  1.2998 -0.2578
   67CHL1  H27B 7437   0.592   6.455   8.847 -2.2283  1.5734 -1.1701
   67CHL1  H27C 7438   0.668   6.513   8.693 -2.1473 -1.2260  0.5387
   68CHL1    C3 7439   5.126   0.281  10.322 -0.4239 -0.8158  0.4431
   68CHL1    H3 7440   5.104   0.388  10.305  0.4275 -0.6558  0.3386
   68CHL1    O3 7441   5.142   0.265  10.465 -0.8616 -0.0164 -0.3408
   68CHL1   H3' 7442   5.181   0.177  10.470  2.3476  1.4039  1.0574
   68CHL1    C4 7443   5.009   0.194  10.285  0.2131 -0.7555 -0.1183
   68CHL1   H4A 7444   5.023   0.089  10.319 -0.3413 -0.9876 -0.6053
   68CHL1   H4B 7445   4.915   0.219  10.339  1.2331 -0.9331  1.7936
   68CHL1    C5 7446   4.977   0.203  10.135  0.9847 -0.1425  0.7028
   68CHL1    C6 7447   4.856   0.242  10.099 -0.6084 -0.0065 -0.3632
   68CHL1    H6 7448   4.786   0.262  10.182  0.3947 -0.0284  0.5076
   68CHL1    C7 7449   4.825   0.267   9.957 -0.0122  0.3344  0.6566
   68CHL1   H7A 7450   4.726   0.230   9.923  0.5725  0.4612 -1.2812
   68CHL1   H7B 7451   4.817   0.376   9.936 -0.4824 -0.4668 -3.8757
   68CHL1    C8 7452   4.920   0.203   9.860  0.2032  0.2530 -0.3995
   68CHL1    H8 7453   4.905   0.094   9.875  2.3229 -0.3814 -2.5543
   68CHL1   C14 7454   4.898   0.238   9.717 -0.2463 -0.7692  0.2589
   68CHL1   H14 7455   4.902   0.348   9.729 -0.5129 -0.7083 -0.1694
   68CHL1   C15 7456   4.751   0.217   9.671 -1.0441  0.4414 -0.1364
   68CHL1  H15A 7457   4.728   0.115   9.707  0.3368 -0.2065 -1.0298
   68CHL1  H15B 7458   4.684   0.285   9.727 -1.8101 -1.0065  0.7244
   68CHL1   C16 7459   4.761   0.227   9.522 -0.2037  0.0923  0.7923
   68CHL1  H16A 7460   4.715   0.131   9.490  2.1572 -1.3054  1.4940
   68CHL1  H16B 7461   4.718   0.315   9.469 -0.7280 -0.9729 -0.6025
   68CHL1   C17 7462   4.913   0.241   9.490  0.2428  0.0856  0.4978
   68CHL1   H17 7463   4.935   0.350   9.496  1.1063  0.3640 -5.1691
   68CHL1   C13 7464   4.988   0.174   9.613 -0.1398  0.5075  1.1106
   68CHL1   C18 7465   4.972   0.019   9.604 -0.1220 -0.2444 -0.0843
   68CHL1  H18A 7466   4.866  -0.011   9.585 -0.2084 -0.5862  0.9450
   68CHL1  H18B 7467   5.023  -0.019   9.513  0.5466 -2.6060  1.2492
   68CHL1  H18C 7468   5.019  -0.040   9.685  0.5677  0.8094  0.2865
   68CHL1   C12 7469   5.134   0.217   9.640  0.8571 -0.8112 -0.6144
   68CHL1  H12A 7470   5.205   0.163   9.574  0.1148 -1.5882 -0.7904
   68CHL1  H12B 7471   5.155   0.326   9.636  1.2726 -0.8246  1.1298
   68CHL1   C11 7472   5.160   0.170   9.779 -0.8340 -0.0944 -0.0281
   68CHL1  H11A 7473   5.153   0.060   9.773 -1.6679 -0.1049  0.9746
   68CHL1  H11B 7474   5.265   0.186   9.811 -0.6818 -1.0799 -0.0284
   68CHL1    C9 7475   5.068   0.228   9.893  0.0792 -0.3431  1.1173
   68CHL1    H9 7476   5.084   0.338   9.887  2.1096 -0.6811 -0.1238
   68CHL1   C10 7477   5.097   0.179  10.036  0.1196  0.9745 -0.1230
   68CHL1   C19 7478   5.109   0.025  10.042 -0.2104  0.5108  0.3212
   68CHL1  H19A 7479   5.120  -0.015  10.145 -1.2972 -1.5920 -0.3619
   68CHL1  H19B 7480   5.030  -0.036   9.994  1.6842 -2.5514  0.9572
   68CHL1  H19C 7481   5.203  -0.014   9.999 -0.7467  0.2836 -0.6447
   68CHL1    C1 7482   5.223   0.249  10.091  0.1925  0.3475  0.8210
   68CHL1   H1A 7483   5.315   0.233  10.032  1.2220  1.2897  2.1231
   68CHL1   H1B 7484   5.207   0.357  10.071  2.0551  0.8287  1.7958
   68CHL1    C2 7485   5.253   0.238  10.246  0.4121  1.0150  0.8027
   68CHL1   H2A 7486   5.341   0.300  10.272  2.0436 -1.3078  0.9866
   68CHL1   H2B 7487   5.282   0.134  10.274 -0.0216  0.9921  1.1735
   68CHL1   C20 7488   4.946   0.189   9.353 -0.2239 -0.5546  0.3373
   68CHL1   H20 7489   4.937   0.079   9.344 -0.5413 -0.8118  3.3940
   68CHL1   C21 7490   5.092   0.205   9.322  0.3036  0.4830 -0.0268
   68CHL1  H21A 7491   5.105   0.202   9.211  0.3702  2.2864 -0.0908
   68CHL1  H21B 7492   5.159   0.132   9.371  2.1344  1.4158 -1.1021
   68CHL1  H21C 7493   5.126   0.305   9.358 -0.7653  0.4294  1.1756
   68CHL1   C22 7494   4.874   0.245   9.231  0.0349 -1.1725 -0.0329
   68CHL1  H22A 7495   4.893   0.180   9.143  1.8714 -2.1383  1.0380
   68CHL1  H22B 7496   4.767   0.225   9.254 -0.0134 -0.8203  0.0583
   68CHL1   C23 7497   4.901   0.388   9.200 -0.4037 -0.1097 -0.1282
   68CHL1  H23A 7498   4.871   0.450   9.287  0.8417 -1.3231  1.2011
   68CHL1  H23B 7499   5.007   0.404   9.171 -0.1612 -3.0032 -1.0022
   68CHL1   C24 7500   4.817   0.422   9.072  0.0619 -0.4978 -0.6395
   68CHL1  H24A 7501   4.842   0.340   9.001 -0.0459  1.1866 -2.6778
   68CHL1  H24B 7502   4.709   0.411   9.096  0.3829 -0.3557  0.9294
   68CHL1   C25 7503   4.831   0.565   9.019 -0.4184  0.3074  0.0304
   68CHL1   H25 7504   4.780   0.564   8.921 -2.0162 -1.0366  0.8381
   68CHL1   C26 7505   4.751   0.659   9.099 -0.2052 -0.3195  0.4917
   68CHL1  H26A 7506   4.643   0.631   9.102 -0.2438 -0.1972  0.2313
   68CHL1  H26B 7507   4.779   0.660   9.206 -1.1100 -0.1877  0.7274
   68CHL1  H26C 7508   4.767   0.763   9.063  1.0292 -1.2300 -1.7030
   68CHL1   C27 7509   4.975   0.620   8.995 -0.4193  0.4724  0.8091
   68CHL1  H27A 7510   5.032   0.548   8.932  0.2139  0.6006  1.2302
   68CHL1  H27B 7511   4.989   0.720   8.948 -2.5262  0.2634 -0.3251
   68CHL1  H27C 7512   5.007   0.622   9.101  0.4192  0.5550  0.5587
   69CHL1    C3 7513   4.523   5.013   6.751  0.2342  0.0326 -0.7535
   69CHL1    H3 7514   4.440   5.085   6.738 -0.3681 -0.2921  1.1051
   69CHL1    O3 7515   4.556   4.970   6.620  0.4438  0.1425  0.4085
   69CHL1   H3' 7516   4.476   4.948   6.571  0.3275  2.9054 -0.7492
   69CHL1    C4 7517   4.646   5.080   6.813 -0.0030  0.0196  1.1722
   69CHL1   H4A 7518   4.727   5.005   6.806 -0.0223  0.1828 -1.4349
   69CHL1   H4B 7519   4.689   5.149   6.738  1.9589 -2.5110 -0.1072
   69CHL1    C5 7520   4.616   5.132   6.951 -0.1783 -0.1232 -0.6422
   69CHL1    C6 7521   4.657   5.257   6.987 -0.5209 -0.3127 -0.0242
   69CHL1    H6 7522   4.708   5.316   6.910 -1.8673 -0.8480 -1.3348
   69CHL1    C7 7523   4.614   5.321   7.119 -0.2788 -0.2022 -0.6312
   69CHL1   H7A 7524   4.688   5.393   7.160  1.2016 -1.4163 -1.1037
   69CHL1   H7B 7525   4.518   5.377   7.109 -0.4611  0.0073  2.1184
   69CHL1    C8 7526   4.592   5.209   7.228  0.1358 -0.1695  0.0853
   69CHL1    H8 7527   4.691   5.169   7.258  0.4945  0.9718  0.4533
   69CHL1   C14 7528   4.535   5.283   7.350 -0.1915  0.1797 -0.4803
   69CHL1   H14 7529   4.438   5.331   7.326 -0.2461 -0.2280 -1.0780
   69CHL1   C15 7530   4.612   5.401   7.415 -1.1979 -0.3035  0.2465
   69CHL1  H15A 7531   4.719   5.376   7.429 -0.5176  1.5469 -1.4207
   69CHL1  H15B 7532   4.601   5.492   7.353 -1.8614 -0.5573 -0.0115
   69CHL1   C16 7533   4.553   5.404   7.564  0.0574 -0.3355  0.0707
   69CHL1  H16A 7534   4.647   5.396   7.623 -0.5934  1.0553  1.3394
   69CHL1  H16B 7535   4.501   5.498   7.592  1.4063  0.1652  0.9705
   69CHL1   C17 7536   4.456   5.286   7.570 -0.5234  0.5390 -0.3467
   69CHL1   H17 7537   4.361   5.329   7.532  1.9134  4.5754 -2.2320
   69CHL1   C13 7538   4.498   5.184   7.464 -0.1356 -0.2505  0.4346
   69CHL1   C18 7539   4.615   5.099   7.520  0.4204  0.0485  0.1342
   69CHL1  H18A 7540   4.692   5.167   7.564  1.5897 -2.5791  2.2546
   69CHL1  H18B 7541   4.586   5.025   7.597 -1.9470  1.7276  0.9457
   69CHL1  H18C 7542   4.661   5.051   7.431 -1.9351 -0.0256 -1.0735
   69CHL1   C12 7543   4.394   5.086   7.409 -0.6664 -0.6180 -0.1128
   69CHL1  H12A 7544   4.378   5.015   7.493  3.9809 -4.0200 -1.9247
   69CHL1  H12B 7545   4.301   5.146   7.396 -0.1845  0.2487  0.4019
   69CHL1   C11 7546   4.426   5.016   7.281  0.3891  0.9179 -0.1990
   69CHL1  H11A 7547   4.493   4.932   7.310  0.2914  0.9634  0.1556
   69CHL1  H11B 7548   4.331   4.970   7.244  2.1941 -0.4597 -3.3984
   69CHL1    C9 7549   4.496   5.102   7.169 -0.1982  0.1443 -0.7175
   69CHL1    H9 7550   4.412   5.164   7.131 -0.0001  0.3575 -0.8077
   69CHL1   C10 7551   4.544   5.030   7.041  0.0551  0.4241  0.8401
   69CHL1   C19 7552   4.652   4.924   7.081  0.0498  0.7600 -0.1702
   69CHL1  H19A 7553   4.698   4.886   6.987 -2.8697 -1.5200 -0.7345
   69CHL1  H19B 7554   4.727   4.983   7.138  0.8317 -0.2381 -0.1470
   69CHL1  H19C 7555   4.621   4.830   7.132  3.0622 -0.9324 -1.3375
   69CHL1    C1 7556   4.426   4.959   6.960  0.1966  0.3931  0.4138
   69CHL1   H1A 7557   4.389   4.874   7.023  0.2126  1.2712  1.6248
   69CHL1   H1B 7558   4.346   5.035   6.948  1.4115  2.1558  2.9666
   69CHL1    C2 7559   4.465   4.900   6.827 -0.1865  0.4336  0.9529
   69CHL1   H2A 7560   4.380   4.856   6.771  0.0552  0.7701  0.3194
   69CHL1   H2B 7561   4.538   4.819   6.849 -0.2487  0.3314  0.7778
   69CHL1   C20 7562   4.429   5.233   7.711 -0.0650  0.1826 -0.0844
   69CHL1   H20 7563   4.521   5.182   7.750 -0.5673 -1.3093 -0.7953
   69CHL1   C21 7564   4.308   5.138   7.708 -0.0802 -0.0010 -0.4890
   69CHL1  H21A 7565   4.344   5.034   7.694  1.8003  0.8680 -2.3732
   69CHL1  H21B 7566   4.236   5.167   7.629  0.2823 -0.9258 -1.1600
   69CHL1  H21C 7567   4.253   5.150   7.804  1.9962 -0.3285  0.7960
   69CHL1   C22 7568   4.406   5.339   7.826  0.4487  0.4198 -0.2509
   69CHL1  H22A 7569   4.469   5.429   7.809  0.7329  0.0219 -1.3137
   69CHL1  H22B 7570   4.299   5.368   7.830  0.1957 -0.1997 -2.0534
   69CHL1   C23 7571   4.447   5.285   7.967 -0.4342  0.4179  0.2416
   69CHL1  H23A 7572   4.401   5.184   7.978  0.7738 -0.2547 -0.8528
   69CHL1  H23B 7573   4.557   5.271   7.960 -0.6608 -0.7658 -1.2448
   69CHL1   C24 7574   4.402   5.374   8.084 -0.5433 -0.5116 -0.7468
   69CHL1  H24A 7575   4.439   5.477   8.067 -0.9706 -0.2730 -0.2353
   69CHL1  H24B 7576   4.292   5.373   8.072 -0.8946 -1.2645  2.1004
   69CHL1   C25 7577   4.431   5.319   8.221  0.9363 -0.3285 -0.8080
   69CHL1   H25 7578   4.532   5.275   8.234  0.2825 -1.7921 -0.6265
   69CHL1   C26 7579   4.423   5.421   8.333 -0.5871  0.1676  0.7113
   69CHL1  H26A 7580   4.481   5.513   8.313 -0.8956 -0.2351 -2.3374
   69CHL1  H26B 7581   4.318   5.454   8.349 -0.5611  0.3553  0.4901
   69CHL1  H26C 7582   4.446   5.380   8.434 -0.8963  0.0527  0.7345
   69CHL1   C27 7583   4.339   5.202   8.259 -0.8148 -0.1067  0.8076
   69CHL1  H27A 7584   4.353   5.116   8.191 -2.6105  0.6303 -0.5288
   69CHL1  H27B 7585   4.364   5.169   8.363 -0.2242  1.3185  1.1428
   69CHL1  H27C 7586   4.232   5.231   8.251 -0.4040  1.3159  0.2334
   70CHL1    C3 7587   3.901   2.287   7.027 -0.3375 -0.3762 -0.1090
   70CHL1    H3 7588   3.835   2.198   7.021 -0.2361 -0.6034  1.8613
   70CHL1    O3 7589   3.879   2.355   6.906  0.3216 -0.2553  0.4474
   70CHL1   H3' 7590   3.921   2.301   6.839  0.2572  0.7576 -0.4182
   70CHL1    C4 7591   3.854   2.373   7.148  0.2194 -0.9612 -0.0795
   70CHL1   H4A 7592   3.903   2.471   7.130  0.0421 -0.5539  1.6220
   70CHL1   H4B 7593   3.744   2.385   7.142  0.1915  0.2276  2.2681
   70CHL1    C5 7594   3.889   2.313   7.286 -0.2558  0.1304 -0.4308
   70CHL1    C6 7595   3.798   2.290   7.385 -0.4036 -0.4007  0.3656
   70CHL1    H6 7596   3.689   2.297   7.369 -0.1899  0.4902 -0.7500
   70CHL1    C7 7597   3.824   2.247   7.522  0.1655  0.1931  0.4427
   70CHL1   H7A 7598   3.757   2.307   7.587 -0.4778  1.0785 -0.9905
   70CHL1   H7B 7599   3.796   2.140   7.531 -1.4155  0.4453 -1.1433
   70CHL1    C8 7600   3.975   2.261   7.560  0.0813 -0.1732  0.7025
   70CHL1    H8 7601   3.994   2.369   7.578 -1.9093  0.6212 -1.6729
   70CHL1   C14 7602   3.999   2.175   7.681 -0.1285  0.3440  0.6598
   70CHL1   H14 7603   3.990   2.067   7.654 -0.5957 -0.1123  2.5522
   70CHL1   C15 7604   3.914   2.194   7.802 -0.4940  0.0550 -0.0725
   70CHL1  H15A 7605   3.881   2.298   7.824 -2.7733 -0.3989 -1.1748
   70CHL1  H15B 7606   3.818   2.139   7.788  0.2109 -0.5674 -2.6828
   70CHL1   C16 7607   3.987   2.133   7.921  0.5788 -0.4090  0.2879
   70CHL1  H16A 7608   3.990   2.204   8.007 -0.9569  0.1464 -0.1054
   70CHL1  H16B 7609   3.932   2.038   7.939 -0.8245  0.2659 -0.4102
   70CHL1   C17 7610   4.126   2.095   7.861 -0.8115  0.0882  0.4118
   70CHL1   H17 7611   4.114   1.991   7.822  0.6787  0.9097 -2.3714
   70CHL1   C13 7612   4.141   2.184   7.735  0.1429 -0.5229 -0.1441
   70CHL1   C18 7613   4.174   2.332   7.783 -0.1654  0.0550 -0.3759
   70CHL1  H18A 7614   4.108   2.360   7.868 -1.0128 -0.1618 -0.9599
   70CHL1  H18B 7615   4.283   2.349   7.798  0.0796 -0.9383 -1.0288
   70CHL1  H18C 7616   4.161   2.402   7.698 -0.6067 -0.3423 -0.6346
   70CHL1   C12 7617   4.244   2.141   7.631 -1.7232  0.0722 -0.1037
   70CHL1  H12A 7618   4.344   2.164   7.673 -0.1947 -0.2232 -3.4388
   70CHL1  H12B 7619   4.244   2.033   7.606  3.0355  0.5710 -2.8001
   70CHL1   C11 7620   4.221   2.206   7.491  0.0196  0.1819  0.7042
   70CHL1  H11A 7621   4.258   2.311   7.491  2.0689 -0.5285  0.3805
   70CHL1  H11B 7622   4.272   2.152   7.409  0.5067 -0.6664  1.5659
   70CHL1    C9 7623   4.071   2.212   7.446  0.0595  0.1590  0.3996
   70CHL1    H9 7624   4.045   2.106   7.425 -3.0127  0.1432  3.7544
   70CHL1   C10 7625   4.037   2.287   7.305  0.5295  0.5381 -0.5479
   70CHL1   C19 7626   4.109   2.426   7.302 -0.1683 -1.0315  0.1009
   70CHL1  H19A 7627   4.218   2.409   7.314  0.0709 -2.4490 -3.1913
   70CHL1  H19B 7628   4.100   2.488   7.210  0.4307  2.2973  2.2083
   70CHL1  H19C 7629   4.080   2.486   7.390 -1.3610 -1.5120  0.0537
   70CHL1    C1 7630   4.076   2.202   7.190 -0.3229  0.1872 -0.1787
   70CHL1   H1A 7631   4.187   2.194   7.193 -0.3782 -0.8556 -0.4827
   70CHL1   H1B 7632   4.049   2.095   7.207  0.0403 -0.0853 -1.2755
   70CHL1    C2 7633   4.045   2.249   7.045 -0.0527 -0.4758 -0.9757
   70CHL1   H2A 7634   4.058   2.163   6.975 -1.2455 -2.0379  0.6619
   70CHL1   H2B 7635   4.112   2.331   7.012 -1.1187  0.1546 -1.5856
   70CHL1   C20 7636   4.245   2.093   7.953  0.0892 -0.0849  0.1088
   70CHL1   H20 7637   4.305   2.186   7.951 -2.4135  1.5941  0.9354
   70CHL1   C21 7638   4.338   1.972   7.909 -0.0142 -0.3237 -0.6685
   70CHL1  H21A 7639   4.417   1.967   7.986 -0.5738  0.3158 -0.0473
   70CHL1  H21B 7640   4.388   1.996   7.812 -1.4084 -0.7738 -1.5160
   70CHL1  H21C 7641   4.269   1.886   7.896  0.5598 -0.9530  0.3898
   70CHL1   C22 7642   4.210   2.049   8.098  0.0262 -0.7152  0.5873
   70CHL1  H22A 7643   4.116   2.100   8.129  0.4747 -1.2020  2.8204
   70CHL1  H22B 7644   4.183   1.941   8.093 -2.2833 -0.1400 -0.0060
   70CHL1   C23 7645   4.321   2.084   8.201  0.5086 -0.1169  0.1663
   70CHL1  H23A 7646   4.421   2.045   8.171  0.0441 -0.5733 -0.7969
   70CHL1  H23B 7647   4.320   2.194   8.211 -0.3544 -0.1007 -0.0410
   70CHL1   C24 7648   4.284   2.038   8.348  0.4548  0.0338 -0.0005
   70CHL1  H24A 7649   4.342   2.088   8.428 -1.1189  0.5205  0.8606
   70CHL1  H24B 7650   4.185   2.081   8.373  0.4198 -1.5142  2.7167
   70CHL1   C25 7651   4.273   1.880   8.365  0.2048 -0.4937  0.0121
   70CHL1   H25 7652   4.205   1.832   8.290 -0.6859 -0.9663  1.0961
   70CHL1   C26 7653   4.410   1.811   8.349  0.0817 -0.5286  0.4309
   70CHL1  H26A 7654   4.402   1.701   8.357  2.9335 -0.8027  0.0514
   70CHL1  H26B 7655   4.458   1.838   8.253  0.4242 -0.7042  0.5490
   70CHL1  H26C 7656   4.479   1.846   8.430  0.1092 -0.1775  0.2580
   70CHL1   C27 7657   4.211   1.850   8.509 -0.1165 -0.2932  0.9807
   70CHL1  H27A 7658   4.291   1.871   8.583 -0.2824  0.1261  1.0399
   70CHL1  H27B 7659   4.134   1.923   8.541 -0.6444 -0.4485  0.0470
   70CHL1  H27C 7660   4.188   1.742   8.516  1.8924 -0.8267 -0.1314
   71CHL1    C3 7661   3.026   4.861   7.080  0.1589  0.1503 -0.0335
   71CHL1    H3 7662   2.931   4.912   7.105 -0.3868 -0.3507 -1.0602
   71CHL1    O3 7663   3.051   4.875   6.941 -0.2480  0.1322  0.2061
   71CHL1   H3' 7664   3.116   4.806   6.926 -0.4482 -0.3460  1.4518
   71CHL1    C4 7665   3.151   4.913   7.150  0.2196 -0.0025 -0.2311
   71CHL1   H4A 7666   3.230   4.867   7.086 -0.3462 -1.1850 -0.0899
   71CHL1   H4B 7667   3.167   5.019   7.120 -0.8438  0.6095  1.3389
   71CHL1    C5 7668   3.166   4.898   7.298  1.0804  0.3498  0.2975
   71CHL1    C6 7669   3.171   5.008   7.376  0.0447  0.8585 -0.0780
   71CHL1    H6 7670   3.165   5.112   7.340  1.4972 -0.5254 -4.6517
   71CHL1    C7 7671   3.182   4.992   7.527  0.4315  0.3563 -0.9879
   71CHL1   H7A 7672   3.254   5.065   7.571  0.4096 -0.8261  1.0334
   71CHL1   H7B 7673   3.082   5.025   7.562  0.6022  1.4633 -1.5089
   71CHL1    C8 7674   3.203   4.852   7.579  0.5609  0.5037 -0.0682
   71CHL1    H8 7675   3.314   4.851   7.572  0.5233 -0.8605 -0.7286
   71CHL1   C14 7676   3.156   4.842   7.722 -0.2630 -0.9855 -0.1145
   71CHL1   H14 7677   3.045   4.854   7.719 -0.1363  0.4688  0.7965
   71CHL1   C15 7678   3.205   4.951   7.823  0.6737 -0.8619 -0.5721
   71CHL1  H15A 7679   3.312   4.972   7.804  0.3585  1.3780  0.0441
   71CHL1  H15B 7680   3.167   5.055   7.815 -0.1560 -1.2551 -2.0086
   71CHL1   C16 7681   3.188   4.886   7.961  0.2008  0.6512  0.2836
   71CHL1  H16A 7682   3.294   4.877   7.993  0.0884 -0.4271  0.3576
   71CHL1  H16B 7683   3.129   4.952   8.028 -1.5289 -0.7878  0.2206
   71CHL1   C17 7684   3.129   4.740   7.941 -0.2919 -0.0317 -0.5261
   71CHL1   H17 7685   3.019   4.750   7.929 -0.3871 -1.2855 -0.8054
   71CHL1   C13 7686   3.184   4.706   7.797  0.4158  0.2691 -0.7755
   71CHL1   C18 7687   3.339   4.666   7.798 -0.4706 -0.7110  0.5133
   71CHL1  H18A 7688   3.363   4.571   7.850  2.1973 -1.0526 -1.2666
   71CHL1  H18B 7689   3.372   4.669   7.692  0.1026 -4.5128  0.5113
   71CHL1  H18C 7690   3.400   4.751   7.836 -0.9204 -0.4371  0.6353
   71CHL1   C12 7691   3.105   4.605   7.723 -0.6499 -0.0700  0.0450
   71CHL1  H12A 7692   3.128   4.504   7.763  0.1078  0.2656  0.4805
   71CHL1  H12B 7693   2.997   4.615   7.745 -1.4067 -3.4046 -1.8079
   71CHL1   C11 7694   3.131   4.603   7.573 -1.1460 -0.0742 -0.1612
   71CHL1  H11A 7695   3.234   4.564   7.559 -0.8336  1.1762 -1.4491
   71CHL1  H11B 7696   3.062   4.540   7.513 -1.0090  1.4488 -1.9557
   71CHL1    C9 7697   3.132   4.751   7.499 -0.2976 -0.2811 -0.4014
   71CHL1    H9 7698   3.027   4.787   7.504 -0.3382 -0.4545  0.0661
   71CHL1   C10 7699   3.153   4.750   7.343 -0.2151  0.0214 -0.1747
   71CHL1   C19 7700   3.280   4.676   7.306 -0.3742  0.7098 -0.2184
   71CHL1  H19A 7701   3.272   4.569   7.335  0.9915  0.9239  0.9878
   71CHL1  H19B 7702   3.305   4.682   7.198  1.7838  2.0320  0.3304
   71CHL1  H19C 7703   3.359   4.713   7.375 -0.7492  0.4850  0.3365
   71CHL1    C1 7704   3.033   4.685   7.263  1.0070  0.2542  0.8262
   71CHL1   H1A 7705   3.034   4.575   7.278 -2.7971 -0.0557 -0.5416
   71CHL1   H1B 7706   2.944   4.725   7.317 -0.7859 -1.0416 -1.0768
   71CHL1    C2 7707   3.022   4.714   7.113  0.2670  0.2166 -0.0846
   71CHL1   H2A 7708   2.937   4.665   7.061 -0.5551  2.2373 -0.6749
   71CHL1   H2B 7709   3.117   4.670   7.074 -0.8794 -1.1755 -1.3625
   71CHL1   C20 7710   3.160   4.639   8.051 -0.0167 -0.7723  0.1617
   71CHL1   H20 7711   3.263   4.598   8.047  0.2884  0.0065  0.0015
   71CHL1   C21 7712   3.058   4.525   8.043 -0.7891 -0.3105  0.3464
   71CHL1  H21A 7713   2.958   4.556   8.082 -0.5193 -2.6404  3.0543
   71CHL1  H21B 7714   3.099   4.436   8.094 -1.1294 -0.9934 -0.5658
   71CHL1  H21C 7715   3.040   4.482   7.942  0.0099  0.4462 -0.1268
   71CHL1   C22 7716   3.151   4.703   8.194 -0.2539  0.6153  0.1437
   71CHL1  H22A 7717   3.221   4.788   8.205 -1.0399  1.1282  1.2148
   71CHL1  H22B 7718   3.049   4.745   8.202  0.4432  2.7139 -1.4537
   71CHL1   C23 7719   3.175   4.614   8.323  0.9295 -0.0723 -0.1672
   71CHL1  H23A 7720   3.098   4.533   8.316 -0.8396  1.4702  0.9317
   71CHL1  H23B 7721   3.270   4.561   8.302  1.1970 -0.7581  2.4888
   71CHL1   C24 7722   3.168   4.695   8.455 -0.0804  0.3623  0.4584
   71CHL1  H24A 7723   3.233   4.784   8.440  0.5252 -0.0995  0.3260
   71CHL1  H24B 7724   3.063   4.726   8.474 -0.6038 -1.0931  0.0046
   71CHL1   C25 7725   3.221   4.614   8.577 -0.2662 -0.1502 -0.6631
   71CHL1   H25 7726   3.163   4.519   8.583  2.2063 -1.6649  0.0777
   71CHL1   C26 7727   3.372   4.592   8.567  0.0293 -0.1823  0.4110
   71CHL1  H26A 7728   3.434   4.683   8.555 -0.6510  0.0017 -1.8126
   71CHL1  H26B 7729   3.415   4.540   8.655  0.3134 -0.1666  0.2830
   71CHL1  H26C 7730   3.390   4.530   8.476  0.0009 -0.5584  0.6580
   71CHL1   C27 7731   3.200   4.686   8.709 -0.1474 -0.2670  0.9763
   71CHL1  H27A 7732   3.118   4.761   8.703  0.9482  0.8680 -0.2733
   71CHL1  H27B 7733   3.183   4.614   8.792  3.1094  0.7925  2.6235
   71CHL1  H27C 7734   3.285   4.754   8.730 -1.6878  2.3883 -1.0580
   72CHL1    C3 7735   4.218   3.335   6.983 -1.3301  0.5209  0.2528
   72CHL1    H3 7736   4.286   3.423   6.988 -0.0980 -0.3443 -0.9578
   72CHL1    O3 7737   4.175   3.314   6.847 -0.2603  0.2170  0.4951
   72CHL1   H3' 7738   4.128   3.392   6.817  0.0904  0.0633 -0.4718
   72CHL1    C4 7739   4.298   3.209   7.030 -0.1053  0.6344 -0.6724
   72CHL1   H4A 7740   4.246   3.119   6.991 -0.2407  0.4087  0.0123
   72CHL1   H4B 7741   4.394   3.207   6.974 -0.4931 -4.2682 -1.3363
   72CHL1    C5 7742   4.329   3.207   7.178 -1.0108 -0.3604 -0.0785
   72CHL1    C6 7743   4.460   3.188   7.224  0.7247  0.5272 -0.2659
   72CHL1    H6 7744   4.536   3.162   7.149  0.1295  0.5947 -0.9088
   72CHL1    C7 7745   4.501   3.187   7.372  0.0431  0.5419  0.5426
   72CHL1   H7A 7746   4.565   3.099   7.397 -0.9767 -0.0951  0.9232
   72CHL1   H7B 7747   4.569   3.271   7.395  4.3891 -3.5116  3.4324
   72CHL1    C8 7748   4.380   3.193   7.471 -0.7176 -0.1233  0.3187
   72CHL1    H8 7749   4.339   3.090   7.472  2.3170 -1.4474 -2.4017
   72CHL1   C14 7750   4.416   3.233   7.611 -0.3873 -0.8703  0.2797
   72CHL1   H14 7751   4.435   3.343   7.611 -0.9563 -0.7646  0.6489
   72CHL1   C15 7752   4.542   3.166   7.670  0.3506  0.7556 -0.2973
   72CHL1  H15A 7753   4.538   3.057   7.651  0.9186  0.6708  0.0479
   72CHL1  H15B 7754   4.640   3.205   7.636  1.2423  0.2674  1.6543
   72CHL1   C16 7755   4.523   3.205   7.821  0.2249  0.1304 -0.2462
   72CHL1  H16A 7756   4.514   3.105   7.869  2.9061 -0.0013  0.0147
   72CHL1  H16B 7757   4.613   3.255   7.862  1.1514 -0.9634 -0.9257
   72CHL1   C17 7758   4.379   3.271   7.837 -0.6243  0.1002 -0.3872
   72CHL1   H17 7759   4.382   3.381   7.821 -1.1724  0.3070  0.8985
   72CHL1   C13 7760   4.298   3.225   7.715  0.4812 -0.8528  0.3044
   72CHL1   C18 7761   4.255   3.075   7.727  0.2793 -0.5161 -0.2153
   72CHL1  H18A 7762   4.346   3.013   7.735  0.8216  0.4925  1.8783
   72CHL1  H18B 7763   4.186   3.056   7.812 -2.2205  1.1650 -1.7959
   72CHL1  H18C 7764   4.196   3.050   7.637 -0.1842 -0.2382  0.0038
   72CHL1   C12 7765   4.190   3.325   7.657 -0.2207 -1.0135 -0.3818
   72CHL1  H12A 7766   4.100   3.333   7.721 -1.2014 -3.1884 -1.4181
   72CHL1  H12B 7767   4.240   3.424   7.654 -2.3070  0.0782  0.6436
   72CHL1   C11 7768   4.148   3.295   7.520 -0.4708 -0.5986 -0.3623
   72CHL1  H11A 7769   4.085   3.203   7.524 -0.7299 -0.4233 -0.3730
   72CHL1  H11B 7770   4.090   3.383   7.484  0.6719 -0.1525 -1.1276
   72CHL1    C9 7771   4.264   3.284   7.417 -0.1715 -0.4305 -0.4117
   72CHL1    H9 7772   4.317   3.382   7.414  1.1788 -1.0798  1.0215
   72CHL1   C10 7773   4.213   3.254   7.275  0.3151  0.2110  0.5310
   72CHL1   C19 7774   4.129   3.130   7.286  0.2611  0.6672  0.3087
   72CHL1  H19A 7775   4.093   3.081   7.194 -1.6432 -0.9695  1.8637
   72CHL1  H19B 7776   4.177   3.062   7.360 -0.5391 -0.0893  0.1387
   72CHL1  H19C 7777   4.027   3.156   7.321  0.9912  1.6497  1.7912
   72CHL1    C1 7778   4.130   3.377   7.217  1.0849  0.1370 -0.2944
   72CHL1   H1A 7779   4.036   3.394   7.273 -0.0462 -0.3427 -1.9929
   72CHL1   H1B 7780   4.190   3.467   7.240 -0.4865  1.2628 -0.5406
   72CHL1    C2 7781   4.096   3.367   7.066  0.0003 -0.0646  0.2017
   72CHL1   H2A 7782   4.051   3.464   7.036 -0.2290 -0.8397 -2.0285
   72CHL1   H2B 7783   4.017   3.290   7.053  1.9407 -1.9686 -0.5508
   72CHL1   C20 7784   4.327   3.238   7.978  0.2550  0.7304 -0.2086
   72CHL1   H20 7785   4.325   3.129   8.001 -1.8704  0.3491 -2.0398
   72CHL1   C21 7786   4.177   3.281   7.994 -0.0274  0.6950  0.0686
   72CHL1  H21A 7787   4.106   3.230   7.925 -0.6941  1.0861  0.4583
   72CHL1  H21B 7788   4.184   3.391   7.979  0.1804  1.0343  2.3794
   72CHL1  H21C 7789   4.138   3.265   8.097  0.5954 -1.2314  0.0354
   72CHL1   C22 7790   4.408   3.288   8.088 -0.1863  0.0002 -0.2625
   72CHL1  H22A 7791   4.517   3.269   8.078 -0.1071 -0.4984  1.5137
   72CHL1  H22B 7792   4.406   3.399   8.078  0.1211 -0.1333 -2.1349
   72CHL1   C23 7793   4.378   3.233   8.230 -0.2752 -0.8390 -0.2371
   72CHL1  H23A 7794   4.280   3.268   8.269  0.5616 -0.8456  1.9506
   72CHL1  H23B 7795   4.365   3.123   8.221  0.6296 -1.1448  1.9967
   72CHL1   C24 7796   4.491   3.260   8.331  0.3836  0.0280 -0.2782
   72CHL1  H24A 7797   4.589   3.213   8.307  0.2026 -0.9619  0.8387
   72CHL1  H24B 7798   4.508   3.370   8.334 -0.6572  0.1700  1.3592
   72CHL1   C25 7799   4.462   3.210   8.480 -0.3254 -0.6367  0.9519
   72CHL1   H25 7800   4.435   3.104   8.460 -1.0442  0.2919 -3.6508
   72CHL1   C26 7801   4.583   3.230   8.563  0.2922 -0.4460  0.9662
   72CHL1  H26A 7802   4.669   3.212   8.495  0.6143  1.2054  0.9142
   72CHL1  H26B 7803   4.591   3.330   8.610 -2.1115  0.5025 -0.5808
   72CHL1  H26C 7804   4.602   3.153   8.641 -1.2934  0.3086  2.1176
   72CHL1   C27 7805   4.348   3.276   8.546  0.2204  0.7485 -0.9269
   72CHL1  H27A 7806   4.335   3.226   8.645  0.4516 -1.4441 -1.9723
   72CHL1  H27B 7807   4.374   3.383   8.554  0.3335  0.6973 -0.6086
   72CHL1  H27C 7808   4.259   3.265   8.481 -1.5807 -0.8690  1.7040
   73CHL1    C3 7809   4.035   5.059   6.839  0.0035 -0.3947  0.4012
   73CHL1    H3 7810   4.119   4.999   6.881 -0.7351 -2.7294 -1.2954
   73CHL1    O3 7811   3.996   5.017   6.708  0.8259  0.2034 -0.1213
   73CHL1   H3' 7812   4.050   5.066   6.646  1.2950  1.4152  1.2097
   73CHL1    C4 7813   3.915   5.057   6.937  0.1742  1.0461  0.0853
   73CHL1   H4A 7814   3.823   5.106   6.899 -1.9886 -2.2120  0.9122
   73CHL1   H4B 7815   3.874   4.954   6.947 -1.5202  1.6170 -0.8442
   73CHL1    C5 7816   3.959   5.126   7.069 -0.5590 -0.3994  0.3782
   73CHL1    C6 7817   3.956   5.056   7.187  0.0779  0.1331 -0.0040
   73CHL1    H6 7818   3.922   4.952   7.200 -2.1357  1.1883  3.4581
   73CHL1    C7 7819   3.997   5.122   7.316  0.0392  0.3610 -0.4270
   73CHL1   H7A 7820   3.937   5.081   7.401  1.5945  0.9901  1.0066
   73CHL1   H7B 7821   4.102   5.091   7.336 -0.3073 -0.8442 -0.4893
   73CHL1    C8 7822   3.986   5.279   7.308  0.1430 -0.1221  0.2407
   73CHL1    H8 7823   3.881   5.312   7.296  0.4013  0.5100 -0.3267
   73CHL1   C14 7824   4.037   5.336   7.436  0.0350  0.6666  0.1879
   73CHL1   H14 7825   4.142   5.304   7.453  0.7236  0.0625 -4.4786
   73CHL1   C15 7826   3.951   5.303   7.561 -0.0449 -1.0734 -0.1033
   73CHL1  H15A 7827   3.847   5.320   7.525  0.1865  1.4962  0.3403
   73CHL1  H15B 7828   3.960   5.206   7.614  0.8449 -0.4746  0.8557
   73CHL1   C16 7829   3.995   5.413   7.655  0.4648 -0.3672 -0.4595
   73CHL1  H16A 7830   3.904   5.451   7.705  2.2860 -0.0686  2.7926
   73CHL1  H16B 7831   4.050   5.373   7.743 -2.3064 -2.0163  0.5678
   73CHL1   C17 7832   4.093   5.516   7.587  0.2393 -0.4735  0.6449
   73CHL1   H17 7833   4.198   5.485   7.601  0.8316 -0.3013 -2.9474
   73CHL1   C13 7834   4.055   5.491   7.439 -0.4188  0.8336  0.5396
   73CHL1   C18 7835   3.914   5.558   7.412 -0.7181  0.5288 -0.3446
   73CHL1  H18A 7836   3.928   5.665   7.385 -2.2718  0.2823 -2.2519
   73CHL1  H18B 7837   3.867   5.505   7.325  0.4298 -0.8612 -0.1412
   73CHL1  H18C 7838   3.851   5.552   7.503  1.5073 -1.8564  1.0903
   73CHL1   C12 7839   4.157   5.521   7.329 -0.2894  0.8480  0.6179
   73CHL1  H12A 7840   4.177   5.630   7.323  0.4414  0.7716  1.5100
   73CHL1  H12B 7841   4.250   5.464   7.352 -1.5411 -1.4444  0.2150
   73CHL1   C11 7842   4.109   5.481   7.191  0.2131 -0.0599 -0.2209
   73CHL1  H11A 7843   4.014   5.534   7.168 -0.7484  0.1668  3.8597
   73CHL1  H11B 7844   4.197   5.505   7.128 -1.0710  2.4007 -1.1273
   73CHL1    C9 7845   4.074   5.328   7.190  0.0590 -0.0147  0.1632
   73CHL1    H9 7846   4.172   5.278   7.203  0.1049 -0.0711 -0.3677
   73CHL1   C10 7847   4.010   5.273   7.054 -0.1936  0.3358 -0.3652
   73CHL1   C19 7848   3.885   5.353   7.007  0.4182  0.1830 -0.9239
   73CHL1  H19A 7849   3.916   5.457   6.985  0.8320 -0.2523 -2.4641
   73CHL1  H19B 7850   3.831   5.314   6.918 -1.8652  1.5601 -0.1886
   73CHL1  H19C 7851   3.801   5.355   7.080 -0.0618 -0.8751 -1.4269
   73CHL1    C1 7852   4.122   5.274   6.944 -0.3175 -0.5382 -0.0176
   73CHL1   H1A 7853   4.144   5.383   6.948  0.9752 -0.8247  0.8337
   73CHL1   H1B 7854   4.206   5.211   6.979  2.0697  0.8400 -3.0846
   73CHL1    C2 7855   4.079   5.202   6.818 -0.0260 -0.0312 -0.1831
   73CHL1   H2A 7856   4.166   5.197   6.749 -0.3045 -1.5691 -0.4304
   73CHL1   H2B 7857   3.999   5.264   6.771  0.4787  1.0261  0.3392
   73CHL1   C20 7858   4.085   5.647   7.659 -0.6231 -0.0555  0.6273
   73CHL1   H20 7859   3.983   5.690   7.673  0.1987  1.8020  1.0646
   73CHL1   C21 7860   4.161   5.751   7.569  0.2894  0.0945 -0.1532
   73CHL1  H21A 7861   4.103   5.769   7.476 -0.4959  1.0629  0.5231
   73CHL1  H21B 7862   4.258   5.706   7.539 -1.2309 -2.9439 -0.6608
   73CHL1  H21C 7863   4.188   5.847   7.618  1.3468 -0.4245  0.3023
   73CHL1   C22 7864   4.154   5.639   7.799 -0.8323  0.2083  0.2083
   73CHL1  H22A 7865   4.152   5.545   7.857  1.5969  0.7928  1.3087
   73CHL1  H22B 7866   4.265   5.639   7.786 -0.8560  0.4812 -0.0084
   73CHL1   C23 7867   4.100   5.754   7.884 -0.4532 -0.0841 -0.2506
   73CHL1  H23A 7868   4.124   5.848   7.829  0.9520  0.6052  1.4564
   73CHL1  H23B 7869   3.991   5.734   7.889 -0.2001 -1.2790  0.8993
   73CHL1   C24 7870   4.174   5.751   8.019  0.3698  0.3367 -0.1389
   73CHL1  H24A 7871   4.162   5.646   8.053 -0.5850  0.3488 -0.4352
   73CHL1  H24B 7872   4.284   5.767   8.009  0.6657 -1.8298 -0.6196
   73CHL1   C25 7873   4.127   5.847   8.133  0.2584 -0.5695 -0.5713
   73CHL1   H25 7874   4.172   5.942   8.100  0.3536 -0.5702 -0.4455
   73CHL1   C26 7875   3.974   5.865   8.142 -0.4140 -0.1594  0.0045
   73CHL1  H26A 7876   3.927   5.885   8.043 -0.5478 -0.9554 -0.0972
   73CHL1  H26B 7877   3.935   5.766   8.176  1.2882 -0.5045  1.0173
   73CHL1  H26C 7878   3.951   5.941   8.219 -0.2069 -1.4376  1.3622
   73CHL1   C27 7879   4.189   5.816   8.268  0.8722  0.0615 -0.2911
   73CHL1  H27A 7880   4.146   5.881   8.348  1.1659  0.4251 -0.4252
   73CHL1  H27B 7881   4.167   5.709   8.285  0.2000  0.1237 -0.7378
   73CHL1  H27C 7882   4.299   5.831   8.274  1.3802 -3.6908  0.8406
   74CHL1    C3 7883   2.527   4.369   6.820 -0.3578  0.4210 -0.1224
   74CHL1    H3 7884   2.424   4.327   6.821 -0.3585  0.4212 -0.1637
   74CHL1    O3 7885   2.547   4.396   6.681  0.1305 -0.2638  0.1970
   74CHL1   H3' 7886   2.641   4.413   6.675 -0.0193  0.5198 -0.0001
   74CHL1    C4 7887   2.509   4.502   6.893 -0.4948  0.4649  0.1971
   74CHL1   H4A 7888   2.599   4.558   6.860 -0.7555  0.2600 -0.8926
   74CHL1   H4B 7889   2.426   4.559   6.847  0.0991  0.8704 -0.3800
   74CHL1    C5 7890   2.506   4.495   7.048  0.2595  0.1375 -0.6039
   74CHL1    C6 7891   2.405   4.563   7.118 -0.5856  0.5837 -0.1700
   74CHL1    H6 7892   2.340   4.630   7.058 -1.8239  1.2240  1.8264
   74CHL1    C7 7893   2.398   4.543   7.268  0.3468  0.2674 -0.1841
   74CHL1   H7A 7894   2.366   4.639   7.314 -1.6085  0.2139 -1.3914
   74CHL1   H7B 7895   2.323   4.465   7.291  2.5302 -1.4978  1.1748
   74CHL1    C8 7896   2.523   4.489   7.339  0.8583 -0.9992 -0.2999
   74CHL1    H8 7897   2.592   4.576   7.340 -1.2448  0.6928  0.0381
   74CHL1   C14 7898   2.495   4.459   7.482  0.6941 -0.5740 -0.2349
   74CHL1   H14 7899   2.424   4.375   7.504  0.7065 -0.3461  0.7162
   74CHL1   C15 7900   2.434   4.580   7.566 -0.0071 -0.2470 -0.0678
   74CHL1  H15A 7901   2.481   4.676   7.534  0.8849 -0.9229 -0.7958
   74CHL1  H15B 7902   2.325   4.600   7.563 -0.3642 -1.6647  2.3677
   74CHL1   C16 7903   2.476   4.552   7.708 -0.0420 -0.2014  0.8764
   74CHL1  H16A 7904   2.535   4.636   7.748 -0.9818  0.4129  0.9837
   74CHL1  H16B 7905   2.384   4.537   7.767  0.3787  1.0412  1.8465
   74CHL1   C17 7906   2.558   4.415   7.705 -0.4358 -0.1178 -0.4050
   74CHL1   H17 7907   2.478   4.339   7.723 -2.7048  2.1975 -0.3798
   74CHL1   C13 7908   2.617   4.405   7.562 -0.4060  1.0022  0.8236
   74CHL1   C18 7909   2.742   4.492   7.561  0.4301  0.1408  0.6344
   74CHL1  H18A 7910   2.771   4.526   7.459  0.5876 -0.8044  0.3580
   74CHL1  H18B 7911   2.740   4.584   7.623 -0.2270  0.6394 -0.1042
   74CHL1  H18C 7912   2.834   4.440   7.594  0.8953 -1.3566 -2.7631
   74CHL1   C12 7913   2.647   4.266   7.490  0.1516  0.3230  0.3036
   74CHL1  H12A 7914   2.723   4.196   7.531 -1.2967 -1.1421  0.5180
   74CHL1  H12B 7915   2.553   4.212   7.509 -1.2484  1.9273 -1.8174
   74CHL1   C11 7916   2.690   4.296   7.344 -0.3324  0.4890 -0.4264
   74CHL1  H11A 7917   2.785   4.354   7.342 -0.6705  1.0214 -2.6792
   74CHL1  H11B 7918   2.717   4.197   7.303 -0.3091  0.3904 -0.1738
   74CHL1    C9 7919   2.573   4.362   7.264  0.2533 -0.3691 -0.2224
   74CHL1    H9 7920   2.491   4.288   7.250 -2.1968  1.8602  1.6620
   74CHL1   C10 7921   2.607   4.399   7.115 -0.3680  0.1130  0.2060
   74CHL1   C19 7922   2.742   4.480   7.116  0.3952 -0.3493  0.2620
   74CHL1  H19A 7923   2.750   4.538   7.021  0.3259  0.4461  0.7371
   74CHL1  H19B 7924   2.738   4.554   7.199  2.5236  2.4893 -2.0402
   74CHL1  H19C 7925   2.834   4.416   7.117  0.0317 -0.8812 -0.0030
   74CHL1    C1 7926   2.605   4.261   7.036 -0.0504  0.9631  0.3659
   74CHL1   H1A 7927   2.686   4.197   7.076 -0.6747  0.3695  0.6791
   74CHL1   H1B 7928   2.502   4.224   7.051 -0.3333  1.4722 -0.2786
   74CHL1    C2 7929   2.630   4.274   6.889  0.0118  0.4171  0.7207
   74CHL1   H2A 7930   2.619   4.176   6.837  0.1651  1.7934 -1.9903
   74CHL1   H2B 7931   2.734   4.306   6.871 -0.1196  0.0527 -0.7562
   74CHL1   C20 7932   2.654   4.410   7.826  0.6498 -0.6557  0.3010
   74CHL1   H20 7933   2.733   4.488   7.814  1.1864 -1.5928 -2.4986
   74CHL1   C21 7934   2.730   4.266   7.820  0.0278  0.0003 -0.0284
   74CHL1  H21A 7935   2.817   4.271   7.889 -0.8120  0.9474  0.9606
   74CHL1  H21B 7936   2.758   4.246   7.714  3.4523 -1.3048  1.0524
   74CHL1  H21C 7937   2.652   4.198   7.858 -2.6584  2.9011 -0.1268
   74CHL1   C22 7938   2.592   4.442   7.958  0.2020 -0.3080 -0.7129
   74CHL1  H22A 7939   2.555   4.547   7.956  1.8811  0.3301  0.8358
   74CHL1  H22B 7940   2.506   4.372   7.955 -2.9420  3.4107 -3.0607
   74CHL1   C23 7941   2.675   4.418   8.087  0.4148 -0.8485 -0.2786
   74CHL1  H23A 7942   2.701   4.310   8.093 -1.3097 -1.3388 -1.3642
   74CHL1  H23B 7943   2.769   4.476   8.079  0.0569  0.0439  1.7613
   74CHL1   C24 7944   2.612   4.491   8.209  0.1460  0.6111  0.3230
   74CHL1  H24A 7945   2.570   4.588   8.175 -1.7225 -1.1736 -2.6524
   74CHL1  H24B 7946   2.537   4.430   8.263  0.5069  0.1738  0.3282
   74CHL1   C25 7947   2.720   4.526   8.318  0.2346 -0.3605 -0.1508
   74CHL1   H25 7948   2.779   4.606   8.267 -0.1464 -0.6294 -1.0088
   74CHL1   C26 7949   2.653   4.601   8.426  0.1191  0.2725  0.2562
   74CHL1  H26A 7950   2.600   4.528   8.490  3.9081 -2.7152  0.1598
   74CHL1  H26B 7951   2.724   4.656   8.492 -0.0937  1.9780 -0.9126
   74CHL1  H26C 7952   2.586   4.684   8.397 -2.2145 -1.7562 -0.2809
   74CHL1   C27 7953   2.798   4.408   8.372 -0.4860 -0.1551 -0.4418
   74CHL1  H27A 7954   2.842   4.354   8.286  0.0992  1.0028 -0.8756
   74CHL1  H27B 7955   2.878   4.428   8.446 -1.3728 -0.4678  0.6179
   74CHL1  H27C 7956   2.725   4.334   8.412  2.2015 -1.3786  2.3705
   75CHL1    C3 7957   5.649   5.218   6.918  0.1204 -0.1125 -0.1286
   75CHL1    H3 7958   5.702   5.315   6.910 -1.1208  0.3787 -3.0922
   75CHL1    O3 7959   5.631   5.169   6.789  0.4202 -0.2018 -0.3043
   75CHL1   H3' 7960   5.582   5.088   6.801  1.7956 -0.9307  0.4306
   75CHL1    C4 7961   5.730   5.123   7.005  0.5244 -0.5342 -0.8228
   75CHL1   H4A 7962   5.685   5.023   6.988 -1.8296  0.6947 -1.9658
   75CHL1   H4B 7963   5.831   5.119   6.958  1.0876  1.1228  0.2245
   75CHL1    C5 7964   5.753   5.180   7.142 -0.0035 -0.4770  0.0951
   75CHL1    C6 7965   5.879   5.206   7.188 -0.6472  0.8263 -0.2345
   75CHL1    H6 7966   5.966   5.190   7.122 -0.0309  2.9939  0.0387
   75CHL1    C7 7967   5.912   5.250   7.328 -0.5134  0.1491 -0.1319
   75CHL1   H7A 7968   6.008   5.205   7.362 -1.5991 -1.0213  1.5270
   75CHL1   H7B 7969   5.925   5.360   7.335  0.1431  0.0591  0.1209
   75CHL1    C8 7970   5.788   5.228   7.423 -1.2355 -0.0366 -0.5601
   75CHL1    H8 7971   5.778   5.120   7.448 -2.5741  0.8204  2.9101
   75CHL1   C14 7972   5.820   5.289   7.557 -0.5064  0.6602  0.0568
   75CHL1   H14 7973   5.824   5.398   7.535 -1.9348  0.3656 -1.7587
   75CHL1   C15 7974   5.951   5.238   7.626  1.3976 -0.5147 -0.1476
   75CHL1  H15A 7975   5.970   5.129   7.618 -3.2500 -1.4120 -0.1706
   75CHL1  H15B 7976   6.036   5.290   7.578  0.7376 -0.0680 -0.8372
   75CHL1   C16 7977   5.934   5.295   7.764  0.4228 -0.3014  0.2596
   75CHL1  H16A 7978   5.970   5.213   7.830  2.7839 -0.1540 -0.7935
   75CHL1  H16B 7979   5.985   5.394   7.772 -1.8318  0.9259 -0.3411
   75CHL1   C17 7980   5.779   5.338   7.782  0.3475  0.7458  0.3000
   75CHL1   H17 7981   5.767   5.448   7.770 -2.0090  0.2505 -2.8951
   75CHL1   C13 7982   5.706   5.273   7.662  0.4306 -0.6052  0.1840
   75CHL1   C18 7983   5.675   5.125   7.692  0.5932 -1.1163  0.1975
   75CHL1  H18A 7984   5.654   5.067   7.599 -0.5803 -1.6836  0.8066
   75CHL1  H18B 7985   5.771   5.083   7.728  0.3459  0.5174  2.8545
   75CHL1  H18C 7986   5.606   5.100   7.775  0.3993 -2.6126 -0.3986
   75CHL1   C12 7987   5.577   5.338   7.600 -0.2572 -0.7715  0.0168
   75CHL1  H12A 7988   5.492   5.321   7.668  0.2461  2.4623  1.5505
   75CHL1  H12B 7989   5.594   5.447   7.588  1.6184 -1.3127 -2.8762
   75CHL1   C11 7990   5.541   5.272   7.468  0.1919 -0.6438 -0.4617
   75CHL1  H11A 7991   5.513   5.168   7.494 -2.3048  0.2483  0.5388
   75CHL1  H11B 7992   5.453   5.319   7.420 -0.3422  1.5254  2.5421
   75CHL1    C9 7993   5.656   5.282   7.363 -0.3582  0.0620 -0.4960
   75CHL1    H9 7994   5.682   5.385   7.332 -1.3217  0.0057 -1.5421
   75CHL1   C10 7995   5.629   5.210   7.230 -0.5062 -0.3884  0.5183
   75CHL1   C19 7996   5.563   5.072   7.258 -1.1138 -0.1763 -0.0461
   75CHL1  H19A 7997   5.458   5.092   7.289 -1.2716 -2.1843  0.7504
   75CHL1  H19B 7998   5.551   5.014   7.164 -1.0771 -0.6173  0.2237
   75CHL1  H19C 7999   5.622   5.011   7.329  0.1220  0.0928 -0.8324
   75CHL1    C1 8000   5.538   5.299   7.136  0.5810  0.4804 -0.6766
   75CHL1   H1A 8001   5.433   5.300   7.172  0.4329 -0.9531 -1.0243
   75CHL1   H1B 8002   5.582   5.401   7.133  2.0833 -0.1016  0.7958
   75CHL1    C2 8003   5.515   5.247   6.991  0.3697  0.3518 -0.1456
   75CHL1   H2A 8004   5.461   5.319   6.925 -0.6523 -1.8804 -1.8230
   75CHL1   H2B 8005   5.449   5.158   6.995 -0.9790  1.1459 -3.0365
   75CHL1   C20 8006   5.729   5.304   7.923 -0.9897 -0.8933 -0.7371
   75CHL1   H20 8007   5.738   5.197   7.949  2.0780 -0.3607  0.5995
   75CHL1   C21 8008   5.577   5.337   7.934 -0.0074  0.2652 -0.6978
   75CHL1  H21A 8009   5.537   5.326   8.037 -1.1576 -0.1209 -1.1702
   75CHL1  H21B 8010   5.518   5.262   7.877 -1.1672 -0.0530  0.8950
   75CHL1  H21C 8011   5.549   5.439   7.899  1.8744  1.1214  0.2283
   75CHL1   C22 8012   5.807   5.372   8.038  0.2107 -0.6766  0.8598
   75CHL1  H22A 8013   5.915   5.347   8.027 -0.4712 -2.2786 -2.7606
   75CHL1  H22B 8014   5.796   5.482   8.031 -0.0441 -0.5650  2.6498
   75CHL1   C23 8015   5.755   5.325   8.177  0.5158  0.4452  0.0905
   75CHL1  H23A 8016   5.669   5.389   8.205 -0.5795 -0.5039 -1.0680
   75CHL1  H23B 8017   5.727   5.217   8.171 -0.5303  0.7434 -0.3331
   75CHL1   C24 8018   5.863   5.322   8.294 -0.0035  0.1103  0.7919
   75CHL1  H24A 8019   5.961   5.294   8.251 -0.1045  0.0928  0.5703
   75CHL1  H24B 8020   5.868   5.429   8.323  0.4590  0.0075  1.0911
   75CHL1   C25 8021   5.830   5.243   8.417  0.3966  0.8131  0.4353
   75CHL1   H25 8022   5.726   5.272   8.442 -0.2851 -2.8581  2.2013
   75CHL1   C26 8023   5.848   5.096   8.393  0.3468 -0.1948 -0.0527
   75CHL1  H26A 8024   5.953   5.082   8.362 -0.0849  1.3088 -2.3501
   75CHL1  H26B 8025   5.838   5.037   8.487 -0.2574  0.6675  0.4375
   75CHL1  H26C 8026   5.770   5.056   8.324 -1.8890  1.0023  1.7073
   75CHL1   C27 8027   5.911   5.295   8.539  0.4009 -0.3806 -0.0849
   75CHL1  H27A 8028   6.018   5.295   8.509  0.4680 -1.3261  0.1469
   75CHL1  H27B 8029   5.885   5.402   8.557 -2.6951 -0.9554 -0.9959
   75CHL1  H27C 8030   5.901   5.228   8.627 -0.8367 -0.8866 -0.6051
   76CHL1    C3 8031   3.018   1.217   7.356 -0.1922 -0.3242 -0.3219
   76CHL1    H3 8032   3.083   1.302   7.386  0.6086 -0.7430 -0.8458
   76CHL1    O3 8033   3.003   1.219   7.213  0.0767  0.1423  0.1124
   76CHL1   H3' 8034   3.086   1.186   7.178  0.9218  0.5277  1.6735
   76CHL1    C4 8035   3.094   1.092   7.387 -0.0915 -0.0254  0.1911
   76CHL1   H4A 8036   3.036   1.007   7.346 -0.1445 -0.7666  1.7975
   76CHL1   H4B 8037   3.192   1.094   7.333  0.4895 -0.7075  1.1990
   76CHL1    C5 8038   3.113   1.068   7.537 -0.0741 -0.2819  0.8565
   76CHL1    C6 8039   3.234   1.059   7.599  0.1376  0.7513 -0.3263
   76CHL1    H6 8040   3.323   1.060   7.535 -1.2153  0.8666 -2.2604
   76CHL1    C7 8041   3.245   1.012   7.747  0.3382  0.2943  0.6435
   76CHL1   H7A 8042   3.324   0.934   7.761 -0.6777 -0.5755  1.5973
   76CHL1   H7B 8043   3.273   1.098   7.812 -0.0324 -0.0319  1.2366
   76CHL1    C8 8044   3.111   0.964   7.806  0.2778 -0.0910 -0.2344
   76CHL1    H8 8045   3.101   0.860   7.769 -0.7653 -0.6181  1.4627
   76CHL1   C14 8046   3.114   0.963   7.958  0.4276 -0.5367  0.2434
   76CHL1   H14 8047   3.139   1.066   7.989 -2.3563  0.7354 -1.4995
   76CHL1   C15 8048   3.207   0.859   8.022  0.9474 -0.2691 -1.0641
   76CHL1  H15A 8049   3.180   0.767   7.967 -0.1914 -0.8476  0.4359
   76CHL1  H15B 8050   3.314   0.882   8.002  0.4156  2.6300 -0.8432
   76CHL1   C16 8051   3.167   0.854   8.172  0.4005  0.3338  0.7103
   76CHL1  H16A 8052   3.162   0.751   8.213  0.7590 -0.9587 -2.3525
   76CHL1  H16B 8053   3.228   0.911   8.245  1.8675 -1.6189  1.0511
   76CHL1   C17 8054   3.020   0.910   8.179 -0.4173  0.1527  0.3741
   76CHL1   H17 8055   3.021   1.014   8.220 -0.4516 -0.0433  0.8724
   76CHL1   C13 8056   2.976   0.932   8.029  0.3771 -0.0706 -0.6628
   76CHL1   C18 8057   2.919   0.797   7.975  0.2459 -0.0590 -0.1482
   76CHL1  H18A 8058   2.812   0.794   8.003  0.0781  1.6899 -0.5196
   76CHL1  H18B 8059   2.918   0.792   7.864 -0.4467 -3.6647 -0.0283
   76CHL1  H18C 8060   2.969   0.705   8.013  2.7624 -0.3026 -3.7614
   76CHL1   C12 8061   2.879   1.038   7.992 -0.2297  0.9623 -0.2640
   76CHL1  H12A 8062   2.776   1.009   8.023 -0.2935 -0.1174 -1.4617
   76CHL1  H12B 8063   2.895   1.142   8.029 -1.0602  1.4272 -1.1782
   76CHL1   C11 8064   2.870   1.040   7.833  0.3382  0.6623  0.2367
   76CHL1  H11A 8065   2.807   0.954   7.802  1.5575 -0.3913  0.6637
   76CHL1  H11B 8066   2.814   1.133   7.807  0.6094  0.8287  0.2381
   76CHL1    C9 8067   2.998   1.064   7.757 -0.6303 -0.9238  0.4195
   76CHL1    H9 8068   3.030   1.166   7.788 -2.8123 -0.5466  1.4867
   76CHL1   C10 8069   2.974   1.065   7.604 -0.4644 -0.2384  0.3245
   76CHL1   C19 8070   2.897   0.935   7.562  0.1191 -0.1041 -0.2798
   76CHL1  H19A 8071   2.947   0.842   7.599 -1.0041 -0.3654  0.6090
   76CHL1  H19B 8072   2.792   0.926   7.597  0.5117  0.8290  1.1240
   76CHL1  H19C 8073   2.876   0.923   7.453 -0.9907  0.8096 -0.1744
   76CHL1    C1 8074   2.883   1.190   7.568 -0.2739  0.5768 -0.3056
   76CHL1   H1A 8075   2.780   1.175   7.605 -0.6928  0.8047 -1.3537
   76CHL1   H1B 8076   2.938   1.277   7.609  2.9070  0.1509 -3.4569
   76CHL1    C2 8077   2.877   1.228   7.421  0.0591  0.0685 -0.2824
   76CHL1   H2A 8078   2.839   1.330   7.400 -1.7005 -0.4259  0.4639
   76CHL1   H2B 8079   2.804   1.167   7.363 -2.3834  2.2817  0.3696
   76CHL1   C20 8080   2.929   0.820   8.269 -0.5616 -0.0114 -0.3720
   76CHL1   H20 8081   2.898   0.729   8.214 -2.1734  0.0931  0.3128
   76CHL1   C21 8082   2.787   0.891   8.295 -0.9559 -0.8218  0.3092
   76CHL1  H21A 8083   2.718   0.890   8.207 -1.2845 -0.6388  0.5640
   76CHL1  H21B 8084   2.801   0.998   8.318 -0.4944 -0.9920  0.8271
   76CHL1  H21C 8085   2.738   0.838   8.380  0.8393 -2.2182  0.5076
   76CHL1   C22 8086   2.988   0.798   8.413  0.2629 -0.2445  0.0814
   76CHL1  H22A 8087   2.906   0.757   8.476  0.1272  0.4034  0.3375
   76CHL1  H22B 8088   3.058   0.712   8.409  0.0878 -0.3245 -1.6425
   76CHL1   C23 8089   3.049   0.919   8.493 -0.2375  0.2451 -1.0086
   76CHL1  H23A 8090   3.123   0.979   8.436  0.0450  0.4016 -0.4761
   76CHL1  H23B 8091   2.971   0.997   8.508 -2.0539 -1.3223 -2.0932
   76CHL1   C24 8092   3.095   0.888   8.641  0.6907  0.7419  0.2110
   76CHL1  H24A 8093   3.044   0.961   8.707  0.0053 -0.4412  1.0227
   76CHL1  H24B 8094   3.069   0.785   8.672  2.5890  0.0559 -0.3715
   76CHL1   C25 8095   3.248   0.884   8.670 -0.7431 -0.5966 -0.1785
   76CHL1   H25 8096   3.263   0.848   8.775 -0.6019  1.6597  0.5854
   76CHL1   C26 8097   3.331   0.791   8.582  0.1017  0.1628 -0.5749
   76CHL1  H26A 8098   3.305   0.795   8.474  0.2933 -1.4494 -0.6929
   76CHL1  H26B 8099   3.438   0.822   8.584  0.2630 -0.2821 -1.7592
   76CHL1  H26C 8100   3.314   0.686   8.616 -1.3512 -0.0255 -1.8081
   76CHL1   C27 8101   3.322   1.020   8.671  0.1813  0.1722  0.2231
   76CHL1  H27A 8102   3.282   1.084   8.753 -1.3486 -0.7679  0.2479
   76CHL1  H27B 8103   3.431   1.003   8.676 -0.2115 -2.6464  0.2807
   76CHL1  H27C 8104   3.305   1.080   8.579 -4.6070 -0.7165  0.3863
   77CHL1    C3 8105   3.459   5.864   6.812 -0.1747  0.2540  0.4602
   77CHL1    H3 8106   3.377   5.936   6.835  1.0982  1.2006  2.1255
   77CHL1    O3 8107   3.468   5.859   6.673 -0.6750  0.1551  0.4330
   77CHL1   H3' 8108   3.415   5.783   6.646 -4.3325  2.5843  0.4417
   77CHL1    C4 8109   3.593   5.918   6.868 -0.3463  0.0484  0.1701
   77CHL1   H4A 8110   3.671   5.847   6.833  1.7298  2.0457  0.5529
   77CHL1   H4B 8111   3.623   6.008   6.810 -0.9975  1.2739  1.7028
   77CHL1    C5 8112   3.580   5.954   7.011 -0.0094 -0.0226  0.7810
   77CHL1    C6 8113   3.607   6.069   7.064  0.4110 -0.7264 -0.7233
   77CHL1    H6 8114   3.624   6.159   7.003  0.1182  0.2014  0.5414
   77CHL1    C7 8115   3.621   6.102   7.211 -0.1128 -0.1914  0.9238
   77CHL1   H7A 8116   3.722   6.143   7.232  0.2340  1.1343 -2.9151
   77CHL1   H7B 8117   3.547   6.173   7.252 -3.1298 -2.6690 -0.0190
   77CHL1    C8 8118   3.597   5.971   7.298  0.1860  0.2861  0.5402
   77CHL1    H8 8119   3.696   5.925   7.315  2.1201  2.4087 -4.0064
   77CHL1   C14 8120   3.542   6.005   7.436 -0.3735 -0.1817 -0.4751
   77CHL1   H14 8121   3.443   6.053   7.418 -0.0385  1.1362  1.0244
   77CHL1   C15 8122   3.617   6.110   7.516  0.5382  0.6768  0.3782
   77CHL1  H15A 8123   3.725   6.089   7.528  0.3733  0.1568  0.9823
   77CHL1  H15B 8124   3.596   6.210   7.472  0.8915  0.2453 -0.7915
   77CHL1   C16 8125   3.556   6.102   7.650 -0.3765  0.2518 -0.2837
   77CHL1  H16A 8126   3.635   6.099   7.728  0.1493 -0.3795 -0.8469
   77CHL1  H16B 8127   3.489   6.190   7.658 -0.2192  0.3931 -0.5425
   77CHL1   C17 8128   3.478   5.963   7.656  0.8335 -0.0560 -0.8359
   77CHL1   H17 8129   3.369   5.982   7.645  0.6138  0.3390  1.6638
   77CHL1   C13 8130   3.519   5.888   7.529  0.2352 -0.0559 -0.1901
   77CHL1   C18 8131   3.647   5.811   7.558  0.1358  0.7408  0.5334
   77CHL1  H18A 8132   3.625   5.720   7.617 -0.8139  0.8538  0.3503
   77CHL1  H18B 8133   3.697   5.774   7.466  0.6251 -0.8595  1.4315
   77CHL1  H18C 8134   3.724   5.875   7.608 -0.6023  1.5739  0.6282
   77CHL1   C12 8135   3.407   5.809   7.464 -1.1130  0.1641 -0.4975
   77CHL1  H12A 8136   3.387   5.718   7.524  1.4833  0.9646  1.6423
   77CHL1  H12B 8137   3.313   5.869   7.468 -1.6213 -0.6998  0.8455
   77CHL1   C11 8138   3.443   5.751   7.319 -0.9079 -0.6449  0.2265
   77CHL1  H11A 8139   3.520   5.671   7.319  3.1931  3.0467  2.3552
   77CHL1  H11B 8140   3.359   5.697   7.271 -0.0943 -1.1056 -0.6859
   77CHL1    C9 8141   3.493   5.870   7.233 -0.2681  0.0715  0.2384
   77CHL1    H9 8142   3.396   5.924   7.224 -1.0228 -1.4241 -0.7023
   77CHL1   C10 8143   3.542   5.827   7.093  0.5089  0.1762 -1.0655
   77CHL1   C19 8144   3.667   5.736   7.092  0.6365  0.0573  0.1679
   77CHL1  H19A 8145   3.745   5.787   7.152 -0.4444  1.6443  0.2645
   77CHL1  H19B 8146   3.646   5.636   7.136  1.1927  0.7340  2.0574
   77CHL1  H19C 8147   3.700   5.705   6.991  0.3649  2.7175 -0.7707
   77CHL1    C1 8148   3.423   5.747   7.024 -0.2187 -0.2685  0.4537
   77CHL1   H1A 8149   3.423   5.646   7.072  3.1594 -2.3417 -3.5864
   77CHL1   H1B 8150   3.338   5.812   7.054  2.6514  1.8268  4.6185
   77CHL1    C2 8151   3.433   5.726   6.874  0.8478 -0.6363  0.3450
   77CHL1   H2A 8152   3.334   5.689   6.839  1.3412  0.7103 -2.5794
   77CHL1   H2B 8153   3.510   5.650   6.851  2.1036  1.0882 -1.2448
   77CHL1   C20 8154   3.491   5.902   7.795 -0.0106 -0.7118  0.1772
   77CHL1   H20 8155   3.597   5.868   7.800 -0.2108 -1.2056  1.1662
   77CHL1   C21 8156   3.395   5.782   7.815 -0.3331 -0.9743 -0.0844
   77CHL1  H21A 8157   3.435   5.691   7.765 -1.0676 -0.5484 -1.4819
   77CHL1  H21B 8158   3.288   5.809   7.798 -0.1305  0.8243  1.3499
   77CHL1  H21C 8159   3.389   5.756   7.922  0.7638 -0.8355  0.0178
   77CHL1   C22 8160   3.468   6.012   7.910  0.1956  0.3659 -0.1478
   77CHL1  H22A 8161   3.429   6.105   7.865  1.2163 -0.8067 -3.5762
   77CHL1  H22B 8162   3.387   5.972   7.976  1.9059  0.2920  1.9734
   77CHL1   C23 8163   3.594   6.038   7.994  0.0907 -0.0174 -0.2725
   77CHL1  H23A 8164   3.605   5.950   8.060  0.3274 -0.7147 -1.2298
   77CHL1  H23B 8165   3.680   6.034   7.924 -0.0270  2.1227 -0.5801
   77CHL1   C24 8166   3.597   6.164   8.066  0.4112 -0.8065 -0.0566
   77CHL1  H24A 8167   3.704   6.182   8.088  0.4336 -0.3292 -0.5427
   77CHL1  H24B 8168   3.574   6.246   7.994 -0.0697 -0.1069  0.8727
   77CHL1   C25 8169   3.524   6.171   8.202 -0.2301 -0.1226  0.2698
   77CHL1   H25 8170   3.528   6.076   8.260  2.6050 -1.9713 -2.7650
   77CHL1   C26 8171   3.600   6.270   8.290 -0.0320 -0.5366  0.1222
   77CHL1  H26A 8172   3.611   6.369   8.242  0.1552 -0.2400  0.7762
   77CHL1  H26B 8173   3.547   6.287   8.387  1.1284 -1.2196  0.8942
   77CHL1  H26C 8174   3.705   6.242   8.312  0.4800  0.2953 -1.2392
   77CHL1   C27 8175   3.387   6.223   8.181  0.0407 -0.7841  0.1129
   77CHL1  H27A 8176   3.318   6.149   8.136 -1.0694 -1.4711  2.8333
   77CHL1  H27B 8177   3.335   6.245   8.277  2.4210  2.1782  0.8017
   77CHL1  H27C 8178   3.388   6.312   8.114 -0.4521 -1.5851 -0.9663
   78CHL1    C3 8179   5.774   0.276   6.867  0.1616  0.1417 -0.2971
   78CHL1    H3 8180   5.879   0.302   6.841  0.2422  0.3672  0.2561
   78CHL1    O3 8181   5.697   0.227   6.758 -0.1284  0.1465  0.3733
   78CHL1   H3' 8182   5.715   0.133   6.749 -2.6807 -0.4383  0.9538
   78CHL1    C4 8183   5.766   0.171   6.981 -0.1774  0.1071 -0.0836
   78CHL1   H4A 8184   5.656   0.150   6.983 -0.1201 -0.0382  1.5822
   78CHL1   H4B 8185   5.808   0.073   6.948 -0.4839 -0.0365 -0.0529
   78CHL1    C5 8186   5.826   0.215   7.107 -0.8192  1.1165  1.0269
   78CHL1    C6 8187   5.918   0.137   7.168 -0.2940 -1.1358 -0.1752
   78CHL1    H6 8188   5.939   0.038   7.125 -1.3711 -1.6331  0.4325
   78CHL1    C7 8189   5.973   0.169   7.304  0.1713 -0.7410  0.0542
   78CHL1   H7A 8190   5.968   0.074   7.362 -0.5066 -0.1310  1.0100
   78CHL1   H7B 8191   6.078   0.204   7.302 -0.0449 -0.1569 -2.3428
   78CHL1    C8 8192   5.891   0.277   7.383  0.3679 -0.1773  0.2562
   78CHL1    H8 8193   5.800   0.227   7.419  0.6803  0.1616  1.5173
   78CHL1   C14 8194   5.966   0.327   7.504 -1.1479 -0.4159  0.2795
   78CHL1   H14 8195   6.061   0.373   7.468 -0.8976 -1.4966 -0.4747
   78CHL1   C15 8196   6.019   0.217   7.598  1.4273  0.1927 -0.0748
   78CHL1  H15A 8197   5.935   0.148   7.621  0.0364  1.7781 -0.2138
   78CHL1  H15B 8198   6.103   0.157   7.559  1.5144  1.1358 -1.3799
   78CHL1   C16 8199   6.051   0.291   7.727 -0.4118 -0.4259  0.1037
   78CHL1  H16A 8200   6.015   0.238   7.817  0.1589 -0.8477  0.0873
   78CHL1  H16B 8201   6.161   0.303   7.732 -0.3975 -0.3844 -0.2927
   78CHL1   C17 8202   5.993   0.438   7.706  0.2786 -0.0660  0.9846
   78CHL1   H17 8203   6.080   0.496   7.667 -2.9928  2.0069 -3.7532
   78CHL1   C13 8204   5.896   0.429   7.590  0.5137 -0.3431  0.0079
   78CHL1   C18 8205   5.765   0.377   7.649  0.2515  0.2308 -0.0624
   78CHL1  H18A 8206   5.722   0.459   7.709 -0.2729 -0.4631  0.5123
   78CHL1  H18B 8207   5.689   0.347   7.573  0.0855 -3.4732  1.4503
   78CHL1  H18C 8208   5.777   0.282   7.705 -2.0811 -1.0968 -1.7181
   78CHL1   C12 8209   5.871   0.550   7.488  0.1096 -0.0377  0.8986
   78CHL1  H12A 8210   5.812   0.634   7.532  2.8461  1.7988  1.1813
   78CHL1  H12B 8211   5.972   0.589   7.463  0.9643 -0.5127  3.4431
   78CHL1   C11 8212   5.802   0.508   7.357 -0.3106  0.0079 -0.3705
   78CHL1  H11A 8213   5.700   0.483   7.393  0.9665 -1.2367  2.6159
   78CHL1  H11B 8214   5.797   0.599   7.294  0.7730  0.1316 -0.2922
   78CHL1    C9 8215   5.860   0.387   7.285  0.3924  0.7067  0.3152
   78CHL1    H9 8216   5.959   0.425   7.251  1.0564 -0.5362  0.8246
   78CHL1   C10 8217   5.780   0.350   7.159  0.2825 -0.3422 -0.0173
   78CHL1   C19 8218   5.622   0.348   7.208  0.0215  0.0493  0.0843
   78CHL1  H19A 8219   5.557   0.301   7.130  1.3867  1.6448 -2.0824
   78CHL1  H19B 8220   5.598   0.295   7.303  0.1154  1.3614  0.8470
   78CHL1  H19C 8221   5.580   0.450   7.220  0.5479  0.3724 -0.7792
   78CHL1    C1 8222   5.788   0.462   7.042 -0.7599 -0.1017  0.5966
   78CHL1   H1A 8223   5.735   0.555   7.070 -1.1525  0.6705 -2.5064
   78CHL1   H1B 8224   5.891   0.487   7.011 -0.6086  0.1003  1.2553
   78CHL1    C2 8225   5.714   0.410   6.909 -0.1769  0.3907 -0.2765
   78CHL1   H2A 8226   5.732   0.486   6.830 -0.4854 -0.5329 -1.2529
   78CHL1   H2B 8227   5.607   0.398   6.933  0.4212 -1.1539  1.8148
   78CHL1   C20 8228   5.949   0.514   7.834  1.0250  0.0160 -0.2802
   78CHL1   H20 8229   5.848   0.484   7.870  1.4940 -0.7848  0.3991
   78CHL1   C21 8230   5.919   0.666   7.797  0.6831  0.1544 -0.3891
   78CHL1  H21A 8231   5.821   0.672   7.746  0.5811  1.3851 -0.0555
   78CHL1  H21B 8232   5.997   0.704   7.728  0.7038  0.9669  0.0661
   78CHL1  H21C 8233   5.911   0.738   7.882  1.1343  1.4129 -1.4022
   78CHL1   C22 8234   6.038   0.486   7.956  0.6422 -0.0309 -0.3015
   78CHL1  H22A 8235   6.027   0.379   7.983  3.4127 -0.9153 -2.4271
   78CHL1  H22B 8236   6.146   0.504   7.938  0.8398  0.5202  1.3096
   78CHL1   C23 8237   6.010   0.576   8.078  0.0461  0.3175  0.1680
   78CHL1  H23A 8238   6.070   0.529   8.159 -0.6359 -0.9967 -0.0682
   78CHL1  H23B 8239   6.048   0.676   8.046 -1.3015  0.2594 -1.7088
   78CHL1   C24 8240   5.871   0.567   8.131 -0.4419  0.0453 -0.3256
   78CHL1  H24A 8241   5.798   0.601   8.055  0.3091  1.5092 -0.4025
   78CHL1  H24B 8242   5.843   0.463   8.158  1.9833 -0.3924  0.6173
   78CHL1   C25 8243   5.858   0.645   8.260  0.3308 -0.1716 -0.4280
   78CHL1   H25 8244   5.926   0.606   8.339 -1.3643 -0.8786  0.7237
   78CHL1   C26 8245   5.899   0.792   8.247 -0.3000 -1.0405  0.1133
   78CHL1  H26A 8246   6.010   0.795   8.247 -0.2923 -0.9739  1.6707
   78CHL1  H26B 8247   5.867   0.839   8.151  2.3550 -1.3842 -0.9833
   78CHL1  H26C 8248   5.848   0.851   8.325 -0.4683 -0.1172 -0.6863
   78CHL1   C27 8249   5.709   0.628   8.300 -0.0719  0.8084  0.3590
   78CHL1  H27A 8250   5.651   0.700   8.238  0.0325 -0.3220 -1.0678
   78CHL1  H27B 8251   5.681   0.524   8.274 -1.1443  1.4875 -1.2521
   78CHL1  H27C 8252   5.694   0.641   8.409  2.1853  0.0506  0.8027
   79CHL1    C3 8253   3.610   0.776   7.264  0.0376  0.4932 -0.0770
   79CHL1    H3 8254   3.652   0.878   7.281 -0.8050  0.5197  1.9524
   79CHL1    O3 8255   3.590   0.748   7.130  0.7633 -0.8096  0.3423
   79CHL1   H3' 8256   3.591   0.652   7.122 -1.3772 -0.8432  0.3329
   79CHL1    C4 8257   3.714   0.672   7.312 -0.1618 -0.1711 -0.0447
   79CHL1   H4A 8258   3.685   0.575   7.267  0.0143 -1.8604  3.3474
   79CHL1   H4B 8259   3.814   0.698   7.269 -0.1537  0.4066  0.3130
   79CHL1    C5 8260   3.736   0.668   7.465 -1.0414 -0.6385  0.1827
   79CHL1    C6 8261   3.855   0.677   7.523  0.3511 -0.5732 -0.6622
   79CHL1    H6 8262   3.941   0.683   7.454  1.6515  0.6529  0.9976
   79CHL1    C7 8263   3.887   0.676   7.674 -0.4005 -0.3625 -0.2128
   79CHL1   H7A 8264   3.972   0.607   7.695 -0.8083 -0.8852 -0.2600
   79CHL1   H7B 8265   3.928   0.776   7.698  1.6415 -1.1812 -0.1190
   79CHL1    C8 8266   3.761   0.627   7.752  0.0904 -0.7790 -0.4269
   79CHL1    H8 8267   3.772   0.517   7.742 -0.8979 -1.0445  1.2664
   79CHL1   C14 8268   3.771   0.677   7.899 -0.2224  0.2134 -0.3689
   79CHL1   H14 8269   3.762   0.787   7.894  0.2402  0.2138 -1.3968
   79CHL1   C15 8270   3.903   0.653   7.965 -0.5101  0.1445  0.0890
   79CHL1  H15A 8271   3.955   0.558   7.937 -1.8702 -0.4953 -0.3333
   79CHL1  H15B 8272   3.963   0.746   7.955 -0.3546 -0.1622 -2.1885
   79CHL1   C16 8273   3.875   0.637   8.106  0.1631 -0.4020  0.0584
   79CHL1  H16A 8274   3.888   0.536   8.150  3.9599  1.1033  2.6416
   79CHL1  H16B 8275   3.926   0.712   8.170 -2.7591  0.2838  1.6650
   79CHL1   C17 8276   3.722   0.669   8.121 -1.2083  0.2050  0.2158
   79CHL1   H17 8277   3.716   0.779   8.133 -2.5272  0.2193 -0.4207
   79CHL1   C13 8278   3.662   0.628   7.987 -0.0746  0.2222 -0.3887
   79CHL1   C18 8279   3.657   0.477   7.985  0.4296  0.4469 -0.1687
   79CHL1  H18A 8280   3.662   0.439   7.881  1.3885 -0.3758  0.1741
   79CHL1  H18B 8281   3.739   0.422   8.035  0.0079  0.7153  0.8181
   79CHL1  H18C 8282   3.556   0.445   8.020  1.3248 -3.4499 -0.9974
   79CHL1   C12 8283   3.530   0.689   7.938 -0.3418  0.3813  0.1163
   79CHL1  H12A 8284   3.449   0.644   8.000 -2.0324  1.2014 -1.4646
   79CHL1  H12B 8285   3.540   0.796   7.964 -1.5201  0.9580 -1.7295
   79CHL1   C11 8286   3.505   0.657   7.788  0.4907 -0.5932 -0.6893
   79CHL1  H11A 8287   3.492   0.547   7.780  0.6554 -0.6612 -0.0354
   79CHL1  H11B 8288   3.417   0.715   7.752 -0.4603 -0.8916  1.0604
   79CHL1    C9 8289   3.628   0.680   7.697 -0.1081 -0.4864 -0.0134
   79CHL1    H9 8290   3.636   0.790   7.710  1.2011 -0.4423 -1.0007
   79CHL1   C10 8291   3.606   0.658   7.546  0.3820  0.4560  1.0096
   79CHL1   C19 8292   3.549   0.514   7.521 -0.2944  0.2394 -0.7674
   79CHL1  H19A 8293   3.545   0.479   7.415 -0.2265  2.0325 -1.3734
   79CHL1  H19B 8294   3.615   0.442   7.574 -0.4071 -2.3058 -3.9128
   79CHL1  H19C 8295   3.451   0.506   7.573  0.1758  1.7088  0.3719
   79CHL1    C1 8296   3.505   0.764   7.495  0.5953  0.5082 -0.7077
   79CHL1   H1A 8297   3.409   0.740   7.545 -0.0713 -1.7312 -2.9656
   79CHL1   H1B 8298   3.537   0.863   7.533 -0.9423  0.7497 -0.0007
   79CHL1    C2 8299   3.477   0.760   7.344 -0.3351 -0.4795  0.2986
   79CHL1   H2A 8300   3.421   0.850   7.312  0.9913 -0.8910 -3.5252
   79CHL1   H2B 8301   3.417   0.671   7.315 -2.7727  1.0638  0.5342
   79CHL1   C20 8302   3.654   0.616   8.250  0.0194 -0.0963 -0.7000
   79CHL1   H20 8303   3.629   0.509   8.237  1.7640 -0.3371 -2.2737
   79CHL1   C21 8304   3.517   0.682   8.278  0.1879 -0.4844  0.0841
   79CHL1  H21A 8305   3.442   0.681   8.196  1.0352 -1.2340 -0.6974
   79CHL1  H21B 8306   3.530   0.787   8.312 -2.4615 -0.4492  1.0459
   79CHL1  H21C 8307   3.467   0.635   8.364  0.6272 -0.3928  0.3938
   79CHL1   C22 8308   3.754   0.633   8.371  0.4770 -0.3958  0.3624
   79CHL1  H22A 8309   3.844   0.568   8.359 -1.1957 -2.1804 -3.4968
   79CHL1  H22B 8310   3.777   0.741   8.380 -0.2023 -0.2066 -0.1395
   79CHL1   C23 8311   3.692   0.600   8.512  0.2252  0.2504  0.4411
   79CHL1  H23A 8312   3.635   0.689   8.547 -0.2765 -0.3342  1.1413
   79CHL1  H23B 8313   3.611   0.528   8.484  0.6779  0.0570 -0.3551
   79CHL1   C24 8314   3.786   0.544   8.614 -0.1725  0.6522 -0.1662
   79CHL1  H24A 8315   3.824   0.448   8.573 -3.0643 -1.3637  1.6572
   79CHL1  H24B 8316   3.878   0.607   8.622 -0.3737  0.9133  0.1263
   79CHL1   C25 8317   3.731   0.527   8.753  0.0637 -0.5432 -0.3174
   79CHL1   H25 8318   3.642   0.461   8.740  0.8937 -1.8122  0.3665
   79CHL1   C26 8319   3.839   0.461   8.841  0.7775  0.3897  0.3689
   79CHL1  H26A 8320   3.863   0.353   8.832  1.4060  0.1460  4.1796
   79CHL1  H26B 8321   3.935   0.512   8.816  0.8673  1.4433  2.6883
   79CHL1  H26C 8322   3.819   0.481   8.948  2.1951 -0.3937  0.7999
   79CHL1   C27 8323   3.677   0.653   8.820  0.5780  0.1950 -0.0517
   79CHL1  H27A 8324   3.579   0.681   8.775  0.3315  0.2865  0.5341
   79CHL1  H27B 8325   3.667   0.657   8.930  0.6864 -0.0637 -0.0325
   79CHL1  H27C 8326   3.740   0.742   8.798  3.4641 -1.4248  1.3809
   80CHL1    C3 8327   1.857   5.008   7.065 -1.0430 -0.4459 -0.0048
   80CHL1    H3 8328   1.759   4.970   7.099 -1.6769  1.8350  0.8448
   80CHL1    O3 8329   1.843   5.038   6.925 -0.3474  0.2463 -0.1901
   80CHL1   H3' 8330   1.928   5.069   6.894  0.3379 -0.8171  0.5877
   80CHL1    C4 8331   1.901   5.140   7.137  1.0704 -0.0446 -0.1527
   80CHL1   H4A 8332   1.991   5.179   7.083 -0.1952  2.4248 -0.5427
   80CHL1   H4B 8333   1.823   5.219   7.134  0.8209 -0.2642  0.7269
   80CHL1    C5 8334   1.930   5.111   7.282  0.2512 -0.5468 -0.1545
   80CHL1    C6 8335   1.862   5.173   7.383 -0.2575  0.4696  0.8054
   80CHL1    H6 8336   1.796   5.251   7.342  0.6567 -0.4342 -2.5226
   80CHL1    C7 8337   1.880   5.147   7.531  0.0870 -0.4015 -0.2282
   80CHL1   H7A 8338   1.878   5.241   7.590 -1.0408 -0.0129 -0.8862
   80CHL1   H7B 8339   1.794   5.086   7.567 -0.0118 -0.0934  0.0568
   80CHL1    C8 8340   2.009   5.072   7.570 -0.3817 -0.2221 -0.6885
   80CHL1    H8 8341   2.095   5.142   7.567 -0.1637 -0.5512 -2.3216
   80CHL1   C14 8342   2.003   5.013   7.715  0.2369 -0.0765 -0.7814
   80CHL1   H14 8343   1.917   4.942   7.720  2.1292 -2.3995 -0.3155
   80CHL1   C15 8344   1.964   5.111   7.827  0.3983 -0.0537 -0.1481
   80CHL1  H15A 8345   2.013   5.208   7.804 -0.5157  1.2869  3.1273
   80CHL1  H15B 8346   1.855   5.131   7.825  0.4209 -0.0154 -1.7226
   80CHL1   C16 8347   2.012   5.043   7.959  0.0851 -0.1152 -0.0180
   80CHL1  H16A 8348   2.089   5.109   8.004  0.7605 -0.6885 -0.3299
   80CHL1  H16B 8349   1.929   5.030   8.031 -1.1529  0.9496 -1.2046
   80CHL1   C17 8350   2.086   4.914   7.910  0.9204 -0.1211  0.3007
   80CHL1   H17 8351   2.010   4.834   7.905  1.8861 -1.2405  2.4927
   80CHL1   C13 8352   2.123   4.939   7.762 -0.2918  0.6031  0.2644
   80CHL1   C18 8353   2.251   5.030   7.755  0.2633  0.2119 -0.0321
   80CHL1  H18A 8354   2.337   4.961   7.738 -0.1407 -0.5927  1.0829
   80CHL1  H18B 8355   2.254   5.093   7.664  0.4822 -0.6650 -0.6430
   80CHL1  H18C 8356   2.261   5.096   7.844  0.7009  0.8472 -0.5494
   80CHL1   C12 8357   2.134   4.807   7.669 -0.7849 -0.7723  0.3373
   80CHL1  H12A 8358   2.227   4.752   7.692 -0.2672  0.4801  1.2634
   80CHL1  H12B 8359   2.052   4.734   7.687 -0.4669 -1.5518 -1.3172
   80CHL1   C11 8360   2.144   4.856   7.522 -0.3600  0.1828 -0.2327
   80CHL1  H11A 8361   2.248   4.894   7.507 -0.0937  0.4676  2.0446
   80CHL1  H11B 8362   2.125   4.764   7.464  1.3636  0.7117 -1.6967
   80CHL1    C9 8363   2.024   4.956   7.468 -1.1785  0.4655  0.5885
   80CHL1    H9 8364   1.931   4.895   7.473  0.2969 -1.8056  0.7920
   80CHL1   C10 8365   2.035   5.000   7.318  0.2132  0.0983  0.7929
   80CHL1   C19 8366   2.177   5.053   7.290 -0.6229  0.0647 -0.5384
   80CHL1  H19A 8367   2.236   4.960   7.282  0.7338  0.7729  1.0334
   80CHL1  H19B 8368   2.178   5.097   7.188 -1.1865 -0.9547 -0.9947
   80CHL1  H19C 8369   2.222   5.120   7.366  0.3625 -0.9761 -0.2086
   80CHL1    C1 8370   2.005   4.879   7.231  0.8259  0.2037  0.4067
   80CHL1   H1A 8371   2.084   4.800   7.238 -1.8430 -2.5584  0.4642
   80CHL1   H1B 8372   1.916   4.820   7.261  0.3105  1.5638  1.6022
   80CHL1    C2 8373   1.981   4.911   7.080 -0.0785 -0.1974  0.6943
   80CHL1   H2A 8374   1.959   4.817   7.026  0.5755  0.3902 -0.6268
   80CHL1   H2B 8375   2.070   4.953   7.027  0.2344 -0.9704  0.5955
   80CHL1   C20 8376   2.197   4.867   8.006 -0.6628 -0.0479  0.2837
   80CHL1   H20 8377   2.284   4.935   8.013  0.3307 -1.2955  0.4123
   80CHL1   C21 8378   2.242   4.734   7.954 -0.1103 -0.2093 -0.2320
   80CHL1  H21A 8379   2.157   4.670   7.922  0.9260 -0.2351 -3.0920
   80CHL1  H21B 8380   2.295   4.673   8.031  0.3048 -0.1809 -0.4912
   80CHL1  H21C 8381   2.317   4.749   7.873  0.7680  0.4970  0.7027
   80CHL1   C22 8382   2.146   4.854   8.156 -0.0510  0.2821  0.0325
   80CHL1  H22A 8383   2.074   4.929   8.196 -0.5004 -0.5747  0.8567
   80CHL1  H22B 8384   2.093   4.758   8.175 -1.9366  1.3173  0.1481
   80CHL1   C23 8385   2.269   4.881   8.246  0.1787 -0.1711 -0.0776
   80CHL1  H23A 8386   2.354   4.815   8.220  0.1728 -0.2968  0.2266
   80CHL1  H23B 8387   2.302   4.986   8.231 -2.2700  0.5587 -0.6780
   80CHL1   C24 8388   2.251   4.836   8.394  0.3572  0.2231 -0.0855
   80CHL1  H24A 8389   2.153   4.872   8.433 -0.4406 -0.2890 -1.5879
   80CHL1  H24B 8390   2.255   4.725   8.396 -0.3711  0.2042  3.2892
   80CHL1   C25 8391   2.361   4.883   8.494  0.2503  0.6805 -0.4621
   80CHL1   H25 8392   2.455   4.826   8.476 -0.0483  0.2727 -0.7341
   80CHL1   C26 8393   2.384   5.034   8.485  0.0345 -0.8154  0.2092
   80CHL1  H26A 8394   2.284   5.081   8.490 -0.2487 -1.6113  2.6432
   80CHL1  H26B 8395   2.438   5.080   8.570 -0.6150  0.4078 -0.0328
   80CHL1  H26C 8396   2.443   5.058   8.394  0.0159 -0.0705  0.3908
   80CHL1   C27 8397   2.309   4.848   8.636 -0.3361 -0.2425 -0.4085
   80CHL1  H27A 8398   2.216   4.905   8.657  0.7035  0.6060  2.0332
   80CHL1  H27B 8399   2.270   4.744   8.631 -2.0595  0.3145  1.0367
   80CHL1  H27C 8400   2.376   4.879   8.719 -0.5803  0.9020 -0.6248
   81CHL1    C3 8401   0.382   4.488   6.783 -1.2936 -0.5719  0.4290
   81CHL1    H3 8402   0.385   4.381   6.812  1.2743 -0.8598 -0.7406
   81CHL1    O3 8403   0.416   4.498   6.647 -0.3754 -0.0422 -0.9283
   81CHL1   H3' 8404   0.333   4.486   6.600 -2.2950 -1.2293  2.5964
   81CHL1    C4 8405   0.233   4.540   6.793 -0.7080  0.0658 -0.4011
   81CHL1   H4A 8406   0.221   4.642   6.751  3.4950  0.7574 -0.0415
   81CHL1   H4B 8407   0.169   4.482   6.723  0.0626  0.1075 -1.1479
   81CHL1    C5 8408   0.184   4.547   6.930 -0.4655 -0.0609 -0.2616
   81CHL1    C6 8409   0.065   4.493   6.957 -0.2517  0.7329  0.4563
   81CHL1    H6 8410   0.008   4.433   6.884 -1.2541 -0.3659  2.0973
   81CHL1    C7 8411  -0.004   4.515   7.092  0.7804 -0.1614 -0.6037
   81CHL1   H7A 8412  -0.108   4.554   7.085  0.5399 -0.3438  1.4534
   81CHL1   H7B 8413  -0.009   4.418   7.145 -2.2885  1.4933  2.3184
   81CHL1    C8 8414   0.071   4.605   7.193  0.3414  0.6910 -0.5373
   81CHL1    H8 8415   0.039   4.709   7.168  1.4860  1.1863 -0.0186
   81CHL1   C14 8416   0.023   4.577   7.332 -0.0539 -0.5028 -0.1237
   81CHL1   H14 8417   0.044   4.472   7.360  2.7491 -0.4555 -1.8405
   81CHL1   C15 8418  -0.127   4.584   7.356 -1.0442 -0.5383 -0.8235
   81CHL1  H15A 8419  -0.164   4.685   7.326 -2.7104 -1.0856 -0.6651
   81CHL1  H15B 8420  -0.188   4.499   7.318 -1.0882 -0.6382 -0.5252
   81CHL1   C16 8421  -0.137   4.595   7.514  0.2521 -0.2451  0.1821
   81CHL1  H16A 8422  -0.216   4.670   7.536  1.1337  1.0175 -0.8538
   81CHL1  H16B 8423  -0.177   4.499   7.554 -1.0623  0.7506  1.3121
   81CHL1   C17 8424   0.005   4.616   7.566  1.2186  0.5394 -0.0216
   81CHL1   H17 8425   0.038   4.513   7.595  1.1426  1.0578  1.9379
   81CHL1   C13 8426   0.088   4.658   7.444 -0.2302  0.3769  0.6784
   81CHL1   C18 8427   0.064   4.812   7.421  0.7969 -0.7695 -0.1122
   81CHL1  H18A 8428   0.120   4.860   7.505  1.4128 -0.4458 -0.7037
   81CHL1  H18B 8429   0.096   4.843   7.319  0.3678 -0.0419 -0.0296
   81CHL1  H18C 8430  -0.043   4.839   7.431  0.8426  0.0765 -1.8151
   81CHL1   C12 8431   0.241   4.633   7.438  0.3352 -0.3146  0.6830
   81CHL1  H12A 8432   0.308   4.694   7.502  0.8171  0.2376 -0.3457
   81CHL1  H12B 8433   0.273   4.533   7.473 -0.1691  0.0530  2.2547
   81CHL1   C11 8434   0.297   4.662   7.302  0.7486  0.6431 -0.1007
   81CHL1  H11A 8435   0.289   4.770   7.275 -0.7567  0.9470  1.4587
   81CHL1  H11B 8436   0.404   4.632   7.296  0.7084  0.5843 -0.4859
   81CHL1    C9 8437   0.222   4.588   7.183 -0.7410  0.6939  0.3655
   81CHL1    H9 8438   0.242   4.479   7.192 -1.1828  0.6253  0.5219
   81CHL1   C10 8439   0.267   4.625   7.035 -0.3204  0.7918  0.0864
   81CHL1   C19 8440   0.257   4.777   7.019  0.0346  0.6187 -1.1094
   81CHL1  H19A 8441   0.272   4.825   6.920  2.1240 -1.5833 -1.9168
   81CHL1  H19B 8442   0.161   4.822   7.051  1.7251  3.7708 -0.2883
   81CHL1  H19C 8443   0.339   4.815   7.083  0.8256 -2.0685 -0.4434
   81CHL1    C1 8444   0.417   4.579   7.025 -0.0712 -0.1051 -0.4122
   81CHL1   H1A 8445   0.484   4.635   7.093  0.8590  0.4566 -1.7745
   81CHL1   H1B 8446   0.421   4.474   7.061 -0.4022  0.2490  0.6731
   81CHL1    C2 8447   0.464   4.581   6.876  0.2300 -0.2510  0.3170
   81CHL1   H2A 8448   0.573   4.558   6.880  0.6763  1.8968  1.2075
   81CHL1   H2B 8449   0.457   4.683   6.833 -2.4177 -0.1443  0.9276
   81CHL1   C20 8450   0.008   4.697   7.699 -0.1968 -0.6268 -0.6363
   81CHL1   H20 8451   0.005   4.806   7.678 -0.2997 -0.2963  1.0289
   81CHL1   C21 8452   0.144   4.675   7.772  0.1751  0.4303 -0.4760
   81CHL1  H21A 8453   0.151   4.567   7.796 -1.5414  0.4782  0.3227
   81CHL1  H21B 8454   0.150   4.735   7.865 -2.0073  0.5261 -0.3734
   81CHL1  H21C 8455   0.231   4.703   7.707  2.6769 -1.5458  1.9217
   81CHL1   C22 8456  -0.106   4.683   7.802  0.1649 -0.3743  0.1227
   81CHL1  H22A 8457  -0.088   4.761   7.879  2.3592 -0.1784 -0.5541
   81CHL1  H22B 8458  -0.198   4.703   7.743  0.2214 -0.4938 -0.0040
   81CHL1   C23 8459  -0.124   4.550   7.869 -1.1683  1.1022  0.3471
   81CHL1  H23A 8460  -0.158   4.483   7.787 -1.6781 -0.2466  1.6341
   81CHL1  H23B 8461  -0.030   4.508   7.910 -0.5868  2.4198  0.3854
   81CHL1   C24 8462  -0.230   4.552   7.974  0.0171 -0.1342  0.2654
   81CHL1  H24A 8463  -0.210   4.625   8.056 -1.7400  0.7300 -0.0484
   81CHL1  H24B 8464  -0.329   4.586   7.938 -0.6129 -1.8736  0.3223
   81CHL1   C25 8465  -0.258   4.410   8.028  0.1432  0.2569 -0.4676
   81CHL1   H25 8466  -0.161   4.360   8.047  0.3553  0.6640 -0.5006
   81CHL1   C26 8467  -0.332   4.420   8.158 -1.0177  0.9204 -0.0755
   81CHL1  H26A 8468  -0.272   4.470   8.237 -0.2063  0.0434 -0.1220
   81CHL1  H26B 8469  -0.429   4.472   8.147 -0.3226  2.1505 -0.4968
   81CHL1  H26C 8470  -0.339   4.316   8.198  2.6320  0.4587 -0.4592
   81CHL1   C27 8471  -0.332   4.329   7.925  0.4781  0.3797  0.1777
   81CHL1  H27A 8472  -0.433   4.365   7.897  0.6578  1.3650  0.7792
   81CHL1  H27B 8473  -0.261   4.317   7.840 -0.6219  1.6783 -0.9268
   81CHL1  H27C 8474  -0.354   4.231   7.973 -2.5064  1.0908  0.3733
   82CHL1    C3 8475   1.093   5.626   7.051  0.3213 -0.1965  0.0977
   82CHL1    H3 8476   1.025   5.554   7.101  1.4807 -1.0908  0.4005
   82CHL1    O3 8477   1.127   5.578   6.919 -0.8421 -0.2414  0.2041
   82CHL1   H3' 8478   1.196   5.635   6.885  0.0821 -0.8566  1.0181
   82CHL1    C4 8479   1.015   5.763   7.032 -0.2767  0.2905  0.1024
   82CHL1   H4A 8480   1.074   5.825   6.961  0.6441 -1.8611 -1.0400
   82CHL1   H4B 8481   0.924   5.728   6.980 -0.5024 -0.9155  1.2752
   82CHL1    C5 8482   0.974   5.828   7.167 -0.1559 -0.1110  1.2769
   82CHL1    C6 8483   0.844   5.847   7.202 -0.2660  0.2135  0.1241
   82CHL1    H6 8484   0.765   5.824   7.128  0.3626 -1.1459 -0.1367
   82CHL1    C7 8485   0.798   5.904   7.334  0.1085 -0.9469 -0.2082
   82CHL1   H7A 8486   0.731   5.991   7.318  0.6481 -0.4800  0.0730
   82CHL1   H7B 8487   0.749   5.821   7.390 -1.3950 -0.5566 -0.9190
   82CHL1    C8 8488   0.917   5.965   7.416  0.1917  1.0544  1.0026
   82CHL1    H8 8489   0.939   6.057   7.358 -2.1418  0.5969 -0.6912
   82CHL1   C14 8490   0.874   6.009   7.557  0.4790 -0.2139 -0.0404
   82CHL1   H14 8491   0.846   5.913   7.606  0.6122  0.4335  1.3458
   82CHL1   C15 8492   0.749   6.104   7.571 -0.7943 -0.1919  0.1191
   82CHL1  H15A 8493   0.744   6.178   7.488  0.2923  2.0235  1.9829
   82CHL1  H15B 8494   0.658   6.041   7.559 -1.3144  0.5206  0.3083
   82CHL1   C16 8495   0.766   6.159   7.714  0.3015  0.3006 -0.4121
   82CHL1  H16A 8496   0.773   6.270   7.718 -1.4398  0.4280 -0.7033
   82CHL1  H16B 8497   0.692   6.127   7.790  0.7705  2.7206  1.1502
   82CHL1   C17 8498   0.901   6.103   7.772 -0.2770 -0.4200  0.4113
   82CHL1   H17 8499   0.868   6.013   7.829 -1.8186 -1.3614 -1.8763
   82CHL1   C13 8500   0.978   6.065   7.642 -0.4877  0.0853  0.4771
   82CHL1   C18 8501   1.030   6.192   7.581  0.4439  0.1456 -0.5772
   82CHL1  H18A 8502   1.120   6.216   7.643 -0.6856 -0.1630  1.2034
   82CHL1  H18B 8503   1.072   6.187   7.478 -0.2889 -1.2384 -0.8170
   82CHL1  H18C 8504   0.960   6.278   7.583 -1.3367 -1.2685 -1.3993
   82CHL1   C12 8505   1.095   5.955   7.659 -0.1116 -0.7673  0.5625
   82CHL1  H12A 8506   1.174   5.999   7.724 -0.5159  1.2016 -0.2401
   82CHL1  H12B 8507   1.063   5.863   7.713  1.1856 -0.9589  1.0302
   82CHL1   C11 8508   1.145   5.919   7.516  0.3959  0.6635 -0.0191
   82CHL1  H11A 8509   1.196   6.008   7.473  1.0001 -0.2014 -1.1267
   82CHL1  H11B 8510   1.219   5.837   7.530 -2.2462 -1.8860 -0.4608
   82CHL1    C9 8511   1.034   5.877   7.415  0.2111  0.5258  0.2445
   82CHL1    H9 8512   0.998   5.779   7.455 -1.6199  0.6922 -0.8959
   82CHL1   C10 8513   1.089   5.843   7.272 -0.4792  0.3291 -0.2986
   82CHL1   C19 8514   1.188   5.962   7.227  0.2014 -1.2068  0.2004
   82CHL1  H19A 8515   1.278   5.976   7.292  0.0289 -0.6120  0.3111
   82CHL1  H19B 8516   1.231   5.955   7.125 -1.4075 -0.6630 -0.5248
   82CHL1  H19C 8517   1.131   6.055   7.249  2.0111 -0.6110  2.5887
   82CHL1    C1 8518   1.165   5.701   7.276 -0.4537  0.3525 -0.3878
   82CHL1   H1A 8519   1.251   5.697   7.346 -0.6845 -3.1631 -0.2135
   82CHL1   H1B 8520   1.095   5.629   7.325  0.3564 -0.9394 -1.0990
   82CHL1    C2 8521   1.216   5.651   7.138 -0.4222 -0.3451  0.8535
   82CHL1   H2A 8522   1.271   5.554   7.150  0.0561 -0.1925 -0.0880
   82CHL1   H2B 8523   1.285   5.727   7.095 -0.4961  0.0355  1.4038
   82CHL1   C20 8524   0.960   6.203   7.875  0.3621 -0.8190 -0.0791
   82CHL1   H20 8525   0.992   6.291   7.815  1.1633 -1.2397 -0.2767
   82CHL1   C21 8526   1.089   6.153   7.940 -0.6707  0.1129 -1.0259
   82CHL1  H21A 8527   1.085   6.054   7.990  2.2514  0.0494 -0.8263
   82CHL1  H21B 8528   1.123   6.234   8.008 -1.6328  1.9262 -2.6322
   82CHL1  H21C 8529   1.167   6.146   7.861 -2.2620 -1.3045 -2.5107
   82CHL1   C22 8530   0.859   6.245   7.988 -0.1101 -1.0169 -0.3505
   82CHL1  H22A 8531   0.765   6.283   7.943 -0.9691 -0.8738  1.5210
   82CHL1  H22B 8532   0.833   6.158   8.052 -1.8340  0.3414  0.8403
   82CHL1   C23 8533   0.897   6.358   8.077 -0.3389 -0.5103 -0.2022
   82CHL1  H23A 8534   0.985   6.318   8.133 -1.3775 -1.9596  0.4177
   82CHL1  H23B 8535   0.923   6.446   8.014 -1.3716 -0.2695 -0.2896
   82CHL1   C24 8536   0.787   6.403   8.174 -0.0912  0.1460 -1.0390
   82CHL1  H24A 8537   0.695   6.425   8.114 -1.3401  1.3495  1.2529
   82CHL1  H24B 8538   0.771   6.318   8.243 -4.6638  1.4169 -0.3615
   82CHL1   C25 8539   0.841   6.527   8.256  0.7911  0.5464 -0.8380
   82CHL1   H25 8540   0.760   6.551   8.328  0.7218 -0.6334 -0.5213
   82CHL1   C26 8541   0.965   6.489   8.346 -0.2926 -0.2361 -0.9614
   82CHL1  H26A 8542   0.946   6.399   8.407 -0.9267  1.2066  1.0476
   82CHL1  H26B 8543   1.051   6.458   8.283  0.1407  0.4873 -0.7351
   82CHL1  H26C 8544   0.992   6.569   8.419  1.4966  0.1521 -2.0014
   82CHL1   C27 8545   0.863   6.657   8.175 -0.1935  0.7460 -0.2952
   82CHL1  H27A 8546   0.875   6.737   8.251 -1.0916  0.1241  0.5002
   82CHL1  H27B 8547   0.952   6.654   8.109 -1.0959 -2.2734 -1.4455
   82CHL1  H27C 8548   0.770   6.684   8.120 -1.9435 -0.6366  1.9182
   83CHL1    C3 8549   3.983   0.261   6.975 -0.2516  0.3234  0.4884
   83CHL1    H3 8550   4.072   0.196   6.959  1.8997  3.7067 -2.0541
   83CHL1    O3 8551   3.926   0.290   6.854 -0.0362 -0.1616  0.4288
   83CHL1   H3' 8552   3.884   0.376   6.851 -0.1097 -0.2210 -0.2579
   83CHL1    C4 8553   3.896   0.168   7.067  0.2989 -0.3009 -0.1823
   83CHL1   H4A 8554   3.789   0.199   7.066  0.0626 -0.9915  1.5679
   83CHL1   H4B 8555   3.894   0.065   7.025  0.0607  0.3954 -1.9118
   83CHL1    C5 8556   3.957   0.155   7.208 -0.1619  0.2175  0.4057
   83CHL1    C6 8557   3.996   0.032   7.254 -0.2013  0.7076  0.4132
   83CHL1    H6 8558   3.968  -0.053   7.190  0.9235  1.0760 -0.5815
   83CHL1    C7 8559   4.052   0.014   7.390  0.1338 -0.4844  0.6412
   83CHL1   H7A 8560   4.017  -0.081   7.436 -2.3914 -1.6204 -3.3218
   83CHL1   H7B 8561   4.161  -0.005   7.388  0.1075 -0.5944 -2.9034
   83CHL1    C8 8562   4.025   0.128   7.489  0.3597 -0.8708 -0.1267
   83CHL1    H8 8563   3.917   0.130   7.515  0.3882 -1.7844  0.0623
   83CHL1   C14 8564   4.098   0.106   7.617 -0.9705  0.1389  0.3484
   83CHL1   H14 8565   4.201   0.085   7.579 -1.6434 -0.7099 -1.0310
   83CHL1   C15 8566   4.062  -0.023   7.697 -0.3546 -1.1038  0.0408
   83CHL1  H15A 8567   3.953  -0.044   7.705 -0.5554  0.1666  0.9770
   83CHL1  H15B 8568   4.115  -0.110   7.655 -0.6381 -0.8034 -0.9569
   83CHL1   C16 8569   4.111   0.014   7.840 -0.6798  0.4981 -0.3552
   83CHL1  H16A 8570   4.034   0.013   7.919  0.8191 -0.5438  1.1213
   83CHL1  H16B 8571   4.184  -0.061   7.877 -0.1094  1.0135 -0.4325
   83CHL1   C17 8572   4.170   0.159   7.834 -0.0019 -0.4500  0.3764
   83CHL1   H17 8573   4.278   0.144   7.810  0.3419  2.4716 -0.0489
   83CHL1   C13 8574   4.103   0.225   7.713  0.6123 -0.1369 -0.3281
   83CHL1   C18 8575   3.955   0.261   7.754  0.4164  0.3928 -0.3795
   83CHL1  H18A 8576   3.895   0.281   7.663  0.7105 -0.7746 -0.8398
   83CHL1  H18B 8577   3.907   0.177   7.807  1.2651 -0.8128 -1.5005
   83CHL1  H18C 8578   3.946   0.353   7.817  1.6881 -0.6427  1.3667
   83CHL1   C12 8579   4.172   0.344   7.637  0.7776  1.0388 -0.6015
   83CHL1  H12A 8580   4.185   0.441   7.691 -0.5150  1.0089 -0.2213
   83CHL1  H12B 8581   4.279   0.323   7.616  0.3006 -2.7344  0.4362
   83CHL1   C11 8582   4.092   0.377   7.504  0.4506  0.0121  0.5546
   83CHL1  H11A 8583   3.999   0.433   7.527  1.2515  0.9585  1.5782
   83CHL1  H11B 8584   4.164   0.443   7.451 -0.0761  0.6206  0.5994
   83CHL1    C9 8585   4.079   0.254   7.418  0.3109  0.6049  0.7004
   83CHL1    H9 8586   4.181   0.218   7.390  0.6370  0.9114  1.4700
   83CHL1   C10 8587   3.993   0.279   7.289 -0.3787 -0.8948 -0.2108
   83CHL1   C19 8588   3.853   0.349   7.312  0.1949  0.1279 -0.3713
   83CHL1  H19A 8589   3.791   0.291   7.383  2.5591 -0.9976  0.8392
   83CHL1  H19B 8590   3.871   0.445   7.364 -0.3773  0.8156 -1.4421
   83CHL1  H19C 8591   3.796   0.365   7.218  2.4270 -0.9333 -1.9590
   83CHL1    C1 8592   4.072   0.370   7.192 -0.0671  0.2000  0.0462
   83CHL1   H1A 8593   4.083   0.470   7.241  0.5398 -0.5796  1.5540
   83CHL1   H1B 8594   4.172   0.326   7.174 -0.8816 -0.8770 -1.9262
   83CHL1    C2 8595   4.016   0.390   7.050 -0.4224 -0.8570  0.3147
   83CHL1   H2A 8596   4.079   0.451   6.982  0.8930 -2.2443  0.2495
   83CHL1   H2B 8597   3.921   0.446   7.064  1.1786  1.7043  1.1347
   83CHL1   C20 8598   4.174   0.237   7.960 -0.3092  0.1982 -0.7462
   83CHL1   H20 8599   4.074   0.285   7.968  0.2965  1.1087  1.7657
   83CHL1   C21 8600   4.276   0.349   7.948 -0.0214  1.2570  0.2827
   83CHL1  H21A 8601   4.290   0.388   8.051 -1.3007 -0.0678  0.9777
   83CHL1  H21B 8602   4.223   0.421   7.881  3.3829  0.7426 -3.1195
   83CHL1  H21C 8603   4.369   0.317   7.896 -0.8306 -0.7563  0.0364
   83CHL1   C22 8604   4.204   0.152   8.090 -0.5276 -0.8098 -0.3885
   83CHL1  H22A 8605   4.182   0.222   8.173 -1.3232  0.1476 -1.3864
   83CHL1  H22B 8606   4.146   0.057   8.095  0.1492 -1.1433  1.3152
   83CHL1   C23 8607   4.348   0.098   8.100  0.6003 -0.2142 -0.7056
   83CHL1  H23A 8608   4.366   0.031   8.013 -1.5802  1.3017 -2.3752
   83CHL1  H23B 8609   4.421   0.182   8.106  0.5520 -0.1343 -1.2169
   83CHL1   C24 8610   4.362   0.009   8.224  0.7519  0.3109  0.0017
   83CHL1  H24A 8611   4.362   0.068   8.318 -1.5866  0.3566  0.0136
   83CHL1  H24B 8612   4.275  -0.060   8.232  0.7062  0.0605 -2.3242
   83CHL1   C25 8613   4.486  -0.074   8.216 -0.0437  1.0456  0.4599
   83CHL1   H25 8614   4.566  -0.006   8.180  0.8298  1.0209  2.2992
   83CHL1   C26 8615   4.534  -0.122   8.353 -0.3516 -0.0520 -0.9030
   83CHL1  H26A 8616   4.555  -0.039   8.424 -0.5470 -3.0689  2.8234
   83CHL1  H26B 8617   4.464  -0.193   8.404 -0.6185 -0.6240 -2.0499
   83CHL1  H26C 8618   4.629  -0.175   8.333 -0.0483  0.9505 -2.1436
   83CHL1   C27 8619   4.466  -0.196   8.122 -0.2473 -0.3160 -0.0599
   83CHL1  H27A 8620   4.460  -0.158   8.018  0.1501  2.5520  0.9344
   83CHL1  H27B 8621   4.548  -0.267   8.144 -0.6712 -0.6352  0.5150
   83CHL1  H27C 8622   4.374  -0.252   8.151 -1.3752  0.2285 -2.4114
   84CHL1    C3 8623   6.384   2.893   6.984 -0.0136  1.1542 -0.2028
   84CHL1    H3 8624   6.480   2.946   7.005 -1.0308  3.2220 -0.6485
   84CHL1    O3 8625   6.367   2.884   6.844 -0.4410  0.1419 -0.1448
   84CHL1   H3' 8626   6.280   2.844   6.845 -0.7228  0.7621  0.7136
   84CHL1    C4 8627   6.402   2.750   7.050  0.0037 -0.0869 -0.1669
   84CHL1   H4A 8628   6.326   2.678   7.014 -0.3621  0.7838 -1.1827
   84CHL1   H4B 8629   6.493   2.708   7.003  0.9095  0.1067  1.3822
   84CHL1    C5 8630   6.415   2.763   7.200  0.2779 -0.8008  0.3555
   84CHL1    C6 8631   6.525   2.714   7.267  0.7074 -0.1032  0.0247
   84CHL1    H6 8632   6.602   2.663   7.206 -0.0042 -0.6540 -0.4287
   84CHL1    C7 8633   6.536   2.726   7.413  0.1208 -0.4007  0.4117
   84CHL1   H7A 8634   6.590   2.638   7.455  0.7662  1.0245  2.6392
   84CHL1   H7B 8635   6.610   2.807   7.430 -1.2576  0.6857  1.3592
   84CHL1    C8 8636   6.399   2.754   7.479 -0.0732  0.4525 -0.9059
   84CHL1    H8 8637   6.334   2.665   7.479 -0.1541  0.5049  0.1084
   84CHL1   C14 8638   6.441   2.789   7.621  0.5022 -0.2097 -0.2756
   84CHL1   H14 8639   6.505   2.880   7.613  1.0490 -0.4911  0.7509
   84CHL1   C15 8640   6.515   2.692   7.710 -0.4848  0.3548 -0.5362
   84CHL1  H15A 8641   6.466   2.594   7.690 -2.2723  0.9392  0.8216
   84CHL1  H15B 8642   6.619   2.685   7.672  0.5437  2.4319  1.7498
   84CHL1   C16 8643   6.502   2.741   7.849 -0.4955  0.3867 -0.0706
   84CHL1  H16A 8644   6.474   2.661   7.920  0.5256  0.2582  0.1919
   84CHL1  H16B 8645   6.588   2.803   7.882  0.2931  0.1235 -1.5841
   84CHL1   C17 8646   6.384   2.850   7.852 -0.6042 -0.6338  0.4908
   84CHL1   H17 8647   6.432   2.950   7.843 -1.1676 -0.1696  2.3313
   84CHL1   C13 8648   6.317   2.833   7.709  0.3533  0.2879 -0.3795
   84CHL1   C18 8649   6.214   2.715   7.720 -0.0504 -0.1311 -0.2204
   84CHL1  H18A 8650   6.258   2.615   7.741 -2.2922 -1.7897 -3.0086
   84CHL1  H18B 8651   6.132   2.730   7.793  1.5200  1.8498  1.1888
   84CHL1  H18C 8652   6.168   2.709   7.619 -0.3728  2.3904 -0.2416
   84CHL1   C12 8653   6.254   2.961   7.646 -0.0117 -0.3086  0.3548
   84CHL1  H12A 8654   6.158   2.995   7.692  0.3312 -0.6871  1.3540
   84CHL1  H12B 8655   6.329   3.042   7.658 -2.0954  1.6634  0.3944
   84CHL1   C11 8656   6.221   2.944   7.501  0.0975  0.6911  0.1852
   84CHL1  H11A 8657   6.128   2.884   7.505 -0.1353  1.1645  2.0417
   84CHL1  H11B 8658   6.191   3.042   7.457  0.6795  1.4758  1.5135
   84CHL1    C9 8659   6.333   2.872   7.414  0.5660  0.1194 -0.2731
   84CHL1    H9 8660   6.412   2.950   7.415 -0.8447  1.5929  2.9678
   84CHL1   C10 8661   6.296   2.842   7.268  0.4689 -0.3258  0.3085
   84CHL1   C19 8662   6.167   2.759   7.271 -0.3114  0.5359 -0.0494
   84CHL1  H19A 8663   6.146   2.711   7.173 -0.0856 -1.5893  0.9218
   84CHL1  H19B 8664   6.160   2.665   7.330  0.8633  0.0115 -0.7204
   84CHL1  H19C 8665   6.087   2.828   7.306  1.4680  3.6078 -1.7941
   84CHL1    C1 8666   6.278   2.979   7.197 -0.1739 -0.3575 -0.0985
   84CHL1   H1A 8667   6.191   3.036   7.236 -0.4333 -0.4265 -0.5747
   84CHL1   H1B 8668   6.365   3.044   7.222 -0.4634 -0.3468  0.9185
   84CHL1    C2 8669   6.264   2.968   7.047  0.7692 -0.6501 -0.9845
   84CHL1   H2A 8670   6.265   3.071   7.005 -3.4959 -0.2903 -0.4536
   84CHL1   H2B 8671   6.169   2.919   7.017 -1.1341  0.9158  2.1444
   84CHL1   C20 8672   6.297   2.841   7.976 -0.1762 -0.6343 -0.1285
   84CHL1   H20 8673   6.254   2.740   7.991 -2.1737  0.3244  0.8356
   84CHL1   C21 8674   6.179   2.938   7.983  0.7346  0.4604 -0.4567
   84CHL1  H21A 8675   6.224   3.040   7.974 -0.9672  1.2358 -0.2696
   84CHL1  H21B 8676   6.127   2.928   8.081 -1.3461 -1.0195 -1.6803
   84CHL1  H21C 8677   6.105   2.936   7.901  0.6635  0.7483 -0.3971
   84CHL1   C22 8678   6.388   2.859   8.095 -0.3733  0.0531 -0.4503
   84CHL1  H22A 8679   6.489   2.814   8.083  0.7799  2.2109  0.8001
   84CHL1  H22B 8680   6.393   2.969   8.104 -1.7064  0.0272  0.6995
   84CHL1   C23 8681   6.334   2.808   8.229 -0.4943  0.1305 -0.5442
   84CHL1  H23A 8682   6.230   2.845   8.244  0.3298  3.1723 -2.0870
   84CHL1  H23B 8683   6.338   2.697   8.219  0.6874  0.1619 -0.4525
   84CHL1   C24 8684   6.409   2.856   8.346 -0.0930  0.2600  0.3162
   84CHL1  H24A 8685   6.516   2.825   8.345 -0.5162 -1.3328  1.3648
   84CHL1  H24B 8686   6.417   2.967   8.346  0.2599  0.2444 -2.1149
   84CHL1   C25 8687   6.359   2.806   8.486  0.7965 -1.0124 -0.0788
   84CHL1   H25 8688   6.250   2.809   8.469  0.6699 -1.8124  0.5523
   84CHL1   C26 8689   6.401   2.656   8.494  0.3814  0.3769  0.4065
   84CHL1  H26A 8690   6.387   2.617   8.598  1.5274 -0.5680  0.2207
   84CHL1  H26B 8691   6.362   2.588   8.416  1.2968 -0.4882  0.6840
   84CHL1  H26C 8692   6.510   2.649   8.471 -0.3622 -0.6402 -3.0708
   84CHL1   C27 8693   6.401   2.889   8.611  0.0713  0.4089 -0.4939
   84CHL1  H27A 8694   6.378   2.839   8.708 -1.0679  0.6544 -0.6289
   84CHL1  H27B 8695   6.509   2.914   8.610  0.5754 -1.6654 -1.1224
   84CHL1  H27C 8696   6.341   2.983   8.614  1.1176  1.0964 -1.1002
   85CHL1    C3 8697   6.226   6.565   6.642 -0.0822 -0.5745  0.6248
   85CHL1    H3 8698   6.174   6.662   6.656  0.0659 -0.4825  0.5420
   85CHL1    O3 8699   6.226   6.523   6.507  0.0340 -0.4886  0.5004
   85CHL1   H3' 8700   6.136   6.535   6.477  0.9132 -0.0546 -2.0868
   85CHL1    C4 8701   6.369   6.579   6.696 -0.2178 -0.2658 -1.1173
   85CHL1   H4A 8702   6.436   6.490   6.695 -1.5269 -1.2877 -0.6561
   85CHL1   H4B 8703   6.429   6.652   6.638 -0.0596 -0.1734 -0.8352
   85CHL1    C5 8704   6.349   6.629   6.838  0.0038  0.8258  0.5010
   85CHL1    C6 8705   6.387   6.748   6.885  0.4615 -0.2715 -0.0075
   85CHL1    H6 8706   6.426   6.822   6.814  0.9294 -0.3185  0.1968
   85CHL1    C7 8707   6.374   6.800   7.024 -0.0250  0.0865  0.1677
   85CHL1   H7A 8708   6.459   6.868   7.043  0.8707 -1.0002  0.1125
   85CHL1   H7B 8709   6.283   6.861   7.045 -0.1519 -0.5823  1.6029
   85CHL1    C8 8710   6.362   6.676   7.121  0.5121 -0.2827 -0.0858
   85CHL1    H8 8711   6.461   6.627   7.124  1.0133  0.7907  4.7552
   85CHL1   C14 8712   6.334   6.731   7.267 -0.2429  0.4085  0.1478
   85CHL1   H14 8713   6.235   6.779   7.253  0.0111  0.6052 -1.0199
   85CHL1   C15 8714   6.428   6.844   7.319 -0.2005  0.0223 -0.5734
   85CHL1  H15A 8715   6.532   6.806   7.323 -0.6098 -1.0718  0.3419
   85CHL1  H15B 8716   6.424   6.938   7.261  1.6973  0.9918  0.8120
   85CHL1   C16 8717   6.392   6.846   7.468 -0.2608 -0.0292 -0.1240
   85CHL1  H16A 8718   6.482   6.840   7.532 -0.2905 -0.0510 -0.0831
   85CHL1  H16B 8719   6.341   6.942   7.490  0.1371 -0.0035  0.7011
   85CHL1   C17 8720   6.295   6.733   7.492 -0.4218  0.0693 -0.6264
   85CHL1   H17 8721   6.198   6.785   7.479 -1.4893 -1.6758  0.1753
   85CHL1   C13 8722   6.312   6.633   7.373  0.0234  0.2633 -0.1549
   85CHL1   C18 8723   6.439   6.549   7.397  0.1180 -0.2202  0.4331
   85CHL1  H18A 8724   6.530   6.605   7.428 -0.5524  0.0014  2.0196
   85CHL1  H18B 8725   6.411   6.470   7.470  0.0613  0.9093  1.6396
   85CHL1  H18C 8726   6.471   6.510   7.298  0.9470 -2.6572  1.6033
   85CHL1   C12 8727   6.194   6.541   7.329  0.4293  0.3560 -0.0742
   85CHL1  H12A 8728   6.188   6.448   7.389 -1.9528 -0.9498 -2.2465
   85CHL1  H12B 8729   6.091   6.582   7.327  0.5450  0.7277  1.1457
   85CHL1   C11 8730   6.220   6.486   7.185 -0.1417  0.5433  0.1294
   85CHL1  H11A 8731   6.298   6.408   7.192  1.0440  1.7561  0.7032
   85CHL1  H11B 8732   6.124   6.441   7.152  1.1171 -2.2349  0.1712
   85CHL1    C9 8733   6.260   6.582   7.074  0.4178 -0.4626 -0.1990
   85CHL1    H9 8734   6.176   6.654   7.065 -0.2305 -1.4896 -3.4426
   85CHL1   C10 8735   6.291   6.526   6.932  0.2118 -0.3617  0.4626
   85CHL1   C19 8736   6.383   6.406   6.944  0.0528 -0.2585  0.6568
   85CHL1  H19A 8737   6.460   6.426   7.021  0.7738  0.5332 -0.2651
   85CHL1  H19B 8738   6.326   6.312   6.964 -0.0186 -0.3381  0.0985
   85CHL1  H19C 8739   6.438   6.370   6.855 -1.8468 -0.7498 -0.3393
   85CHL1    C1 8740   6.149   6.500   6.865 -0.1816 -0.2544 -0.0317
   85CHL1   H1A 8741   6.097   6.427   6.930  1.1346  0.1671  1.5132
   85CHL1   H1B 8742   6.084   6.589   6.881 -0.8976 -0.3583 -2.1570
   85CHL1    C2 8743   6.147   6.459   6.720  0.2736  0.1473  0.4485
   85CHL1   H2A 8744   6.053   6.433   6.667  1.2475 -1.2720 -0.6341
   85CHL1   H2B 8745   6.207   6.365   6.713 -0.2877 -0.3726  2.4677
   85CHL1   C20 8746   6.292   6.674   7.634 -1.0212 -0.0047 -1.1760
   85CHL1   H20 8747   6.397   6.645   7.653 -1.2175 -0.9508 -1.5437
   85CHL1   C21 8748   6.196   6.554   7.635 -0.0520  0.4284  0.1737
   85CHL1  H21A 8749   6.103   6.577   7.580  0.6606  0.1169 -1.1748
   85CHL1  H21B 8750   6.170   6.525   7.739  1.5987  1.0502  0.7851
   85CHL1  H21C 8751   6.235   6.465   7.581 -0.2666  0.8675 -0.7091
   85CHL1   C22 8752   6.255   6.778   7.738  0.3953 -0.1310  0.6143
   85CHL1  H22A 8753   6.306   6.873   7.711  2.8967 -1.4123  0.7480
   85CHL1  H22B 8754   6.146   6.798   7.728  0.4461  0.7702  1.8115
   85CHL1   C23 8755   6.295   6.739   7.881 -0.2762 -1.1314  0.2846
   85CHL1  H23A 8756   6.252   6.639   7.902 -4.2974  0.0853 -1.5478
   85CHL1  H23B 8757   6.405   6.730   7.893  0.0061  0.3455 -1.0888
   85CHL1   C24 8758   6.241   6.851   7.968 -0.7809  0.1186 -0.1746
   85CHL1  H24A 8759   6.276   6.945   7.919 -0.2870 -0.0158 -0.0860
   85CHL1  H24B 8760   6.130   6.852   7.974 -0.8609 -0.3173 -1.5462
   85CHL1   C25 8761   6.300   6.854   8.108  0.5305 -0.4251 -0.4341
   85CHL1   H25 8762   6.410   6.841   8.098  1.0306  0.7985  2.7812
   85CHL1   C26 8763   6.255   6.987   8.179 -0.4171  0.0931  1.2472
   85CHL1  H26A 8764   6.292   6.986   8.283  0.3504  3.0973  1.0384
   85CHL1  H26B 8765   6.308   7.062   8.117 -1.1630  0.4176  0.9974
   85CHL1  H26C 8766   6.147   7.011   8.169 -0.3199 -0.3393 -1.1832
   85CHL1   C27 8767   6.251   6.729   8.186  0.2480  0.5388 -0.2895
   85CHL1  H27A 8768   6.293   6.642   8.132  0.4668 -0.3606  1.3016
   85CHL1  H27B 8769   6.283   6.728   8.293 -0.2381  2.9561 -0.1020
   85CHL1  H27C 8770   6.142   6.713   8.195  0.6515 -1.1267  2.1269
   86CHL1    C3 8771   1.432   5.081   7.036 -0.5921 -0.4686 -0.8742
   86CHL1    H3 8772   1.511   5.006   7.060 -0.3296 -0.2189 -0.9554
   86CHL1    O3 8773   1.392   5.100   6.902  0.1350 -0.7531 -0.2504
   86CHL1   H3' 8774   1.362   5.189   6.880  0.0694 -1.5630 -3.7909
   86CHL1    C4 8775   1.307   5.057   7.119 -0.7432 -0.5941 -0.0771
   86CHL1   H4A 8776   1.220   5.121   7.092 -0.6438 -0.4611 -0.0819
   86CHL1   H4B 8777   1.273   4.957   7.085  2.3067 -2.2165  1.3859
   86CHL1    C5 8778   1.331   5.064   7.267  0.3666  0.5737 -0.7689
   86CHL1    C6 8779   1.304   4.959   7.352 -0.0875 -0.3228  0.2682
   86CHL1    H6 8780   1.259   4.871   7.305  0.1863 -0.1402 -0.3468
   86CHL1    C7 8781   1.334   4.960   7.498 -0.5205 -0.1713  0.0635
   86CHL1   H7A 8782   1.245   4.919   7.550 -0.7732  1.6286  1.0907
   86CHL1   H7B 8783   1.420   4.900   7.533  0.1886  0.2001 -0.9963
   86CHL1    C8 8784   1.354   5.101   7.557 -0.4070 -1.4045  0.7227
   86CHL1    H8 8785   1.256   5.152   7.550 -0.1434 -1.0688 -0.8405
   86CHL1   C14 8786   1.410   5.097   7.699 -0.3211 -0.5333  0.3901
   86CHL1   H14 8787   1.508   5.044   7.697 -1.0199 -1.8490  0.4779
   86CHL1   C15 8788   1.329   5.010   7.796  0.0463 -0.4428 -0.0715
   86CHL1  H15A 8789   1.220   5.033   7.788  0.1261  1.0010  2.5124
   86CHL1  H15B 8790   1.334   4.900   7.782 -2.3236 -0.3518 -1.8790
   86CHL1   C16 8791   1.377   5.049   7.935 -0.0510  0.5987 -0.2473
   86CHL1  H16A 8792   1.290   5.068   8.002 -0.8806  1.0592 -1.4228
   86CHL1  H16B 8793   1.428   4.966   7.988 -0.2491 -0.3317 -1.4851
   86CHL1   C17 8794   1.476   5.171   7.914  0.3866 -0.8492 -0.6764
   86CHL1   H17 8795   1.573   5.120   7.895 -0.3356 -1.5453 -2.6536
   86CHL1   C13 8796   1.435   5.232   7.776  0.2831 -0.6537  0.6741
   86CHL1   C18 8797   1.295   5.316   7.782  0.3925  0.4878 -0.0214
   86CHL1  H18A 8798   1.258   5.349   7.683  1.0251  0.7340 -0.1751
   86CHL1  H18B 8799   1.215   5.254   7.829  1.9234 -1.3861  0.1693
   86CHL1  H18C 8800   1.309   5.414   7.832 -0.5437  0.6457 -0.0502
   86CHL1   C12 8801   1.540   5.306   7.691  0.2999 -0.5634  1.2639
   86CHL1  H12A 8802   1.558   5.412   7.720  0.9791 -0.1867 -0.4949
   86CHL1  H12B 8803   1.639   5.256   7.693 -0.3049 -1.8037  0.8234
   86CHL1   C11 8804   1.501   5.307   7.540 -0.4149 -0.5598  0.0938
   86CHL1  H11A 8805   1.430   5.390   7.519 -0.6958 -0.9110 -0.3670
   86CHL1  H11B 8806   1.597   5.338   7.492 -1.2751 -0.0282 -1.3293
   86CHL1    C9 8807   1.457   5.175   7.469 -0.2458  0.8481 -0.3567
   86CHL1    H9 8808   1.549   5.114   7.462  0.3428  1.5136  1.3521
   86CHL1   C10 8809   1.405   5.187   7.320  1.0617 -0.2370  0.7363
   86CHL1   C19 8810   1.304   5.307   7.316  0.1166 -0.2232 -0.1646
   86CHL1  H19A 8811   1.360   5.401   7.294  2.5998 -1.3547  1.0539
   86CHL1  H19B 8812   1.226   5.285   7.241  0.4085 -0.3204 -0.4442
   86CHL1  H19C 8813   1.255   5.301   7.416  0.3109  0.6483 -0.0057
   86CHL1    C1 8814   1.526   5.222   7.226 -0.6366  0.5330  0.2293
   86CHL1   H1A 8815   1.568   5.323   7.241  0.8464 -0.4178  2.6727
   86CHL1   H1B 8816   1.602   5.143   7.247 -1.0366 -0.3449 -1.4994
   86CHL1    C2 8817   1.496   5.214   7.074 -0.5391 -0.3819  0.3962
   86CHL1   H2A 8818   1.593   5.228   7.022 -1.3322  0.6229 -0.8533
   86CHL1   H2B 8819   1.417   5.289   7.055 -0.3512 -0.5641 -1.1876
   86CHL1   C20 8820   1.492   5.266   8.030  0.3682  0.4473 -0.5491
   86CHL1   H20 8821   1.454   5.368   8.007 -1.5489  0.7639  3.5143
   86CHL1   C21 8822   1.641   5.274   8.068  0.1462  0.3607  0.6831
   86CHL1  H21A 8823   1.653   5.342   8.155 -0.8976  0.3660  0.8340
   86CHL1  H21B 8824   1.691   5.323   7.982 -1.7618  1.8950  0.3931
   86CHL1  H21C 8825   1.685   5.175   8.089  0.1163  0.4020  0.9417
   86CHL1   C22 8826   1.408   5.233   8.151  0.0790 -0.0405  0.9699
   86CHL1  H22A 8827   1.307   5.268   8.122 -0.0505 -1.1800  0.0132
   86CHL1  H22B 8828   1.405   5.127   8.181 -0.7421 -0.1401  0.5503
   86CHL1   C23 8829   1.432   5.317   8.269 -0.3155  0.1922 -0.2862
   86CHL1  H23A 8830   1.522   5.276   8.321 -0.5086  0.0101 -0.0943
   86CHL1  H23B 8831   1.458   5.423   8.248  0.6579  0.1959  0.8945
   86CHL1   C24 8832   1.321   5.313   8.379 -0.0861 -0.4464 -0.0309
   86CHL1  H24A 8833   1.236   5.364   8.330  0.7969  0.9037 -0.1957
   86CHL1  H24B 8834   1.289   5.209   8.403 -0.5241 -0.2992  0.0167
   86CHL1   C25 8835   1.364   5.399   8.504  0.6666  0.1415 -0.4367
   86CHL1   H25 8836   1.395   5.499   8.468  1.0377 -0.1077 -0.8237
   86CHL1   C26 8837   1.238   5.407   8.597 -0.5309 -0.0275  0.0144
   86CHL1  H26A 8838   1.273   5.437   8.698 -1.1708  0.6298  0.0417
   86CHL1  H26B 8839   1.167   5.474   8.544  0.4517  1.7509  0.8704
   86CHL1  H26C 8840   1.177   5.315   8.598  1.4148 -1.3897 -2.1858
   86CHL1   C27 8841   1.471   5.325   8.588  0.0236  0.0770  0.1924
   86CHL1  H27A 8842   1.428   5.230   8.626 -0.5922 -0.6080 -2.1356
   86CHL1  H27B 8843   1.560   5.296   8.529 -1.4886 -1.6937 -1.2886
   86CHL1  H27C 8844   1.514   5.382   8.673  2.2034 -2.3750  0.8137
   87CHL1    C3 8845   1.550   3.053   7.067 -0.0383  1.0582  0.6200
   87CHL1    H3 8846   1.516   2.959   7.115  0.8377 -0.9741 -2.6181
   87CHL1    O3 8847   1.561   3.041   6.925  0.4616 -0.1364  0.0789
   87CHL1   H3' 8848   1.610   3.117   6.892  1.4795 -0.9211 -0.2558
   87CHL1    C4 8849   1.458   3.176   7.112  0.0298 -0.1735  0.6403
   87CHL1   H4A 8850   1.508   3.262   7.062  0.8625 -1.2188 -0.3696
   87CHL1   H4B 8851   1.358   3.167   7.064 -0.3576 -0.0131  1.4096
   87CHL1    C5 8852   1.454   3.187   7.265  0.4347  0.5660 -0.2354
   87CHL1    C6 8853   1.339   3.179   7.335 -0.1890 -0.3076 -0.4151
   87CHL1    H6 8854   1.252   3.165   7.270  0.1282 -0.9249 -0.7125
   87CHL1    C7 8855   1.326   3.213   7.481 -0.1076 -0.0671  0.1858
   87CHL1   H7A 8856   1.246   3.290   7.487  0.7050  1.1066 -3.0612
   87CHL1   H7B 8857   1.288   3.130   7.543  1.3147 -0.3219  0.7234
   87CHL1    C8 8858   1.461   3.261   7.534 -0.6081  0.2877 -0.6688
   87CHL1    H8 8859   1.461   3.368   7.504 -0.8776 -0.4844 -3.4913
   87CHL1   C14 8860   1.450   3.248   7.690 -0.6303 -0.3727 -0.7038
   87CHL1   H14 8861   1.436   3.140   7.712  0.3725 -0.7575 -1.8560
   87CHL1   C15 8862   1.347   3.340   7.761  0.6557  0.5463  0.1105
   87CHL1  H15A 8863   1.331   3.436   7.707  2.5953  0.5742 -0.4340
   87CHL1  H15B 8864   1.244   3.299   7.772  0.8353  0.2065  0.5210
   87CHL1   C16 8865   1.404   3.371   7.903 -0.4712 -0.3249  0.0718
   87CHL1  H16A 8866   1.424   3.479   7.922 -1.2721 -0.1066 -0.2721
   87CHL1  H16B 8867   1.339   3.343   7.988 -1.8178 -0.9371 -1.1317
   87CHL1   C17 8868   1.538   3.301   7.912 -0.4846  0.2258 -0.0824
   87CHL1   H17 8869   1.518   3.197   7.945 -0.2280  0.1941 -0.0236
   87CHL1   C13 8870   1.582   3.285   7.761  0.4098  0.1247 -0.4285
   87CHL1   C18 8871   1.629   3.427   7.726  0.7048 -0.9505 -0.2578
   87CHL1  H18A 8872   1.551   3.499   7.759  2.8941  1.5346 -0.3380
   87CHL1  H18B 8873   1.725   3.446   7.779 -0.3661  0.9951  1.0813
   87CHL1  H18C 8874   1.649   3.447   7.619 -0.7316  0.4368 -0.2804
   87CHL1   C12 8875   1.686   3.181   7.714  0.5753 -0.0381  0.4519
   87CHL1  H12A 8876   1.784   3.190   7.765  1.5102  0.4723 -1.3783
   87CHL1  H12B 8877   1.659   3.075   7.732  0.0536 -0.2829 -1.5994
   87CHL1   C11 8878   1.703   3.190   7.564  0.3651  0.3829 -0.3599
   87CHL1  H11A 8879   1.751   3.289   7.545  0.4222  0.1862 -1.2615
   87CHL1  H11B 8880   1.781   3.117   7.531  0.6718  1.1819 -1.4209
   87CHL1    C9 8881   1.573   3.175   7.475 -0.1452 -0.2366  0.7987
   87CHL1    H9 8882   1.544   3.069   7.489 -2.8705  0.3706 -0.0887
   87CHL1   C10 8883   1.592   3.200   7.325 -1.5429  0.3319 -0.9555
   87CHL1   C19 8884   1.644   3.345   7.306  0.8710  0.4946  0.0672
   87CHL1  H19A 8885   1.738   3.340   7.365  0.4811  0.9635  0.7500
   87CHL1  H19B 8886   1.661   3.375   7.200 -1.1880  0.1690 -0.3680
   87CHL1  H19C 8887   1.587   3.429   7.351 -0.3238  0.4828 -1.3908
   87CHL1    C1 8888   1.685   3.092   7.273 -0.0013  0.2117  0.7344
   87CHL1   H1A 8889   1.791   3.106   7.303 -0.1012 -1.9397  2.1876
   87CHL1   H1B 8890   1.671   2.989   7.313 -0.1382 -0.8115 -1.8272
   87CHL1    C2 8891   1.689   3.074   7.116 -0.6380 -0.2278 -0.3304
   87CHL1   H2A 8892   1.773   3.004   7.095 -0.3565  0.1267 -0.3982
   87CHL1   H2B 8893   1.722   3.168   7.068  2.1761 -1.3567 -0.7433
   87CHL1   C20 8894   1.642   3.363   8.016  0.4035 -0.1977  0.3891
   87CHL1   H20 8895   1.677   3.460   7.974  0.7414  0.5068  2.2343
   87CHL1   C21 8896   1.757   3.265   8.038  0.8619  0.4475 -0.1449
   87CHL1  H21A 8897   1.820   3.262   7.946  0.1175 -1.1618 -0.6243
   87CHL1  H21B 8898   1.734   3.158   8.057  0.1287  0.5358 -0.5254
   87CHL1  H21C 8899   1.820   3.295   8.124 -0.3198  0.7809  0.6171
   87CHL1   C22 8900   1.572   3.393   8.154  0.3955 -0.4762 -0.1512
   87CHL1  H22A 8901   1.486   3.463   8.143  1.0473  0.9391  3.3507
   87CHL1  H22B 8902   1.534   3.292   8.180  0.8551 -0.9963 -1.4510
   87CHL1   C23 8903   1.663   3.449   8.250  0.5042  0.3218  0.1089
   87CHL1  H23A 8904   1.740   3.376   8.283  0.5227  0.0808 -0.4546
   87CHL1  H23B 8905   1.717   3.537   8.208  0.6786  0.1886  0.0523
   87CHL1   C24 8906   1.579   3.488   8.374  0.4675  0.3510 -0.6295
   87CHL1  H24A 8907   1.501   3.555   8.332 -0.9552 -1.4042 -0.8387
   87CHL1  H24B 8908   1.529   3.400   8.420 -0.2861  0.7104 -0.7570
   87CHL1   C25 8909   1.656   3.556   8.485 -0.3907 -0.6981 -1.2379
   87CHL1   H25 8910   1.581   3.578   8.564  0.5486 -0.1797 -0.4707
   87CHL1   C26 8911   1.761   3.469   8.551 -0.6449 -0.5229  0.4957
   87CHL1  H26A 8912   1.718   3.377   8.596 -0.7189 -2.0426 -2.5489
   87CHL1  H26B 8913   1.845   3.444   8.484 -0.6666 -0.9303  0.6157
   87CHL1  H26C 8914   1.789   3.535   8.636  0.6124 -1.1150  0.5549
   87CHL1   C27 8915   1.712   3.692   8.433  0.4722  0.4223  0.1497
   87CHL1  H27A 8916   1.776   3.676   8.344 -2.1074  1.5325 -1.9800
   87CHL1  H27B 8917   1.620   3.749   8.404  0.2325  0.5133  1.0683
   87CHL1  H27C 8918   1.782   3.741   8.503  0.9727 -0.5897  0.3545
   88CHL1    C3 8919   5.787   1.170   6.936 -0.4578  0.9918  0.0268
   88CHL1    H3 8920   5.894   1.148   6.958 -0.9909  0.0384  1.7764
   88CHL1    O3 8921   5.756   1.164   6.797 -0.1491 -0.1016 -0.6371
   88CHL1   H3' 8922   5.661   1.170   6.789 -0.1580  0.3669 -0.2243
   88CHL1    C4 8923   5.712   1.061   7.007  0.4961 -0.9398 -0.3418
   88CHL1   H4A 8924   5.605   1.073   6.980  0.4939  0.2513  0.1436
   88CHL1   H4B 8925   5.735   0.958   6.973  0.3831 -1.1971  0.3391
   88CHL1    C5 8926   5.716   1.073   7.158 -0.1909 -0.5077 -0.5672
   88CHL1    C6 8927   5.742   0.968   7.232 -0.1727  0.0838 -0.2112
   88CHL1    H6 8928   5.759   0.877   7.172 -0.9570  1.1982 -2.1778
   88CHL1    C7 8929   5.745   0.958   7.378 -1.0369  0.9357 -0.6200
   88CHL1   H7A 8930   5.690   0.864   7.403 -1.6253  1.7877  1.3769
   88CHL1   H7B 8931   5.845   0.950   7.425 -1.1804  2.9627  0.0603
   88CHL1    C8 8932   5.662   1.078   7.436  0.1473 -0.3362 -1.1136
   88CHL1    H8 8933   5.555   1.053   7.427  0.1197 -0.4434 -0.4739
   88CHL1   C14 8934   5.699   1.083   7.587  0.5023  0.1203  0.1211
   88CHL1   H14 8935   5.809   1.097   7.596  0.6017 -0.2985 -0.4040
   88CHL1   C15 8936   5.680   0.957   7.672 -0.1688  1.0345 -0.0044
   88CHL1  H15A 8937   5.581   0.907   7.662  0.7850 -0.6348 -1.5056
   88CHL1  H15B 8938   5.758   0.883   7.642  0.6501  0.6001  3.0799
   88CHL1   C16 8939   5.679   1.009   7.818  0.0690 -0.4994  0.3654
   88CHL1  H16A 8940   5.575   0.981   7.844 -1.2292  1.1748 -2.7573
   88CHL1  H16B 8941   5.760   0.960   7.876 -0.0827 -0.4502  0.6209
   88CHL1   C17 8942   5.681   1.161   7.812  0.0714  0.2105 -0.0873
   88CHL1   H17 8943   5.784   1.201   7.830 -0.2376  0.2922  1.5675
   88CHL1   C13 8944   5.637   1.198   7.667 -0.1882  0.2455  0.5073
   88CHL1   C18 8945   5.489   1.199   7.656  0.5368 -0.0274  0.4185
   88CHL1  H18A 8946   5.441   1.265   7.731 -2.6982 -1.6552 -0.1505
   88CHL1  H18B 8947   5.452   1.221   7.553  1.4497  2.1424  0.5465
   88CHL1  H18C 8948   5.440   1.103   7.683  0.3756 -0.0338  0.1080
   88CHL1   C12 8949   5.685   1.332   7.608 -0.2784  0.1927  0.5449
   88CHL1  H12A 8950   5.618   1.412   7.646 -1.1794 -0.5391  0.5357
   88CHL1  H12B 8951   5.793   1.347   7.630 -0.1267 -0.2367  0.0973
   88CHL1   C11 8952   5.666   1.340   7.454  0.2766 -0.2720  0.6711
   88CHL1  H11A 8953   5.556   1.354   7.445 -0.3708 -4.4192  1.0685
   88CHL1  H11B 8954   5.715   1.428   7.407 -2.4832  2.0773  2.0426
   88CHL1    C9 8955   5.709   1.214   7.373 -0.1484  0.8470 -0.3888
   88CHL1    H9 8956   5.820   1.217   7.382 -0.1629 -0.3700  0.3426
   88CHL1   C10 8957   5.691   1.213   7.220  0.0851 -0.3575  0.1645
   88CHL1   C19 8958   5.545   1.253   7.192  0.5170 -0.2400  0.5283
   88CHL1  H19A 8959   5.513   1.233   7.088 -0.2135  3.8882 -0.1436
   88CHL1  H19B 8960   5.475   1.193   7.253  0.9492 -1.9896 -0.6570
   88CHL1  H19C 8961   5.526   1.363   7.198  0.3755 -0.1956 -0.5352
   88CHL1    C1 8962   5.784   1.312   7.150 -0.3591  0.2783 -0.4780
   88CHL1   H1A 8963   5.763   1.416   7.183  3.5216  0.5889  1.2369
   88CHL1   H1B 8964   5.889   1.287   7.175 -0.1450 -0.5827 -2.1885
   88CHL1    C2 8965   5.767   1.311   6.995 -0.1773 -0.2465  0.3558
   88CHL1   H2A 8966   5.853   1.369   6.957  0.0602 -1.9777 -1.8711
   88CHL1   H2B 8967   5.671   1.351   6.955 -0.5661 -1.7831 -0.3143
   88CHL1   C20 8968   5.603   1.217   7.932 -0.8811 -0.3787  0.5322
   88CHL1   H20 8969   5.498   1.180   7.929 -0.0977 -2.7956  1.8066
   88CHL1   C21 8970   5.607   1.371   7.926 -0.2007  0.3253 -0.8376
   88CHL1  H21A 8971   5.712   1.403   7.943  0.1424 -1.4320  0.4439
   88CHL1  H21B 8972   5.544   1.414   8.007 -2.4693 -2.2266 -1.2040
   88CHL1  H21C 8973   5.568   1.406   7.828 -0.0498 -1.8109 -1.6709
   88CHL1   C22 8974   5.663   1.168   8.071  0.2454  0.2489 -0.0064
   88CHL1  H22A 8975   5.670   1.058   8.081 -1.0296  0.1743  0.1486
   88CHL1  H22B 8976   5.771   1.194   8.070  0.0427  1.0921 -1.2618
   88CHL1   C23 8977   5.590   1.221   8.200  0.5795 -0.1208  0.7632
   88CHL1  H23A 8978   5.604   1.329   8.218 -0.5157  0.0646  0.5527
   88CHL1  H23B 8979   5.480   1.203   8.197  0.5813 -0.5460  2.4572
   88CHL1   C24 8980   5.627   1.150   8.336 -0.1879 -0.5185  0.1995
   88CHL1  H24A 8981   5.735   1.126   8.326  0.0627  0.4921  0.4851
   88CHL1  H24B 8982   5.605   1.216   8.423  0.6892 -0.5848  0.4699
   88CHL1   C25 8983   5.565   1.013   8.363 -0.0010 -0.0079 -0.7293
   88CHL1   H25 8984   5.604   0.947   8.282  2.5552 -1.6360  1.7323
   88CHL1   C26 8985   5.619   0.944   8.494  0.1184  0.0648 -0.3039
   88CHL1  H26A 8986   5.574   0.842   8.493  0.5596 -0.1330 -0.0383
   88CHL1  H26B 8987   5.730   0.934   8.497  0.0119 -1.5084 -1.0253
   88CHL1  H26C 8988   5.573   1.005   8.574 -0.1893  2.1559 -2.0137
   88CHL1   C27 8989   5.412   1.017   8.362  0.8093 -0.6428 -0.5270
   88CHL1  H27A 8990   5.378   1.087   8.441 -0.4238 -0.6335 -1.0634
   88CHL1  H27B 8991   5.363   1.062   8.273 -0.0353 -0.4943  0.0115
   88CHL1  H27C 8992   5.363   0.921   8.386 -0.2591  0.5209  2.1423
   89CHL1    C3 8993   2.075   4.379   7.080  0.0025  0.5636  0.1544
   89CHL1    H3 8994   2.180   4.415   7.077 -0.2119  1.0908 -2.3921
   89CHL1    O3 8995   2.022   4.387   6.945 -0.1479  0.6712  0.5575
   89CHL1   H3' 8996   2.025   4.480   6.923  2.3323  0.3191 -0.7873
   89CHL1    C4 8997   2.073   4.232   7.126  0.4695  0.1511  0.2035
   89CHL1   H4A 8998   1.977   4.184   7.098 -0.2138  1.8842 -0.5215
   89CHL1   H4B 8999   2.152   4.175   7.074 -0.1417 -1.2312  0.7607
   89CHL1    C5 9000   2.100   4.227   7.274 -0.3601 -0.1819 -0.6025
   89CHL1    C6 9001   2.202   4.146   7.322 -0.0797 -0.1331 -0.7459
   89CHL1    H6 9002   2.269   4.084   7.260 -0.9346 -3.3696  1.4487
   89CHL1    C7 9003   2.232   4.138   7.468  0.1420  0.3393  0.4039
   89CHL1   H7A 9004   2.259   4.033   7.493  2.2974  0.1577 -2.4731
   89CHL1   H7B 9005   2.314   4.206   7.501 -0.6297  0.1582  2.8444
   89CHL1    C8 9006   2.117   4.184   7.562 -0.7415  0.3574 -0.2995
   89CHL1    H8 9007   2.031   4.114   7.556 -0.8293  0.4947 -0.6944
   89CHL1   C14 9008   2.169   4.203   7.701 -0.4544  0.3803  0.6461
   89CHL1   H14 9009   2.236   4.291   7.687  0.8008 -0.0969  3.2942
   89CHL1   C15 9010   2.259   4.091   7.772  0.0105 -0.5376  0.1023
   89CHL1  H15A 9011   2.207   3.994   7.757 -3.4016  0.7613  2.7821
   89CHL1  H15B 9012   2.360   4.089   7.726 -0.6265 -0.2877 -1.3269
   89CHL1   C16 9013   2.263   4.143   7.919 -0.3067  0.0384 -0.6518
   89CHL1  H16A 9014   2.240   4.053   7.979  0.0005  0.5725  0.2766
   89CHL1  H16B 9015   2.365   4.177   7.947 -0.0923 -1.2710  0.1819
   89CHL1   C17 9016   2.168   4.264   7.924  0.0995  0.3782  0.6076
   89CHL1   H17 9017   2.223   4.358   7.903  2.0127 -0.3396  2.1903
   89CHL1   C13 9018   2.071   4.249   7.804 -0.5689 -0.3051  0.5334
   89CHL1   C18 9019   1.965   4.146   7.823  0.2971  0.1855 -0.1433
   89CHL1  H18A 9020   2.023   4.052   7.834 -0.3741 -0.1320  0.7755
   89CHL1  H18B 9021   1.911   4.172   7.917 -1.7932 -2.3944 -0.5773
   89CHL1  H18C 9022   1.894   4.145   7.737  0.8572 -0.5314 -0.5973
   89CHL1   C12 9023   2.031   4.392   7.752 -0.4400  0.2008  0.3860
   89CHL1  H12A 9024   1.961   4.442   7.822  0.7496  4.1599 -1.1576
   89CHL1  H12B 9025   2.122   4.453   7.740  0.5683 -1.2051  0.7700
   89CHL1   C11 9026   1.968   4.386   7.610  1.1116 -0.4377 -0.0316
   89CHL1  H11A 9027   1.867   4.340   7.617 -0.0427  1.7155 -1.6006
   89CHL1  H11B 9028   1.948   4.494   7.590  2.1133 -0.3665 -0.7026
   89CHL1    C9 9029   2.061   4.321   7.508 -0.1170 -0.3571 -0.1885
   89CHL1    H9 9030   2.152   4.383   7.500 -0.5881  0.1179 -2.3556
   89CHL1   C10 9031   2.011   4.316   7.359 -0.0609  0.0860  0.2946
   89CHL1   C19 9032   1.860   4.273   7.365 -0.2490 -0.1847 -0.0338
   89CHL1  H19A 9033   1.796   4.356   7.403  0.6243  1.1020 -1.3515
   89CHL1  H19B 9034   1.817   4.249   7.266  0.9005 -1.4517 -0.2365
   89CHL1  H19C 9035   1.833   4.187   7.430 -1.6678  1.7433  2.0483
   89CHL1    C1 9036   2.007   4.459   7.308  0.0771 -0.7559  0.0586
   89CHL1   H1A 9037   1.930   4.512   7.367  2.7476  0.4063  2.6153
   89CHL1   H1B 9038   2.100   4.518   7.324 -1.3759  1.8598 -0.7816
   89CHL1    C2 9039   1.982   4.467   7.159 -0.6433  0.3690  0.1658
   89CHL1   H2A 9040   1.995   4.574   7.130 -1.1127  0.6439  0.9712
   89CHL1   H2B 9041   1.875   4.439   7.146  0.1936 -3.2006  0.5157
   89CHL1   C20 9042   2.110   4.289   8.064  0.0113 -0.0847  0.5493
   89CHL1   H20 9043   2.050   4.199   8.091  1.2727 -1.4584 -1.1141
   89CHL1   C21 9044   2.006   4.401   8.073  0.3072  0.3187 -0.6804
   89CHL1  H21A 9045   1.964   4.414   8.175  0.6393  1.5644 -0.6838
   89CHL1  H21B 9046   1.917   4.369   8.014  0.0897 -2.0023  0.8507
   89CHL1  H21C 9047   2.050   4.498   8.042 -2.8330  1.8973 -0.4367
   89CHL1   C22 9048   2.225   4.307   8.169 -0.0209 -0.4699  0.2571
   89CHL1  H22A 9049   2.319   4.257   8.138  1.3599  2.3503 -0.3050
   89CHL1  H22B 9050   2.242   4.417   8.168  1.3470 -0.6495  1.4554
   89CHL1   C23 9051   2.188   4.260   8.306 -0.0770  0.4683  0.0544
   89CHL1  H23A 9052   2.080   4.236   8.319 -0.1289  0.9483  0.5273
   89CHL1  H23B 9053   2.237   4.162   8.324  2.5397  1.6308 -0.5258
   89CHL1   C24 9054   2.244   4.350   8.420 -0.5824  0.1122 -0.0996
   89CHL1  H24A 9055   2.334   4.408   8.390  0.3364 -0.7775  0.8869
   89CHL1  H24B 9056   2.170   4.427   8.452 -1.0661 -0.0633 -0.7851
   89CHL1   C25 9057   2.282   4.263   8.543 -0.0601 -0.3484  0.4663
   89CHL1   H25 9058   2.211   4.178   8.552  0.2522 -0.6881 -0.2240
   89CHL1   C26 9059   2.425   4.209   8.518  0.1097  0.3562 -0.1255
   89CHL1  H26A 9060   2.448   4.147   8.607 -1.3138  0.4787  0.3420
   89CHL1  H26B 9061   2.425   4.142   8.430 -1.5368  0.4246 -0.2002
   89CHL1  H26C 9062   2.492   4.296   8.501 -0.0738  0.4400 -0.4325
   89CHL1   C27 9063   2.267   4.348   8.660 -0.2630 -0.0869  0.4344
   89CHL1  H27A 9064   2.161   4.382   8.656  0.7005  2.9307 -4.1226
   89CHL1  H27B 9065   2.292   4.294   8.753  2.3967 -0.4462 -0.4354
   89CHL1  H27C 9066   2.331   4.439   8.651  0.7453 -1.0573 -2.7771
   90CHL1    C3 9067   1.517   6.221   6.969  0.5664 -0.0461  0.3329
   90CHL1    H3 9068   1.445   6.137   6.983  1.3495 -0.2079  3.9167
   90CHL1    O3 9069   1.558   6.237   6.837 -0.2796  0.1172  0.4970
   90CHL1   H3' 9070   1.485   6.255   6.778  0.0638  0.5170  0.1872
   90CHL1    C4 9071   1.453   6.347   7.029  0.6158  0.0765  0.2722
   90CHL1   H4A 9072   1.511   6.435   6.993 -0.0265  0.3482 -0.1058
   90CHL1   H4B 9073   1.353   6.348   6.982  0.3579 -1.1140  0.7765
   90CHL1    C5 9074   1.442   6.336   7.184  0.3737  0.5215  0.1715
   90CHL1    C6 9075   1.333   6.366   7.251  0.1191 -0.0642  0.4483
   90CHL1    H6 9076   1.240   6.395   7.199 -0.7940  0.1684  2.1583
   90CHL1    C7 9077   1.314   6.382   7.401 -1.4266 -0.0028 -0.5860
   90CHL1   H7A 9078   1.263   6.473   7.437  0.8047  1.0343  0.0811
   90CHL1   H7B 9079   1.249   6.300   7.438 -1.4294  0.4999  0.5646
   90CHL1    C8 9080   1.455   6.380   7.472 -0.1037 -0.1940  0.1384
   90CHL1    H8 9081   1.505   6.478   7.453 -0.7679  0.3882  1.3198
   90CHL1   C14 9082   1.441   6.363   7.621 -0.2005  0.7012 -0.0127
   90CHL1   H14 9083   1.388   6.267   7.636  3.1536 -0.6004  4.3710
   90CHL1   C15 9084   1.351   6.460   7.703 -0.1541  0.1889 -0.6516
   90CHL1  H15A 9085   1.379   6.565   7.680 -1.2459  1.2916  2.7338
   90CHL1  H15B 9086   1.242   6.445   7.689  0.2284 -2.9286 -0.6661
   90CHL1   C16 9087   1.398   6.440   7.848  0.1870 -0.1665  0.1665
   90CHL1  H16A 9088   1.422   6.537   7.895  0.9645 -0.8515  1.1989
   90CHL1  H16B 9089   1.321   6.385   7.907 -1.0632  3.0088  1.5597
   90CHL1   C17 9090   1.518   6.336   7.844  0.0322  0.0802  0.5128
   90CHL1   H17 9091   1.472   6.235   7.843 -0.6525  0.4006 -2.1213
   90CHL1   C13 9092   1.569   6.349   7.704 -0.4365  0.3929  0.5351
   90CHL1   C18 9093   1.656   6.481   7.695  0.0854  0.2979  0.6880
   90CHL1  H18A 9094   1.594   6.557   7.748  0.9107  0.4488  1.4455
   90CHL1  H18B 9095   1.748   6.468   7.756  1.3066 -0.0735 -1.1709
   90CHL1  H18C 9096   1.671   6.501   7.587  0.6062  1.8513  1.0308
   90CHL1   C12 9097   1.629   6.224   7.640 -0.5232  0.0617 -0.5394
   90CHL1  H12A 9098   1.725   6.212   7.695 -1.5072  1.3651  1.5249
   90CHL1  H12B 9099   1.553   6.145   7.653  0.5059 -0.9643 -0.6691
   90CHL1   C11 9100   1.662   6.232   7.490 -0.2037 -0.0891  0.5300
   90CHL1  H11A 9101   1.733   6.316   7.477 -1.6353  1.1382  0.5354
   90CHL1  H11B 9102   1.700   6.130   7.467 -0.6002 -0.0623 -0.2787
   90CHL1    C9 9103   1.537   6.269   7.405 -0.3982 -0.5812 -0.0721
   90CHL1    H9 9104   1.474   6.177   7.408 -2.2849  0.7074  0.4572
   90CHL1   C10 9105   1.566   6.293   7.256  0.2620 -0.8719  0.1480
   90CHL1   C19 9106   1.676   6.404   7.244 -0.2726 -0.4748 -0.3107
   90CHL1  H19A 9107   1.652   6.483   7.319  0.9299  0.1421 -0.5603
   90CHL1  H19B 9108   1.781   6.370   7.260  0.8481  2.6378 -0.7071
   90CHL1  H19C 9109   1.678   6.447   7.141  1.2068  0.1328 -0.0409
   90CHL1    C1 9110   1.613   6.155   7.191 -0.7124 -0.1877  0.1687
   90CHL1   H1A 9111   1.705   6.119   7.241 -0.5891  1.5166  1.2087
   90CHL1   H1B 9112   1.549   6.064   7.200 -1.0201  0.2081  2.2569
   90CHL1    C2 9113   1.643   6.160   7.040  0.0188  0.2980 -0.4728
   90CHL1   H2A 9114   1.664   6.055   7.010  0.6055  0.2829 -0.0238
   90CHL1   H2B 9115   1.731   6.227   7.029 -0.7494  0.9594 -2.9696
   90CHL1   C20 9116   1.607   6.353   7.966  0.8105  0.4745 -0.4938
   90CHL1   H20 9117   1.668   6.445   7.952  0.1968  0.9180 -0.2841
   90CHL1   C21 9118   1.716   6.245   7.973  0.1963  0.3080  0.6916
   90CHL1  H21A 9119   1.667   6.146   7.988  0.1075  0.3128  0.4276
   90CHL1  H21B 9120   1.770   6.263   8.069  1.5874  2.4589 -0.4674
   90CHL1  H21C 9121   1.794   6.246   7.894 -0.7316  2.5799 -0.2349
   90CHL1   C22 9122   1.539   6.369   8.104  0.4142  0.4350  0.3253
   90CHL1  H22A 9123   1.615   6.398   8.179  1.0212 -1.5246  0.4955
   90CHL1  H22B 9124   1.462   6.449   8.097  0.6544  0.4984 -2.3713
   90CHL1   C23 9125   1.460   6.243   8.145 -0.0182 -0.5702 -0.2614
   90CHL1  H23A 9126   1.405   6.220   8.052 -0.2572  3.2703 -1.1511
   90CHL1  H23B 9127   1.518   6.154   8.179  0.6417  0.3423  1.0386
   90CHL1   C24 9128   1.362   6.271   8.262 -0.0226 -0.0406  0.4684
   90CHL1  H24A 9129   1.282   6.335   8.220  0.2900 -0.6097 -1.0232
   90CHL1  H24B 9130   1.323   6.170   8.290  1.1390 -0.1575  1.7420
   90CHL1   C25 9131   1.429   6.320   8.392  1.1118 -0.7354  0.2468
   90CHL1   H25 9132   1.461   6.426   8.378 -1.5300  0.3112  1.6998
   90CHL1   C26 9133   1.328   6.304   8.506  0.1516 -0.5721  0.7252
   90CHL1  H26A 9134   1.295   6.198   8.510 -1.4882 -0.0293  2.7608
   90CHL1  H26B 9135   1.359   6.341   8.606  1.0008  0.4923  0.0748
   90CHL1  H26C 9136   1.243   6.372   8.482  0.1783 -1.2032 -1.3344
   90CHL1   C27 9137   1.551   6.235   8.429 -0.2637  0.1331 -0.2405
   90CHL1  H27A 9138   1.598   6.261   8.526 -2.2561 -1.2447  1.1427
   90CHL1  H27B 9139   1.532   6.125   8.434 -1.4930  0.3510 -0.0631
   90CHL1  H27C 9140   1.631   6.246   8.352 -2.2963  0.9314 -2.3013
   91CHL1    C3 9141   2.619   0.476   7.324 -0.3773  0.4542 -0.0685
   91CHL1    H3 9142   2.537   0.400   7.329  1.5340 -1.5507  1.5544
   91CHL1    O3 9143   2.648   0.498   7.190 -0.1111  0.0735  0.5892
   91CHL1   H3' 9144   2.709   0.572   7.189  0.4124 -0.3187 -2.6288
   91CHL1    C4 9145   2.558   0.597   7.393  0.0090 -0.3368  0.1605
   91CHL1   H4A 9146   2.631   0.679   7.376  0.5823 -0.7170  0.7716
   91CHL1   H4B 9147   2.471   0.633   7.334 -0.1059 -1.1424 -0.1629
   91CHL1    C5 9148   2.524   0.575   7.536 -0.6027  0.4236  0.3378
   91CHL1    C6 9149   2.397   0.581   7.580  0.3886 -0.2398  0.4250
   91CHL1    H6 9150   2.322   0.611   7.505 -2.1396 -2.0148  2.1526
   91CHL1    C7 9151   2.350   0.534   7.718  0.0846  0.4921 -0.2527
   91CHL1   H7A 9152   2.284   0.612   7.761  0.7576  0.3622  1.0265
   91CHL1   H7B 9153   2.299   0.436   7.730 -2.3452  1.7422 -0.0350
   91CHL1    C8 9154   2.461   0.541   7.824  0.0548  0.2871 -0.8370
   91CHL1    H8 9155   2.484   0.648   7.839  0.1154  0.2672 -0.7891
   91CHL1   C14 9156   2.421   0.482   7.964  0.0070  0.6577  0.3340
   91CHL1   H14 9157   2.395   0.375   7.948 -0.7607  0.2439  3.7848
   91CHL1   C15 9158   2.304   0.554   8.032 -0.7355  0.2696 -0.5913
   91CHL1  H15A 9159   2.312   0.664   8.043 -0.0701  0.1157  0.5396
   91CHL1  H15B 9160   2.204   0.538   7.986 -0.0984 -1.0338 -1.5681
   91CHL1   C16 9161   2.306   0.489   8.174 -0.0527  0.4645 -0.0660
   91CHL1  H16A 9162   2.296   0.576   8.242  1.6324  0.3769  0.3226
   91CHL1  H16B 9163   2.244   0.400   8.199  2.1421 -1.7914 -2.3879
   91CHL1   C17 9164   2.456   0.429   8.192  0.4375 -0.8632  0.0183
   91CHL1   H17 9165   2.443   0.321   8.172 -1.6540 -0.6258 -0.0510
   91CHL1   C13 9166   2.542   0.476   8.064  0.7320  0.6114 -1.0007
   91CHL1   C18 9167   2.594   0.614   8.100 -0.6266 -0.5402 -0.5551
   91CHL1  H18A 9168   2.632   0.667   8.009 -2.1832  0.3903 -0.6861
   91CHL1  H18B 9169   2.519   0.678   8.150 -0.9407 -1.1822 -0.2076
   91CHL1  H18C 9170   2.687   0.604   8.158 -1.0202 -1.2746 -0.0546
   91CHL1   C12 9171   2.653   0.393   7.998 -0.3285 -0.0834 -0.1847
   91CHL1  H12A 9172   2.744   0.386   8.062  0.9293  0.4836 -1.8812
   91CHL1  H12B 9173   2.615   0.293   7.971  0.3043 -0.0048 -1.3929
   91CHL1   C11 9174   2.703   0.453   7.862  0.0885  0.7133  1.1411
   91CHL1  H11A 9175   2.762   0.546   7.880  1.3520 -0.1216  1.3352
   91CHL1  H11B 9176   2.772   0.388   7.805 -0.7938  1.3754 -0.7261
   91CHL1    C9 9177   2.582   0.464   7.761 -0.0036 -0.2097  0.0225
   91CHL1    H9 9178   2.547   0.359   7.753 -0.8022 -0.0550  1.2730
   91CHL1   C10 9179   2.637   0.516   7.622  0.8592  0.8213  0.0203
   91CHL1   C19 9180   2.748   0.615   7.651 -0.1133  0.4136  0.8194
   91CHL1  H19A 9181   2.843   0.571   7.688  2.4621  2.2314 -3.2187
   91CHL1  H19B 9182   2.783   0.657   7.554 -1.7174 -0.0481  0.0234
   91CHL1  H19C 9183   2.720   0.703   7.712  2.3121  2.4488 -0.8698
   91CHL1    C1 9184   2.692   0.391   7.543  0.4735 -0.1219  0.1478
   91CHL1   H1A 9185   2.777   0.357   7.606  0.0181 -0.6303  0.4908
   91CHL1   H1B 9186   2.613   0.318   7.515 -0.6860 -0.1858  3.3045
   91CHL1    C2 9187   2.738   0.424   7.400 -0.4330  0.4422 -0.2876
   91CHL1   H2A 9188   2.775   0.325   7.364 -1.3328 -1.1736  3.0193
   91CHL1   H2B 9189   2.822   0.497   7.400 -0.3494  0.3787 -2.2448
   91CHL1   C20 9190   2.517   0.433   8.331 -0.1312  0.3572 -0.0509
   91CHL1   H20 9191   2.547   0.540   8.340 -1.0562  0.8460 -2.3132
   91CHL1   C21 9192   2.641   0.341   8.331  0.0653  0.6112  0.1508
   91CHL1  H21A 9193   2.614   0.235   8.308  0.2347  0.8749 -1.3434
   91CHL1  H21B 9194   2.685   0.338   8.433 -1.0520 -1.5579  0.5962
   91CHL1  H21C 9195   2.722   0.368   8.260 -0.4857  1.1049 -0.2952
   91CHL1   C22 9196   2.423   0.399   8.454 -0.0412 -0.4381  0.4669
   91CHL1  H22A 9197   2.319   0.440   8.455  0.4383  0.7955  1.2410
   91CHL1  H22B 9198   2.412   0.289   8.465 -0.5162 -0.5644 -1.1472
   91CHL1   C23 9199   2.489   0.437   8.589 -0.1851  0.1525  0.4020
   91CHL1  H23A 9200   2.409   0.437   8.666  2.0793 -1.8276  2.8311
   91CHL1  H23B 9201   2.553   0.355   8.628 -0.0941 -0.6923 -1.4668
   91CHL1   C24 9202   2.548   0.581   8.603 -0.5560 -0.1112 -0.2610
   91CHL1  H24A 9203   2.638   0.600   8.539  1.1806 -0.4388  2.0006
   91CHL1  H24B 9204   2.483   0.665   8.571 -0.9243 -0.8406 -1.4365
   91CHL1   C25 9205   2.600   0.594   8.743 -0.0004  0.0518  0.0622
   91CHL1   H25 9206   2.643   0.496   8.772  1.7735  1.3846  2.1241
   91CHL1   C26 9207   2.716   0.704   8.748  0.0162  1.0133 -0.0216
   91CHL1  H26A 9208   2.688   0.792   8.688  3.2244  0.2349 -2.8303
   91CHL1  H26B 9209   2.736   0.747   8.848 -0.2263  1.6655 -0.2511
   91CHL1  H26C 9210   2.812   0.661   8.711 -0.8996 -0.2894 -0.9316
   91CHL1   C27 9211   2.482   0.630   8.839 -0.2903  0.1463  0.0135
   91CHL1  H27A 9212   2.463   0.739   8.833  1.9146  0.7046  2.1518
   91CHL1  H27B 9213   2.391   0.568   8.823 -0.4737  0.7028 -1.1933
   91CHL1  H27C 9214   2.525   0.612   8.940 -0.0509  2.3938  0.3326
   92CHL1    C3 9215   6.182   2.213   6.858 -0.7179  0.1159  0.5466
   92CHL1    H3 9216   6.205   2.106   6.872  1.5603  0.5645  0.3998
   92CHL1    O3 9217   6.168   2.231   6.724  0.2655  0.0366 -0.2137
   92CHL1   H3' 9218   6.133   2.320   6.710 -0.4683 -0.4673 -1.6308
   92CHL1    C4 9219   6.044   2.250   6.920  0.6911  0.1162  0.4918
   92CHL1   H4A 9220   6.014   2.354   6.894  1.8752  0.2755 -0.2909
   92CHL1   H4B 9221   5.966   2.188   6.871 -0.5481  1.2714  0.9497
   92CHL1    C5 9222   6.050   2.227   7.074 -0.2702  0.0113  0.2054
   92CHL1    C6 9223   5.970   2.135   7.129  0.4693 -0.2206 -0.0202
   92CHL1    H6 9224   5.879   2.096   7.081 -0.4354 -0.1057  1.5642
   92CHL1    C7 9225   5.984   2.096   7.267  0.0192 -0.0321 -0.3112
   92CHL1   H7A 9226   5.882   2.092   7.312 -0.0705 -1.4093 -0.5959
   92CHL1   H7B 9227   6.018   1.990   7.269  0.5973  0.1580  1.6723
   92CHL1    C8 9228   6.069   2.198   7.359  0.0043  0.3954  0.0202
   92CHL1    H8 9229   6.011   2.290   7.379 -1.1403 -1.2018  4.7403
   92CHL1   C14 9230   6.105   2.132   7.491  0.2525 -0.1532  0.4695
   92CHL1   H14 9231   6.157   2.042   7.451  0.2601 -0.4707  1.1783
   92CHL1   C15 9232   5.983   2.081   7.571 -0.1792 -0.4076  0.0251
   92CHL1  H15A 9233   5.911   2.163   7.592 -0.2814 -0.3308 -0.6285
   92CHL1  H15B 9234   5.926   1.997   7.526 -1.1448  0.4354 -0.3518
   92CHL1   C16 9235   6.044   2.053   7.705 -0.3651 -0.7688  0.4926
   92CHL1  H16A 9236   5.976   2.084   7.786  0.7334 -0.0153  1.1442
   92CHL1  H16B 9237   6.058   1.943   7.711 -0.4333 -0.7953  0.2018
   92CHL1   C17 9238   6.185   2.119   7.711  0.4046  0.6012 -0.2765
   92CHL1   H17 9239   6.258   2.036   7.700  1.2296  1.2060  0.4821
   92CHL1   C13 9240   6.188   2.212   7.587 -0.0065 -0.6012  0.3522
   92CHL1   C18 9241   6.121   2.349   7.627 -0.2018  0.4599  0.2033
   92CHL1  H18A 9242   6.151   2.393   7.725  3.5802  0.6328 -0.9476
   92CHL1  H18B 9243   6.140   2.425   7.548  0.2971  1.5683  1.3773
   92CHL1  H18C 9244   6.010   2.347   7.632 -0.2077 -0.8021 -0.1486
   92CHL1   C12 9245   6.314   2.247   7.509  1.1343 -0.0393 -0.1820
   92CHL1  H12A 9246   6.381   2.304   7.578  0.3387  0.9430 -0.2131
   92CHL1  H12B 9247   6.360   2.149   7.488 -0.7633 -0.7265 -1.2409
   92CHL1   C11 9248   6.294   2.316   7.377  0.2629  0.1576  0.0322
   92CHL1  H11A 9249   6.258   2.420   7.392 -0.1077  0.1188 -0.5646
   92CHL1  H11B 9250   6.387   2.334   7.320  1.0970 -1.4136  0.8792
   92CHL1    C9 9251   6.200   2.235   7.283  0.3609  0.5235  0.7113
   92CHL1    H9 9252   6.252   2.141   7.254  1.4466  1.6322 -0.9858
   92CHL1   C10 9253   6.175   2.286   7.144 -0.3676  0.2553  0.1006
   92CHL1   C19 9254   6.154   2.435   7.140 -0.0080  0.8223 -0.4051
   92CHL1  H19A 9255   6.081   2.473   7.214  0.6748 -0.0158  0.7256
   92CHL1  H19B 9256   6.247   2.494   7.147  1.0684 -1.0957  2.2384
   92CHL1  H19C 9257   6.127   2.473   7.039  2.7925  0.3456 -1.3913
   92CHL1    C1 9258   6.307   2.266   7.060 -0.3324 -0.5794  0.2579
   92CHL1   H1A 9259   6.392   2.326   7.102 -0.2917  1.2251 -2.2828
   92CHL1   H1B 9260   6.328   2.157   7.062  0.1784 -0.4661  1.7166
   92CHL1    C2 9261   6.301   2.297   6.911  0.8906 -0.0064 -0.1236
   92CHL1   H2A 9262   6.391   2.251   6.866  1.6094 -0.5866  1.8631
   92CHL1   H2B 9263   6.307   2.405   6.884 -0.3640 -0.1475 -1.0221
   92CHL1   C20 9264   6.217   2.172   7.851 -0.2262 -0.4458 -0.1893
   92CHL1   H20 9265   6.128   2.226   7.890 -0.3063 -0.6715 -0.0665
   92CHL1   C21 9266   6.351   2.256   7.849  0.5040  0.2548 -0.4785
   92CHL1  H21A 9267   6.359   2.293   7.954 -0.5367 -1.6778  0.3147
   92CHL1  H21B 9268   6.347   2.340   7.777  1.0209 -0.6110 -1.5294
   92CHL1  H21C 9269   6.435   2.186   7.830  1.5393  0.4386  3.0711
   92CHL1   C22 9270   6.225   2.047   7.947 -0.3622  0.0249 -0.3097
   92CHL1  H22A 9271   6.129   1.992   7.957  0.4760 -1.6922 -1.5299
   92CHL1  H22B 9272   6.300   1.972   7.915 -1.1299 -0.6697 -0.4846
   92CHL1   C23 9273   6.271   2.079   8.086  0.3579  0.1997  0.3647
   92CHL1  H23A 9274   6.376   2.112   8.075  0.5891  0.3287  2.8114
   92CHL1  H23B 9275   6.209   2.156   8.137 -2.0514  0.6151 -2.9455
   92CHL1   C24 9276   6.279   1.947   8.168 -0.3612 -0.4525 -0.1684
   92CHL1  H24A 9277   6.176   1.910   8.187 -0.7886  1.0097  0.4370
   92CHL1  H24B 9278   6.335   1.878   8.101  0.8631  0.5808 -0.2221
   92CHL1   C25 9279   6.352   1.970   8.302  0.1930 -0.5644 -0.2834
   92CHL1   H25 9280   6.444   2.025   8.272 -0.2676  0.4444  0.1274
   92CHL1   C26 9281   6.267   2.030   8.414  0.5542  0.2015  0.2921
   92CHL1  H26A 9282   6.312   2.018   8.515  0.8142  1.9386  0.4004
   92CHL1  H26B 9283   6.227   2.128   8.379  0.0431 -0.2471 -0.4010
   92CHL1  H26C 9284   6.178   1.967   8.433 -0.1234  0.9600 -0.3120
   92CHL1   C27 9285   6.403   1.837   8.362  0.1115 -0.0599  0.6210
   92CHL1  H27A 9286   6.451   1.765   8.292  1.2224  0.5772  0.7150
   92CHL1  H27B 9287   6.480   1.859   8.439 -0.7777 -2.0090  2.1237
   92CHL1  H27C 9288   6.320   1.774   8.400 -0.4549 -0.2686 -0.9366
   93CHL1    C3 9289   4.560   0.089   6.937 -0.3555 -0.0213 -0.0661
   93CHL1    H3 9290   4.520  -0.011   6.966 -3.4723  1.5488  1.1668
   93CHL1    O3 9291   4.519   0.120   6.802 -0.1332 -0.5210  0.1957
   93CHL1   H3' 9292   4.582   0.071   6.749 -0.0334  0.4867 -0.6481
   93CHL1    C4 9293   4.498   0.192   7.040 -0.0482  0.0588  0.8343
   93CHL1   H4A 9294   4.536   0.294   7.015  0.8962 -0.4194  0.3245
   93CHL1   H4B 9295   4.388   0.193   7.026  0.0376 -2.0061 -0.1140
   93CHL1    C5 9296   4.535   0.163   7.181 -0.1319  0.1534  0.1228
   93CHL1    C6 9297   4.440   0.139   7.271 -0.2693  0.4519 -0.9163
   93CHL1    H6 9298   4.334   0.149   7.243 -0.5787 -0.3044 -0.0450
   93CHL1    C7 9299   4.456   0.095   7.413  0.9776  0.6618  1.3095
   93CHL1   H7A 9300   4.392   0.154   7.482 -1.8599  0.4574 -1.0153
   93CHL1   H7B 9301   4.424  -0.010   7.430 -2.4251  1.7686  2.1592
   93CHL1    C8 9302   4.601   0.108   7.450  1.1790  0.2832 -0.3497
   93CHL1    H8 9303   4.616   0.218   7.460 -0.0583  0.5520 -1.3038
   93CHL1   C14 9304   4.631   0.032   7.581 -0.4303 -0.0825 -0.1992
   93CHL1   H14 9305   4.624  -0.077   7.560  1.2291 -0.3482  0.5717
   93CHL1   C15 9306   4.537   0.068   7.697 -0.3899  0.6979  0.8553
   93CHL1  H15A 9307   4.503   0.173   7.688  0.8735  1.2448  2.2156
   93CHL1  H15B 9308   4.449   0.000   7.701  0.8198 -1.0629 -1.0158
   93CHL1   C16 9309   4.628   0.041   7.824  1.0716 -0.1587 -0.0551
   93CHL1  H16A 9310   4.635   0.130   7.890 -1.4878 -1.4720  2.1144
   93CHL1  H16B 9311   4.593  -0.044   7.887 -2.3067  0.7791 -0.5776
   93CHL1   C17 9312   4.772  -0.005   7.766 -0.1118 -0.3177 -0.2759
   93CHL1   H17 9313   4.768  -0.115   7.751 -1.0303 -0.0490 -2.1595
   93CHL1   C13 9314   4.783   0.063   7.621  0.5597 -0.0918  0.0436
   93CHL1   C18 9315   4.816   0.209   7.637 -0.4332  0.2430  0.1510
   93CHL1  H18A 9316   4.914   0.218   7.688 -0.4726 -1.2658  0.4980
   93CHL1  H18B 9317   4.808   0.253   7.535  3.7357  0.4322 -0.1886
   93CHL1  H18C 9318   4.743   0.259   7.704 -3.1616  2.3357 -4.1219
   93CHL1   C12 9319   4.878  -0.009   7.527 -0.4185 -0.1195 -0.3533
   93CHL1  H12A 9320   4.986   0.011   7.546 -0.6706  0.1497  0.7789
   93CHL1  H12B 9321   4.858  -0.118   7.538  2.0144 -0.4658  0.8804
   93CHL1   C11 9322   4.847   0.040   7.383  0.1835 -0.1388  0.0721
   93CHL1  H11A 9323   4.912   0.129   7.371 -0.2077  0.3546  1.4933
   93CHL1  H11B 9324   4.895  -0.032   7.313  0.3378 -1.8162  1.8777
   93CHL1    C9 9325   4.702   0.050   7.341 -0.4458  0.3574  0.5195
   93CHL1    H9 9326   4.673  -0.057   7.335  2.0666 -0.3306  0.3103
   93CHL1   C10 9327   4.676   0.123   7.207 -0.2035 -0.7104  0.4031
   93CHL1   C19 9328   4.769   0.252   7.214 -0.3549  0.5487 -0.0188
   93CHL1  H19A 9329   4.878   0.237   7.201 -0.2789  0.1043  1.1076
   93CHL1  H19B 9330   4.743   0.312   7.124  1.9921  0.7208 -0.6055
   93CHL1  H19C 9331   4.753   0.316   7.303  2.2302 -4.0470  4.0063
   93CHL1    C1 9332   4.740   0.038   7.090 -0.1721 -0.3300  0.0909
   93CHL1   H1A 9333   4.852   0.039   7.089 -0.1262  1.6881  2.1064
   93CHL1   H1B 9334   4.708  -0.068   7.103  1.6192 -1.0399 -1.0625
   93CHL1    C2 9335   4.712   0.083   6.945  0.2058 -0.2310  0.0037
   93CHL1   H2A 9336   4.752   0.015   6.868 -1.0053 -0.8244 -0.1049
   93CHL1   H2B 9337   4.760   0.183   6.935  1.5136 -0.8734 -0.2403
   93CHL1   C20 9338   4.884   0.031   7.874 -1.3258  0.6965  0.2876
   93CHL1   H20 9339   4.895   0.140   7.891 -3.1846  1.2910 -1.9522
   93CHL1   C21 9340   5.026  -0.015   7.819 -0.2530 -0.3278  0.3404
   93CHL1  H21A 9341   5.059   0.028   7.722 -2.0846  0.4228  0.0347
   93CHL1  H21B 9342   5.016  -0.126   7.813 -2.6574 -0.0828 -0.9915
   93CHL1  H21C 9343   5.103   0.015   7.893  0.9626  1.5213 -1.6058
   93CHL1   C22 9344   4.860  -0.047   8.012 -0.5397 -0.3410  0.0514
   93CHL1  H22A 9345   4.752  -0.033   8.036 -0.3695 -1.2602  1.3881
   93CHL1  H22B 9346   4.871  -0.155   7.990 -3.2072 -0.6056 -0.2593
   93CHL1   C23 9347   4.942   0.002   8.135  0.0522  0.4834  0.0989
   93CHL1  H23A 9348   5.049  -0.025   8.117  0.2753 -0.6048  2.7550
   93CHL1  H23B 9349   4.948   0.112   8.145  2.8716  0.2699  1.5062
   93CHL1   C24 9350   4.885  -0.050   8.261 -0.1924  0.4945 -0.8168
   93CHL1  H24A 9351   4.784  -0.007   8.271 -0.0341  0.7698 -0.4132
   93CHL1  H24B 9352   4.879  -0.161   8.257  0.6299  0.3977  0.2895
   93CHL1   C25 9353   4.975  -0.032   8.383 -0.0379  0.4454 -0.7447
   93CHL1   H25 9354   5.071  -0.082   8.357  0.0949  2.1974 -3.7397
   93CHL1   C26 9355   5.004   0.112   8.410 -0.0405  1.3361 -0.8176
   93CHL1  H26A 9356   5.013   0.177   8.320 -0.2082  0.1235 -1.7295
   93CHL1  H26B 9357   4.917   0.151   8.466  2.1844  2.8079  1.7269
   93CHL1  H26C 9358   5.093   0.123   8.475 -0.3395 -0.9757  0.0375
   93CHL1   C27 9359   4.915  -0.093   8.511  0.1303 -0.2873  0.7533
   93CHL1  H27A 9360   4.896  -0.202   8.496 -2.2358 -0.0135  1.5544
   93CHL1  H27B 9361   4.986  -0.075   8.595 -0.2719  0.9533  0.8415
   93CHL1  H27C 9362   4.815  -0.049   8.530 -0.1445 -0.3487 -0.5516
   94CHL1    C3 9363   0.229   2.950   6.987  0.5049  0.1572  0.0829
   94CHL1    H3 9364   0.222   3.054   7.025 -0.7030  1.3220 -3.1646
   94CHL1    O3 9365   0.226   2.948   6.846  0.4754 -0.8047  0.2033
   94CHL1   H3' 9366   0.307   2.998   6.826  0.7735 -1.7851 -1.1042
   94CHL1    C4 9367   0.362   2.901   7.037 -0.9208 -0.7199  0.4893
   94CHL1   H4A 9368   0.376   2.804   6.984 -1.5636 -0.5782  0.0537
   94CHL1   H4B 9369   0.445   2.970   7.014 -0.3069 -0.9168  2.0478
   94CHL1    C5 9370   0.355   2.875   7.188  0.1723 -0.0330 -0.3740
   94CHL1    C6 9371   0.451   2.931   7.266  0.2355  0.3059  0.5728
   94CHL1    H6 9372   0.525   3.001   7.224  0.9577  0.7666  2.5739
   94CHL1    C7 9373   0.457   2.916   7.415  0.2197  0.0072  0.3013
   94CHL1   H7A 9374   0.562   2.899   7.448  1.0215  2.3252 -0.9835
   94CHL1   H7B 9375   0.432   3.012   7.464  0.7561  0.3447 -0.0842
   94CHL1    C8 9376   0.366   2.805   7.472  0.8467  0.0635 -0.3678
   94CHL1    H8 9377   0.414   2.706   7.457  0.7903 -0.2939  1.6986
   94CHL1   C14 9378   0.334   2.821   7.613  0.2859 -0.4663  0.4817
   94CHL1   H14 9379   0.282   2.919   7.616  1.6290  0.2359  1.0656
   94CHL1   C15 9380   0.456   2.833   7.698 -0.3517  0.1461 -0.3010
   94CHL1  H15A 9381   0.524   2.751   7.666 -3.3468 -2.2151 -0.7984
   94CHL1  H15B 9382   0.508   2.931   7.688 -1.0841  0.6918  1.2005
   94CHL1   C16 9383   0.411   2.811   7.840 -1.1459  0.0549 -0.2545
   94CHL1  H16A 9384   0.452   2.719   7.886  1.0687  0.5607 -1.1028
   94CHL1  H16B 9385   0.443   2.895   7.906  1.3675 -0.3123 -0.9281
   94CHL1   C17 9386   0.259   2.791   7.823 -0.2916 -0.2301 -0.2578
   94CHL1   H17 9387   0.218   2.894   7.821  0.9817  0.3398  1.5543
   94CHL1   C13 9388   0.249   2.726   7.686  0.1881  0.5373  0.1390
   94CHL1   C18 9389   0.304   2.582   7.692  0.2525 -0.9470  0.1832
   94CHL1  H18A 9390   0.412   2.584   7.719  1.0323  1.1090 -2.8462
   94CHL1  H18B 9391   0.243   2.513   7.754 -1.8529  0.4364 -0.3190
   94CHL1  H18C 9392   0.316   2.536   7.591  1.5647 -1.0259  0.3674
   94CHL1   C12 9393   0.111   2.736   7.622 -0.3343 -0.4851  0.1811
   94CHL1  H12A 9394   0.049   2.653   7.663 -0.3393 -1.4190 -1.6426
   94CHL1  H12B 9395   0.072   2.838   7.638  2.4307  0.6662 -0.1577
   94CHL1   C11 9396   0.121   2.720   7.469 -0.2904 -0.2316  0.5518
   94CHL1  H11A 9397   0.152   2.615   7.454  2.9894  0.9700 -1.6444
   94CHL1  H11B 9398   0.022   2.742   7.424 -0.5877 -0.9648  0.8403
   94CHL1    C9 9399   0.226   2.813   7.400  0.0366 -0.0024 -0.2279
   94CHL1    H9 9400   0.190   2.915   7.424 -0.3124  0.0819 -1.1054
   94CHL1   C10 9401   0.235   2.801   7.247 -0.5366 -0.0235  0.0969
   94CHL1   C19 9402   0.253   2.651   7.213  0.1377  0.2746  0.1648
   94CHL1  H19A 9403   0.175   2.585   7.257  0.5182 -0.2355  0.0818
   94CHL1  H19B 9404   0.257   2.625   7.105  1.3421  2.4547 -0.3232
   94CHL1  H19C 9405   0.348   2.629   7.266 -0.1552 -1.2185  0.0963
   94CHL1    C1 9406   0.106   2.860   7.185  0.5730  0.5178  0.1070
   94CHL1   H1A 9407   0.020   2.799   7.221 -1.5049  2.3244 -1.6316
   94CHL1   H1B 9408   0.098   2.963   7.226  1.3712  0.8196 -0.4880
   94CHL1    C2 9409   0.104   2.871   7.040 -0.4239 -0.5783 -0.2964
   94CHL1   H2A 9410   0.009   2.915   7.004  0.0480 -0.5225 -1.5147
   94CHL1   H2B 9411   0.119   2.769   6.999  2.7935 -0.4907  0.4838
   94CHL1   C20 9412   0.191   2.722   7.945  0.3597 -0.0049 -0.1749
   94CHL1   H20 9413   0.190   2.611   7.937  0.4804  0.0257 -0.6147
   94CHL1   C21 9414   0.041   2.761   7.948 -0.2402  0.1293  0.2937
   94CHL1  H21A 9415  -0.015   2.689   8.013  0.3967  0.8679  1.6733
   94CHL1  H21B 9416  -0.005   2.754   7.847  0.7822  0.1003 -0.1756
   94CHL1  H21C 9417   0.024   2.861   7.992 -0.2597 -1.1292  3.2946
   94CHL1   C22 9418   0.238   2.748   8.088 -0.4640 -0.6420  0.2414
   94CHL1  H22A 9419   0.344   2.715   8.097  0.2117  1.4520  0.1800
   94CHL1  H22B 9420   0.234   2.858   8.098  0.0499 -0.3449 -2.4411
   94CHL1   C23 9421   0.149   2.694   8.203 -0.4080  0.4404  0.4932
   94CHL1  H23A 9422   0.065   2.765   8.222 -1.8253 -0.6955 -1.2600
   94CHL1  H23B 9423   0.103   2.598   8.169  1.6462 -0.1839 -0.5726
   94CHL1   C24 9424   0.236   2.664   8.333  0.7752  0.2194  0.4421
   94CHL1  H24A 9425   0.310   2.591   8.293  1.2670  0.0933  1.5713
   94CHL1  H24B 9426   0.283   2.757   8.370  0.7288  0.3119  0.2693
   94CHL1   C25 9427   0.150   2.602   8.441 -0.0491 -0.1200 -0.1935
   94CHL1   H25 9428   0.091   2.522   8.392  0.4239 -0.1587 -0.7013
   94CHL1   C26 9429   0.225   2.534   8.556 -0.0255 -0.1082  0.5827
   94CHL1  H26A 9430   0.153   2.479   8.620 -0.7798 -1.5288 -1.4334
   94CHL1  H26B 9431   0.305   2.465   8.520 -0.0930  0.1266 -0.0281
   94CHL1  H26C 9432   0.284   2.613   8.606  0.4367  0.7838 -1.3159
   94CHL1   C27 9433   0.046   2.700   8.501  0.4027 -0.8711  0.5544
   94CHL1  H27A 9434  -0.024   2.724   8.418  1.0057  0.0399  0.3057
   94CHL1  H27B 9435  -0.020   2.651   8.576  0.6043  1.5412  2.3493
   94CHL1  H27C 9436   0.095   2.789   8.545 -0.8584  0.6333 -1.0374
   95CHL1    C3 9437   6.523   1.857   6.731  0.3134  0.5044  0.8094
   95CHL1    H3 9438   6.633   1.843   6.720  0.4314  0.9149  1.4777
   95CHL1    O3 9439   6.453   1.862   6.611  0.4499  0.2867 -0.1574
   95CHL1   H3' 9440   6.364   1.871   6.645  0.6615  1.6529  0.0693
   95CHL1    C4 9441   6.473   1.725   6.801  0.5320  0.3667 -0.6464
   95CHL1   H4A 9442   6.362   1.726   6.802  0.5112 -0.7583  0.6922
   95CHL1   H4B 9443   6.500   1.632   6.745  1.8067  0.5771 -0.4014
   95CHL1    C5 9444   6.522   1.715   6.946 -0.3256 -0.4181  0.0670
   95CHL1    C6 9445   6.582   1.608   7.003  0.2521  0.5270  0.2953
   95CHL1    H6 9446   6.585   1.516   6.944  0.9752  0.4067  0.5190
   95CHL1    C7 9447   6.625   1.599   7.145  0.2058  0.3945  0.0433
   95CHL1   H7A 9448   6.604   1.495   7.177  1.3168  0.5768  1.3960
   95CHL1   H7B 9449   6.735   1.612   7.143  0.4212 -0.6910  2.5922
   95CHL1    C8 9450   6.577   1.706   7.234  0.3754  0.1787  0.6744
   95CHL1    H8 9451   6.467   1.705   7.254 -0.0453 -0.9327 -1.4924
   95CHL1   C14 9452   6.655   1.707   7.365  0.2428 -0.3063 -0.0452
   95CHL1   H14 9453   6.760   1.716   7.331  0.2224  0.2139  0.0220
   95CHL1   C15 9454   6.645   1.581   7.455  0.1982  0.1208 -0.1352
   95CHL1  H15A 9455   6.540   1.554   7.479  0.3343  0.6712  1.1382
   95CHL1  H15B 9456   6.687   1.485   7.420  1.0653 -0.7983  3.2113
   95CHL1   C16 9457   6.712   1.629   7.589  0.0476  0.4994  0.0752
   95CHL1  H16A 9458   6.640   1.626   7.674 -0.6584  1.3957 -0.4861
   95CHL1  H16B 9459   6.809   1.577   7.601 -0.3746  0.2407  2.5612
   95CHL1   C17 9460   6.727   1.781   7.575  0.0618 -0.7525 -0.4211
   95CHL1   H17 9461   6.827   1.803   7.534  0.6311 -3.0604 -0.3096
   95CHL1   C13 9462   6.623   1.821   7.467  0.1307  0.1359  0.7194
   95CHL1   C18 9463   6.480   1.826   7.526  0.1134  0.4327 -0.4954
   95CHL1  H18A 9464   6.467   1.920   7.583  0.7223 -1.7573  3.3760
   95CHL1  H18B 9465   6.392   1.813   7.459 -1.5669  1.0842  1.5404
   95CHL1  H18C 9466   6.469   1.747   7.602 -0.9951  2.0644  1.0774
   95CHL1   C12 9467   6.650   1.952   7.395  0.1347  1.1820  0.2718
   95CHL1  H12A 9468   6.623   2.050   7.439  0.4985  1.6030 -0.4365
   95CHL1  H12B 9469   6.757   1.952   7.365  0.2412  1.3119  0.6531
   95CHL1   C11 9470   6.575   1.958   7.264 -0.2901  0.6471 -0.4014
   95CHL1  H11A 9471   6.468   1.974   7.290 -0.2279 -1.2355  1.0999
   95CHL1  H11B 9472   6.602   2.048   7.205 -0.5566 -0.8722 -2.9508
   95CHL1    C9 9473   6.593   1.842   7.165  0.4848  0.8920 -0.3050
   95CHL1    H9 9474   6.700   1.842   7.137  0.5954 -2.2988 -0.1171
   95CHL1   C10 9475   6.507   1.852   7.029  0.3296 -0.2493 -0.0262
   95CHL1   C19 9476   6.352   1.857   7.069 -0.5710 -0.2458 -0.3457
   95CHL1  H19A 9477   6.319   1.771   7.130 -0.0574  0.6542  1.2190
   95CHL1  H19B 9478   6.338   1.937   7.144  0.0340 -0.6019  0.1550
   95CHL1  H19C 9479   6.285   1.859   6.981 -0.7977  1.8292 -0.1392
   95CHL1    C1 9480   6.551   1.979   6.948  0.3145  0.8586  0.3236
   95CHL1   H1A 9481   6.505   2.070   6.993 -0.1606 -0.3969  2.4220
   95CHL1   H1B 9482   6.662   1.990   6.943  0.2866  0.6190 -1.0740
   95CHL1    C2 9483   6.490   1.984   6.809 -0.2853  0.4550  0.6284
   95CHL1   H2A 9484   6.533   2.073   6.758 -0.8315  1.1388  1.3449
   95CHL1   H2B 9485   6.381   2.001   6.817 -0.1922  0.3857  2.2181
   95CHL1   C20 9486   6.729   1.864   7.708 -0.4908  0.9758  0.3022
   95CHL1   H20 9487   6.628   1.898   7.737 -0.5741  1.2313 -0.2936
   95CHL1   C21 9488   6.823   1.986   7.693 -0.2521  0.0181 -0.3593
   95CHL1  H21A 9489   6.804   2.061   7.773 -0.7456 -1.0271  0.5130
   95CHL1  H21B 9490   6.813   2.029   7.591 -0.6807  1.5433  0.3111
   95CHL1  H21C 9491   6.926   1.949   7.709 -0.9513 -0.9014  2.1658
   95CHL1   C22 9492   6.787   1.773   7.826 -0.5993 -0.3952  0.0007
   95CHL1  H22A 9493   6.724   1.684   7.849 -0.8795 -0.8357 -2.3445
   95CHL1  H22B 9494   6.889   1.739   7.798 -0.3612  0.4476 -0.1524
   95CHL1   C23 9495   6.790   1.841   7.962 -0.0483  0.5954  0.5594
   95CHL1  H23A 9496   6.841   1.939   7.959 -2.0998  1.7680  2.3528
   95CHL1  H23B 9497   6.685   1.868   7.988 -0.3298  0.2506 -0.1992
   95CHL1   C24 9498   6.864   1.754   8.066 -0.7780 -0.0713  0.0968
   95CHL1  H24A 9499   6.795   1.673   8.098 -0.5135 -0.7588 -1.0090
   95CHL1  H24B 9500   6.951   1.702   8.019 -2.0278 -2.7004  0.6056
   95CHL1   C25 9501   6.890   1.833   8.194 -0.1759  0.3756 -0.1463
   95CHL1   H25 9502   6.959   1.916   8.169  0.4162 -0.0352  0.0989
   95CHL1   C26 9503   6.754   1.877   8.261  0.2949  0.2158 -0.1629
   95CHL1  H26A 9504   6.791   1.910   8.361  1.6826  0.3603 -0.7187
   95CHL1  H26B 9505   6.708   1.957   8.200  0.2646 -0.1701 -0.6433
   95CHL1  H26C 9506   6.688   1.788   8.274  1.2025 -0.2732  1.2149
   95CHL1   C27 9507   6.977   1.746   8.285  0.4637 -0.3032 -0.6363
   95CHL1  H27A 9508   7.025   1.805   8.367 -1.1299  0.1842 -0.0491
   95CHL1  H27B 9509   6.923   1.660   8.329  1.5167 -1.0104 -0.6944
   95CHL1  H27C 9510   7.060   1.700   8.227  0.7905 -1.7331  0.9106
   96CHL1    C3 9511   6.700   0.799   6.642 -0.1970  0.1504 -0.2541
   96CHL1    H3 9512   6.760   0.892   6.640 -1.3048  0.9262  1.1794
   96CHL1    O3 9513   6.668   0.742   6.516  0.0105 -0.3484 -0.1466
   96CHL1   H3' 9514   6.606   0.671   6.538 -1.9645  1.7188  1.1925
   96CHL1    C4 9515   6.764   0.697   6.733 -0.2134  0.0008  0.2962
   96CHL1   H4A 9516   6.718   0.596   6.739 -1.2787  0.4456 -0.1410
   96CHL1   H4B 9517   6.865   0.671   6.697 -0.2605 -0.3476  0.4117
   96CHL1    C5 9518   6.775   0.753   6.879 -0.2089 -0.2654  0.8996
   96CHL1    C6 9519   6.898   0.778   6.935  0.3287  0.7692  0.5586
   96CHL1    H6 9520   6.987   0.759   6.874  0.1741  0.0281  0.5662
   96CHL1    C7 9521   6.924   0.831   7.069  0.4533 -0.1643 -0.4937
   96CHL1   H7A 9522   7.011   0.786   7.120 -0.1540 -1.4197 -0.5496
   96CHL1   H7B 9523   6.942   0.939   7.050 -1.1746  0.4675  1.4372
   96CHL1    C8 9524   6.788   0.827   7.152 -1.1099  0.3017  0.3189
   96CHL1    H8 9525   6.770   0.724   7.190  0.9596 -0.1888  0.0767
   96CHL1   C14 9526   6.801   0.914   7.270  0.6770  0.1949 -0.1845
   96CHL1   H14 9527   6.818   1.015   7.227  0.2560 -0.0219 -0.8550
   96CHL1   C15 9528   6.913   0.897   7.367  0.4696 -0.2371  0.7196
   96CHL1  H15A 9529   6.920   0.801   7.423  3.0780 -0.0298  0.8001
   96CHL1  H15B 9530   7.012   0.928   7.328 -0.8033 -0.0819 -2.5297
   96CHL1   C16 9531   6.885   0.993   7.484  0.0508  0.4764  0.7076
   96CHL1  H16A 9532   6.908   0.936   7.576 -2.9500 -2.2573 -0.1422
   96CHL1  H16B 9533   6.946   1.086   7.485  0.9813 -0.0971 -0.6858
   96CHL1   C17 9534   6.740   1.031   7.464 -0.0074  0.2031  0.4758
   96CHL1   H17 9535   6.754   1.123   7.404  3.7951 -2.3865 -2.8918
   96CHL1   C13 9536   6.678   0.937   7.355 -0.1095  0.0232  0.4560
   96CHL1   C18 9537   6.633   0.803   7.415  0.9219  0.4495  0.0613
   96CHL1  H18A 9538   6.550   0.823   7.485  0.0318  1.8377 -1.3375
   96CHL1  H18B 9539   6.612   0.721   7.343  1.7808  0.0283  0.2915
   96CHL1  H18C 9540   6.708   0.767   7.488  0.3921 -0.0470  0.3570
   96CHL1   C12 9541   6.561   0.997   7.273 -0.1550  0.0161 -0.0599
   96CHL1  H12A 9542   6.480   1.006   7.348  0.3633  1.6553  0.3079
   96CHL1  H12B 9543   6.591   1.097   7.235  0.7677 -0.2252  0.0052
   96CHL1   C11 9544   6.529   0.903   7.161 -0.1294  0.3458  0.1409
   96CHL1  H11A 9545   6.480   0.814   7.205  0.3071 -0.3130 -0.6780
   96CHL1  H11B 9546   6.469   0.957   7.085  0.2366 -0.5709 -0.8175
   96CHL1    C9 9547   6.660   0.868   7.079 -0.5654 -0.2498  0.6674
   96CHL1    H9 9548   6.700   0.965   7.042  0.8261 -0.7592  0.7919
   96CHL1   C10 9549   6.641   0.790   6.943  0.3436 -0.8750 -1.0265
   96CHL1   C19 9550   6.562   0.657   6.969  0.1803  0.0130  0.7180
   96CHL1  H19A 9551   6.558   0.592   6.879 -1.3739  1.2735 -0.1481
   96CHL1  H19B 9552   6.614   0.608   7.054 -0.8464 -2.0586  0.1923
   96CHL1  H19C 9553   6.458   0.683   6.998 -0.6063 -1.3546 -0.7945
   96CHL1    C1 9554   6.569   0.883   6.840  0.1727  0.0854 -0.2075
   96CHL1   H1A 9555   6.464   0.893   6.876  0.4473 -0.0422  0.6520
   96CHL1   H1B 9556   6.608   0.984   6.863  0.5442 -0.2177  0.5228
   96CHL1    C2 9557   6.563   0.836   6.696  0.1113  0.2736  0.1061
   96CHL1   H2A 9558   6.527   0.927   6.643  0.8168  2.0406  2.5757
   96CHL1   H2B 9559   6.486   0.759   6.673  0.8696 -0.7813  1.0432
   96CHL1   C20 9560   6.654   1.070   7.582  0.8024 -0.0904  0.7099
   96CHL1   H20 9561   6.546   1.066   7.558  0.8583  2.4967 -0.1039
   96CHL1   C21 9562   6.690   1.212   7.630  0.5166 -0.6513  0.0632
   96CHL1  H21A 9563   6.651   1.288   7.559  3.5415 -0.4858 -1.5219
   96CHL1  H21B 9564   6.800   1.226   7.640  0.3702  0.8136 -0.2438
   96CHL1  H21C 9565   6.648   1.238   7.729  2.4130 -0.5889  0.8768
   96CHL1   C22 9566   6.667   0.978   7.705  0.3152  0.6876  0.1113
   96CHL1  H22A 9567   6.651   0.871   7.678  0.4915  0.4441  0.9386
   96CHL1  H22B 9568   6.767   0.997   7.750  0.0315  0.0655  1.0374
   96CHL1   C23 9569   6.552   0.990   7.813 -0.0350 -0.7008  0.2757
   96CHL1  H23A 9570   6.549   1.089   7.864 -4.0285 -0.4857 -0.2622
   96CHL1  H23B 9571   6.458   0.987   7.755 -0.6432 -1.3937  1.2853
   96CHL1   C24 9572   6.563   0.877   7.913  0.7246  0.2622  0.2347
   96CHL1  H24A 9573   6.532   0.779   7.870  0.3546 -0.0749  1.2388
   96CHL1  H24B 9574   6.672   0.865   7.931  0.8998  1.8311  0.2805
   96CHL1   C25 9575   6.495   0.900   8.046  0.3157  0.1564 -0.6421
   96CHL1   H25 9576   6.409   0.968   8.030  0.4076  0.2322 -0.8247
   96CHL1   C26 9577   6.442   0.773   8.119 -0.3103  1.1154  0.0657
   96CHL1  H26A 9578   6.403   0.800   8.219  0.8266  2.1399  0.2455
   96CHL1  H26B 9579   6.345   0.744   8.075  0.6651  0.4383 -1.7015
   96CHL1  H26C 9580   6.520   0.694   8.116 -0.1670  1.1556  2.1147
   96CHL1   C27 9581   6.585   0.973   8.142  0.1429  0.0004  0.0748
   96CHL1  H27A 9582   6.675   0.914   8.171 -0.3060  0.3831  2.3846
   96CHL1  H27B 9583   6.617   1.070   8.099 -3.0454  0.7327 -0.7666
   96CHL1  H27C 9584   6.545   0.992   8.244  0.3247  0.8533 -0.0133
   97OSM      N 9585   4.577   2.824  11.342  0.8466  0.2925 -0.4959
   97OSM    C15 9586   4.662   2.868  11.462 -0.0111  0.3091 -0.5010
   97OSM   H15A 9587   4.765   2.839  11.453  0.0118  0.9762 -2.5679
   97OSM   H15B 9588   4.644   2.819  11.557 -1.2457 -1.1187 -1.4370
   97OSM   H15C 9589   4.658   2.975  11.474 -0.7190  0.1887  0.4262
   97OSM    C14 9590   4.434   2.847  11.370  0.3765  0.5597  0.7342
   97OSM   H14A 9591   4.408   2.951  11.389 -0.8169  0.7761 -1.8875
   97OSM   H14B 9592   4.397   2.796  11.458  3.2287 -0.9322  1.1342
   97OSM   H14C 9593   4.372   2.811  11.289  2.5039 -1.2809 -0.1310
   97OSM    C13 9594   4.621   2.902  11.226  0.2756 -0.6553  0.5536
   97OSM   H13A 9595   4.722   2.881  11.194  0.4370 -0.3423  0.8615
   97OSM   H13B 9596   4.605   3.007  11.248  0.6866 -0.8232  1.6385
   97OSM   H13C 9597   4.560   2.885  11.138  0.3768  0.9604  0.1381
   97OSM    C12 9598   4.605   2.677  11.319 -0.4164 -0.5591 -0.3240
   97OSM   H12A 9599   4.558   2.629  11.403  0.1078  0.5341  0.6080
   97OSM   H12B 9600   4.712   2.665  11.328 -0.4084  0.1859  0.7542
   97OSM    C11 9601   4.559   2.614  11.180 -0.0452  0.3277  0.1764
   97OSM   H11A 9602   4.564   2.503  11.177 -1.9244  0.2652 -1.4591
   97OSM   H11B 9603   4.637   2.652  11.110  0.1031  1.0330  0.7156
   97OSM      P 9604   4.302   2.563  11.189 -0.0002 -0.0585 -0.1818
   97OSM    O13 9605   4.337   2.498  11.321 -0.6032  0.2205 -0.0992
   97OSM    O14 9606   4.179   2.642  11.180  0.2626  0.3714  0.3213
   97OSM    O11 9607   4.299   2.455  11.070 -0.1709 -1.0955 -0.1782
   97OSM    O12 9608   4.421   2.651  11.145  0.2636 -0.0329  0.1576
   97OSM    C1S 9609   4.287   2.495  10.932 -0.6275 -0.4410 -0.6679
   97OSM    H1S 9610   4.260   2.602  10.920 -1.0421 -0.3303  1.0789
   97OSM    H1T 9611   4.201   2.445  10.882 -2.0810  1.1550  0.1612
   97OSM     NF 9612   4.395   2.492  10.708 -0.7248  0.5431 -0.1263
   97OSM    HNF 9613   4.390   2.407  10.657  2.1317  0.0030  0.4352
   97OSM    C2S 9614   4.420   2.471  10.849  0.6895  0.4537  0.2629
   97OSM    H2S 9615   4.491   2.553  10.874  0.7700  0.7534 -0.8937
   97OSM    C3S 9616   4.490   2.334  10.881  0.1687 -0.4040 -0.6252
   97OSM    H3S 9617   4.419   2.256  10.846 -1.6916  0.9846 -0.0466
   97OSM     O3 9618   4.500   2.308  11.019 -0.1858  0.0137 -0.4357
   97OSM    HO3 9619   4.439   2.372  11.056 -1.1191 -1.3229  0.3843
   97OSM    C4S 9620   4.622   2.316  10.806  0.3717  1.0362 -0.1894
   97OSM    H4S 9621   4.606   2.254  10.716 -2.0221 -0.9875  1.5527
   97OSM    C5S 9622   4.740   2.358  10.845  0.2852  0.0799 -0.1096
   97OSM    H5S 9623   4.747   2.412  10.941  1.2860 -1.0462  0.4558
   97OSM    C6S 9624   4.865   2.341  10.768 -0.4467  0.0343  0.3531
   97OSM    H6S 9625   4.921   2.251  10.803 -0.8249 -0.2120  0.3176
   97OSM    H6T 9626   4.919   2.439  10.767 -1.2269  0.4626 -0.2242
   97OSM    C7S 9627   4.845   2.320  10.608  0.6386 -0.8817 -0.5244
   97OSM    H7S 9628   4.799   2.222  10.585  0.5521 -1.5059  2.2128
   97OSM    H7T 9629   4.944   2.310  10.559  0.4421  0.4545 -1.2429
   97OSM    C8S 9630   4.776   2.441  10.531  0.3555  0.3011  0.3830
   97OSM    H8S 9631   4.799   2.533  10.589 -0.7746  1.1879 -0.5675
   97OSM    H8T 9632   4.666   2.430  10.530  0.3297  0.6026 -0.2359
   97OSM    C9S 9633   4.830   2.453  10.394 -0.2220  0.5515 -0.0941
   97OSM    H9S 9634   4.800   2.360  10.341  0.4769  0.5642 -0.5289
   97OSM    H9T 9635   4.939   2.472  10.390 -0.3192  1.2234  0.3771
   97OSM   C10S 9636   4.764   2.570  10.315 -0.4246  0.3437 -0.1933
   97OSM   H10S 9637   4.792   2.662  10.371 -0.7196  2.0973 -2.8451
   97OSM   H10T 9638   4.654   2.556  10.324 -0.5651  0.1257 -2.1311
   97OSM   C11S 9639   4.806   2.595  10.168 -0.4785  0.0142 -0.4739
   97OSM   H11S 9640   4.917   2.599  10.167 -0.4497 -0.6708 -0.2363
   97OSM   H11T 9641   4.770   2.700  10.154  1.6750  0.8875  0.2994
   97OSM   C12S 9642   4.755   2.502  10.063  0.4947 -0.2087 -0.0792
   97OSM   H12S 9643   4.645   2.513  10.054  0.3477 -2.4864 -1.6741
   97OSM   H12T 9644   4.770   2.395  10.090  0.1358  0.6509  3.7123
   97OSM   C13S 9645   4.803   2.506   9.922 -0.2835  0.1393  0.6484
   97OSM   H13S 9646   4.804   2.610   9.885 -2.1071 -0.3904 -0.9540
   97OSM   H13T 9647   4.728   2.450   9.863  0.3862 -0.0239 -0.0481
   97OSM   C14S 9648   4.936   2.449   9.894  0.1989 -0.1529  0.2885
   97OSM   H14S 9649   4.939   2.345   9.932  0.3594 -0.1075  0.3999
   97OSM   H14T 9650   5.007   2.513   9.950  0.9886 -0.3020 -0.5232
   97OSM   C15S 9651   4.971   2.452   9.746  1.1516  0.0813  0.1474
   97OSM   H15S 9652   5.081   2.466   9.744  1.2712 -0.4824  1.4958
   97OSM   H15T 9653   4.923   2.542   9.704 -1.1030 -1.4110 -0.5675
   97OSM   C16S 9654   4.945   2.327   9.665  0.0082  0.7856 -0.5629
   97OSM   H16S 9655   4.851   2.283   9.704  0.1684  1.3151  0.4272
   97OSM   H16T 9656   5.029   2.256   9.680  0.7101  1.8655  0.6584
   97OSM   C17S 9657   4.935   2.363   9.512  0.0206  0.9597 -0.0452
   97OSM   H17S 9658   5.019   2.416   9.463 -1.2708  2.5283 -0.6426
   97OSM   H17T 9659   4.848   2.432   9.503 -0.4178  0.7466  2.1598
   97OSM   C18S 9660   4.898   2.245   9.420  0.4925  0.1249  0.6684
   97OSM   H18S 9661   4.808   2.185   9.447  0.4401 -0.2193 -0.2556
   97OSM   H18T 9662   4.981   2.173   9.434  0.0259 -0.7992 -1.1677
   97OSM   H18U 9663   4.884   2.273   9.314  1.9008 -0.1824  0.3971
   97OSM    C1F 9664   4.353   2.606  10.658 -0.3579 -0.8251  0.2257
   97OSM     OF 9665   4.363   2.707  10.722  0.3239 -0.3426 -1.1860
   97OSM    C2F 9666   4.285   2.607  10.522 -0.1867  0.0797 -0.4098
   97OSM    H2F 9667   4.183   2.649  10.532  0.2003  1.1481 -0.8760
   97OSM    H2G 9668   4.280   2.498  10.500 -1.7354 -0.1521  0.9714
   97OSM    C3F 9669   4.365   2.685  10.418 -0.1476  0.2891  0.6605
   97OSM    H3F 9670   4.473   2.661  10.430  0.1346  1.7908  1.2614
   97OSM    H3G 9671   4.350   2.789  10.454 -0.0774  0.7124 -0.5139
   97OSM    C4F 9672   4.329   2.669  10.271  0.9013 -0.6475  0.0282
   97OSM    H4F 9673   4.218   2.657  10.276  0.9702 -1.9551 -1.2056
   97OSM    H4G 9674   4.365   2.569  10.237 -1.7897 -1.3150 -1.0353
   97OSM    C5F 9675   4.400   2.782  10.193  1.1421 -0.0853 -0.8375
   97OSM    H5F 9676   4.505   2.778  10.230  0.5808 -0.5691  0.7328
   97OSM    H5G 9677   4.365   2.877  10.238  0.8879 -0.1355 -0.9287
   97OSM    C6F 9678   4.371   2.777  10.046  0.1012 -0.0884  0.5601
   97OSM    H6F 9679   4.264   2.767  10.018  0.2599  1.5438 -0.6677
   97OSM    H6G 9680   4.416   2.682  10.008  0.5752 -0.0153  0.9402
   97OSM    C7F 9681   4.432   2.896   9.965 -0.8846 -0.4359  0.8285
   97OSM    H7F 9682   4.378   2.986   9.999  1.0250  0.3123  1.9859
   97OSM    H7G 9683   4.405   2.882   9.858  2.1925  2.4116 -0.4115
   97OSM    C8F 9684   4.590   2.910   9.969  1.2698 -1.1254  0.0338
   97OSM    H8F 9685   4.625   2.811   9.931  2.0808 -0.2372 -1.6108
   97OSM    H8G 9686   4.621   2.916  10.075  0.6430 -1.2633  0.2214
   97OSM    C9F 9687   4.644   3.038   9.902  0.5279  0.5489  0.3099
   97OSM    H9F 9688   4.607   3.134   9.942 -0.0293  1.3558 -2.1018
   97OSM   C10F 9689   4.725   3.035   9.793 -0.1262  0.3870 -0.7637
   97OSM   H10F 9690   4.733   3.128   9.735 -1.0592 -0.6401 -2.5647
   97OSM   C11F 9691   4.783   2.911   9.725  0.7870 -0.3084 -0.0776
   97OSM   H11F 9692   4.800   2.825   9.793  0.2087 -0.6312 -0.3375
   97OSM   H11G 9693   4.877   2.938   9.671  0.1347  0.6642 -0.7505
   97OSM   C12F 9694   4.693   2.863   9.600 -0.0505  0.5660  0.1448
   97OSM   H12F 9695   4.646   2.948   9.546 -1.3138 -0.1093  0.1510
   97OSM   H12G 9696   4.611   2.801   9.643  1.1511 -1.9695 -1.0983
   97OSM   C13F 9697   4.780   2.776   9.504 -0.1545  0.2980 -0.3128
   97OSM   H13F 9698   4.841   2.702   9.561  1.9538  3.8149  2.2086
   97OSM   H13G 9699   4.855   2.836   9.449  0.6035  1.7897  2.2496
   97OSM   C14F 9700   4.691   2.715   9.398 -0.0262  0.5375 -0.1044
   97OSM   H14F 9701   4.615   2.778   9.347  1.3158  1.3232 -1.1646
   97OSM   H14G 9702   4.633   2.633   9.447  1.3507 -0.5661 -0.2755
   97OSM   C15F 9703   4.784   2.659   9.290  0.3645  0.5053 -0.1850
   97OSM   H15F 9704   4.857   2.590   9.338 -3.0432 -1.5355  2.3793
   97OSM   H15G 9705   4.855   2.738   9.260 -0.1872 -0.1525 -3.3273
   97OSM   C16F 9706   4.709   2.598   9.171 -0.7017 -0.0321  0.0894
   97OSM   H16F 9707   4.754   2.629   9.074  1.2702  0.4904  1.1398
   97OSM   H16G 9708   4.609   2.646   9.170 -1.6303 -1.9100 -1.1516
   97OSM   C17F 9709   4.707   2.441   9.165 -0.0321  0.8964 -0.3979
   97OSM   H17F 9710   4.683   2.391   9.261  1.6260 -2.2689 -1.5391
   97OSM   H17G 9711   4.805   2.402   9.130  1.3884  2.3614  1.8296
   97OSM   C18F 9712   4.589   2.390   9.076 -0.4947 -0.5670 -0.1686
   97OSM   H18F 9713   4.496   2.407   9.135 -1.6059 -2.9927 -1.1627
   97OSM   H18G 9714   4.607   2.282   9.055 -0.2452 -0.8049  1.2028
   97OSM   H18H 9715   4.592   2.456   8.987 -0.0632 -0.8185 -0.3391
   98OSM      N 9716   3.439   1.841  11.275 -0.5230  0.2452  0.1161
   98OSM    C15 9717   3.355   1.738  11.352  0.3218  0.2578  0.2642
   98OSM   H15A 9718   3.395   1.639  11.336  0.8608  0.5109  0.0444
   98OSM   H15B 9719   3.259   1.734  11.302 -0.3663 -2.8574  1.6972
   98OSM   H15C 9720   3.354   1.752  11.459  0.9330 -2.3984  0.6674
   98OSM    C14 9721   3.422   1.816  11.128  0.1103  0.2442 -0.0835
   98OSM   H14A 9722   3.423   1.709  11.116 -2.2195  0.1024  0.6276
   98OSM   H14B 9723   3.506   1.860  11.078 -0.5566  1.0648 -0.4949
   98OSM   H14C 9724   3.329   1.866  11.105  0.0983  0.6460  0.7952
   98OSM    C13 9725   3.391   1.978  11.290 -0.1147  0.0681 -0.0881
   98OSM   H13A 9726   3.284   1.986  11.275  0.1629 -0.1934 -2.4344
   98OSM   H13B 9727   3.455   2.044  11.234  0.7311 -0.2542  0.4915
   98OSM   H13C 9728   3.401   2.000  11.395  1.1411  1.9573 -0.5798
   98OSM    C12 9729   3.591   1.833  11.303  0.1145  0.1030 -0.0199
   98OSM   H12A 9730   3.625   1.731  11.314  0.3469  0.0791 -0.9010
   98OSM   H12B 9731   3.605   1.866  11.405  0.0282  0.1565 -0.0249
   98OSM    C11 9732   3.698   1.914  11.225  0.5204  0.2329 -0.4525
   98OSM   H11A 9733   3.685   1.874  11.122 -1.6865 -2.1602  0.6927
   98OSM   H11B 9734   3.797   1.883  11.263 -0.4436  0.1072  2.0354
   98OSM      P 9735   3.681   2.142  11.112 -0.0084 -0.3707 -0.2915
   98OSM    O13 9736   3.541   2.139  11.063  0.2094 -0.1357 -0.4528
   98OSM    O14 9737   3.744   2.275  11.143  0.2013 -0.0530  0.0018
   98OSM    O11 9738   3.774   2.070  11.002  0.4433 -0.0061  0.0995
   98OSM    O12 9739   3.678   2.052  11.235 -0.1325 -0.4229  0.0405
   98OSM    C1S 9740   3.785   2.136  10.866 -0.5329  0.1525 -0.4012
   98OSM    H1S 9741   3.820   2.242  10.862  0.3863 -0.1498 -0.4121
   98OSM    H1T 9742   3.689   2.140  10.811 -0.2059  1.2859 -0.9121
   98OSM     NF 9743   3.874   2.126  10.642 -0.1680 -0.6554 -0.1747
   98OSM    HNF 9744   3.798   2.111  10.579 -1.0604  0.2239  0.6934
   98OSM    C2S 9745   3.875   2.052  10.770  0.0781  0.2953  0.3054
   98OSM    H2S 9746   3.975   2.062  10.818  0.7764 -0.3100 -1.0059
   98OSM    C3S 9747   3.834   1.900  10.764 -0.3358 -0.3009  0.0458
   98OSM    H3S 9748   3.730   1.897  10.724  0.3416  1.5616 -1.9462
   98OSM     O3 9749   3.826   1.828  10.893  0.2503 -0.3017  0.1171
   98OSM    HO3 9750   3.797   1.891  10.959  0.0132 -0.6245  0.3207
   98OSM    C4S 9751   3.926   1.834  10.666 -0.0433  0.4565 -0.3554
   98OSM    H4S 9752   3.868   1.830  10.572  0.0752  1.5145 -0.4776
   98OSM    C5S 9753   4.046   1.779  10.671 -0.0117 -0.3009 -0.7143
   98OSM    H5S 9754   4.104   1.797  10.762  0.8768  1.5927 -1.6139
   98OSM    C6S 9755   4.127   1.718  10.557 -0.0686  0.5870 -0.5243
   98OSM    H6S 9756   4.145   1.609  10.572 -1.7138  0.1798 -1.4081
   98OSM    H6T 9757   4.234   1.749  10.560  0.4530 -1.2886  4.4405
   98OSM    C7S 9758   4.077   1.744  10.411  0.2803 -0.1744  0.0068
   98OSM    H7S 9759   3.966   1.740  10.425  0.1415 -1.6484 -1.3113
   98OSM    H7T 9760   4.123   1.674  10.339 -1.9026  0.2296 -1.8500
   98OSM    C8S 9761   4.111   1.888  10.367 -0.5501 -0.2388 -0.8962
   98OSM    H8S 9762   4.219   1.902  10.388 -0.4691 -0.9725 -0.7922
   98OSM    H8T 9763   4.045   1.957  10.423  0.8988  0.8126 -0.4584
   98OSM    C9S 9764   4.089   1.918  10.223 -0.0409 -0.0183 -0.1368
   98OSM    H9S 9765   4.103   2.028  10.212  2.0402 -0.1473  0.9654
   98OSM    H9T 9766   3.983   1.902  10.191 -0.1786  2.5913 -1.1564
   98OSM   C10S 9767   4.181   1.835  10.124 -0.3181 -0.7021  0.2202
   98OSM   H10S 9768   4.156   1.727  10.122 -0.6553 -0.6004 -3.4905
   98OSM   H10T 9769   4.288   1.864  10.137 -0.9313  1.1989  1.3075
   98OSM   C11S 9770   4.152   1.875   9.977  0.4111 -0.4178 -0.5116
   98OSM   H11S 9771   4.162   1.986   9.974 -2.0927 -0.1503 -0.3528
   98OSM   H11T 9772   4.045   1.853   9.958  0.5430 -0.7339 -0.8887
   98OSM   C12S 9773   4.242   1.812   9.878 -0.0786 -0.2237  0.6931
   98OSM   H12S 9774   4.258   1.707   9.910  2.1221  0.0534  0.6318
   98OSM   H12T 9775   4.348   1.844   9.868 -0.2679  0.0335 -0.5730
   98OSM   C13S 9776   4.185   1.834   9.736 -0.0623  0.2011 -0.6619
   98OSM   H13S 9777   4.173   1.942   9.715  2.3743  1.2625  2.8840
   98OSM   H13T 9778   4.091   1.775   9.731 -1.8688  2.7605  1.2760
   98OSM   C14S 9779   4.275   1.783   9.625  0.3883  0.2790 -0.0184
   98OSM   H14S 9780   4.306   1.677   9.638  1.1818  0.2930 -1.6831
   98OSM   H14T 9781   4.364   1.848   9.612 -0.0807  0.5427 -2.1288
   98OSM   C15S 9782   4.201   1.791   9.484 -0.3062  0.0653 -0.4650
   98OSM   H15S 9783   4.174   1.897   9.465 -2.6437 -0.6843 -1.4884
   98OSM   H15T 9784   4.104   1.737   9.490  0.4797 -1.6130 -2.0633
   98OSM   C16S 9785   4.282   1.727   9.365 -0.4043 -0.8580 -0.5443
   98OSM   H16S 9786   4.332   1.631   9.390 -0.8866 -0.0511  3.7999
   98OSM   H16T 9787   4.356   1.800   9.327  0.3003 -1.2686  0.0282
   98OSM   C17S 9788   4.191   1.712   9.244  0.4562  0.2082  0.1051
   98OSM   H17S 9789   4.107   1.785   9.245  1.4683  1.4365 -2.2454
   98OSM   H17T 9790   4.140   1.614   9.245 -1.4130  1.1539 -0.2622
   98OSM   C18S 9791   4.265   1.727   9.112  0.5785  0.1759  0.1104
   98OSM   H18S 9792   4.194   1.702   9.030 -0.7235  0.5437  1.1097
   98OSM   H18T 9793   4.348   1.654   9.106  0.9302  0.4642  1.3882
   98OSM   H18U 9794   4.305   1.830   9.100 -0.6846  0.8162  1.2173
   98OSM    C1F 9795   3.966   2.227  10.620 -1.7152 -0.1234 -0.2065
   98OSM     OF 9796   4.050   2.261  10.700 -0.2386  0.1925 -0.3923
   98OSM    C2F 9797   3.942   2.304  10.493  0.0017 -0.3588 -0.5756
   98OSM    H2F 9798   3.963   2.410  10.520  4.4038 -0.4765 -3.0772
   98OSM    H2G 9799   3.843   2.284  10.446  0.2726 -0.1045 -1.2610
   98OSM    C3F 9800   4.064   2.291  10.393  0.4099  0.4771  0.3894
   98OSM    H3F 9801   4.091   2.184  10.378  1.5840  1.0143 -1.5185
   98OSM    H3G 9802   4.145   2.351  10.441  0.9271  0.6035 -0.6336
   98OSM    C4F 9803   4.034   2.359  10.259 -0.3503 -1.1974 -0.3044
   98OSM    H4F 9804   4.029   2.466  10.286  0.6743 -1.4118  0.7563
   98OSM    H4G 9805   3.932   2.343  10.216 -0.4848 -1.3341  0.0575
   98OSM    C5F 9806   4.140   2.338  10.153 -0.1868 -0.1335 -0.2389
   98OSM    H5F 9807   4.154   2.229  10.136  0.9940  0.2576 -1.9750
   98OSM    H5G 9808   4.235   2.366  10.203 -0.5914  0.9772 -0.0750
   98OSM    C6F 9809   4.130   2.415  10.022 -0.2475 -0.5076 -0.7881
   98OSM    H6F 9810   4.122   2.522  10.051 -1.0049 -0.1808 -2.1754
   98OSM    H6G 9811   4.044   2.378   9.964  0.7685 -1.3408 -1.7839
   98OSM    C7F 9812   4.254   2.398   9.931 -0.4559  0.4171  0.3923
   98OSM    H7F 9813   4.251   2.292   9.899  1.4359  1.4303 -3.4100
   98OSM    H7G 9814   4.352   2.415   9.980 -0.3339  1.7842 -0.2857
   98OSM    C8F 9815   4.255   2.494   9.803  0.1138 -0.0644 -0.2493
   98OSM    H8F 9816   4.247   2.598   9.839 -4.4863  0.1127 -1.5428
   98OSM    H8G 9817   4.174   2.463   9.734  1.5459 -2.7734 -0.7895
   98OSM    C9F 9818   4.384   2.469   9.731  0.1222  0.3384  0.1264
   98OSM    H9F 9819   4.474   2.468   9.794 -0.1744  0.9038  0.5619
   98OSM   C10F 9820   4.393   2.437   9.599 -0.3659  0.0999  0.5565
   98OSM   H10F 9821   4.496   2.428   9.561  0.7052 -0.4117  3.4806
   98OSM   C11F 9822   4.289   2.435   9.489 -0.4578  0.4724 -0.1613
   98OSM   H11F 9823   4.320   2.447   9.383  0.2179  2.7592  0.2492
   98OSM   H11G 9824   4.213   2.511   9.516 -0.5308  1.5308 -3.1104
   98OSM   C12F 9825   4.226   2.290   9.490  0.4508 -0.8661  0.2839
   98OSM   H12F 9826   4.192   2.276   9.595  2.7028 -0.9059  1.0340
   98OSM   H12G 9827   4.299   2.217   9.450 -0.1258 -1.2046 -0.1724
   98OSM   C13F 9828   4.102   2.289   9.407 -0.3896  0.4038  0.3019
   98OSM   H13F 9829   4.019   2.352   9.446 -1.3013 -0.9430  0.5621
   98OSM   H13G 9830   4.054   2.190   9.422 -1.9611  0.6002 -2.8879
   98OSM   C14F 9831   4.116   2.306   9.255  0.1884 -0.0709 -0.7290
   98OSM   H14F 9832   4.181   2.226   9.214  1.7397  0.5024  0.5517
   98OSM   H14G 9833   4.166   2.404   9.239  0.6266 -0.0221  0.7962
   98OSM   C15F 9834   3.977   2.287   9.186  0.8346 -0.2251 -0.1673
   98OSM   H15F 9835   3.891   2.333   9.239  0.3092 -2.8354  1.3385
   98OSM   H15G 9836   3.946   2.180   9.188  0.8756 -0.2775 -1.6590
   98OSM   C16F 9837   3.993   2.330   9.042 -0.2300 -0.0046  0.1557
   98OSM   H16F 9838   4.059   2.417   9.023 -3.1282  2.1471 -0.5312
   98OSM   H16G 9839   3.889   2.346   9.006 -0.7364 -1.5632  0.8501
   98OSM   C17F 9840   4.051   2.214   8.964 -0.0483  0.5280 -0.7684
   98OSM   H17F 9841   3.974   2.135   8.948  2.7319 -1.8954 -2.8664
   98OSM   H17G 9842   4.133   2.165   9.021 -0.3745 -1.5853 -2.0201
   98OSM   C18F 9843   4.112   2.262   8.834 -0.0093  0.1751  0.3799
   98OSM   H18F 9844   4.150   2.178   8.772  1.2667  0.5550  0.6344
   98OSM   H18G 9845   4.214   2.305   8.850  0.6360 -0.4795 -1.7785
   98OSM   H18H 9846   4.063   2.341   8.773 -0.0790 -1.0960 -1.2594
   99OSM      N 9847   5.824   3.167  11.215  0.4878  0.6192  0.5069
   99OSM    C15 9848   5.678   3.161  11.221  0.2629 -1.1851 -0.6759
   99OSM   H15A 9849   5.640   3.061  11.205 -3.0095 -0.2687  0.7759
   99OSM   H15B 9850   5.635   3.235  11.155  0.2976 -0.5841 -0.0320
   99OSM   H15C 9851   5.638   3.170  11.321 -0.0099 -1.4878 -0.7545
   99OSM    C14 9852   5.866   3.309  11.242 -0.2798  0.8365 -0.3703
   99OSM   H14A 9853   5.874   3.325  11.349  0.7342  1.8862 -0.5920
   99OSM   H14B 9854   5.796   3.379  11.200 -1.2796  1.3501  2.0615
   99OSM   H14C 9855   5.962   3.340  11.202 -0.2246  0.5302 -0.4737
   99OSM    C13 9856   5.880   3.079  11.327 -0.0099 -0.1586 -1.1264
   99OSM   H13A 9857   5.987   3.091  11.334 -0.1799  1.6002 -1.4495
   99OSM   H13B 9858   5.856   2.976  11.306  1.5519 -0.6529 -0.5518
   99OSM   H13C 9859   5.834   3.098  11.423  0.2467 -3.7561 -0.2046
   99OSM    C12 9860   5.867   3.114  11.081 -0.1719 -0.4847 -0.0975
   99OSM   H12A 9861   5.821   3.017  11.067  1.5897 -2.0406  3.9097
   99OSM   H12B 9862   5.973   3.097  11.094 -0.0573 -0.9192 -1.5540
   99OSM    C11 9863   5.840   3.202  10.956 -0.1613  0.1789  0.3835
   99OSM   H11A 9864   5.732   3.228  10.951 -0.2383 -0.0223  0.9468
   99OSM   H11B 9865   5.850   3.141  10.864  0.2061  0.3738  0.2989
   99OSM      P 9866   6.075   3.309  10.926  0.2722 -0.3624  0.0693
   99OSM    O13 9867   6.149   3.409  11.001  0.1104  0.1363 -0.2120
   99OSM    O14 9868   6.116   3.171  10.948  0.2396 -0.3133  0.0074
   99OSM    O11 9869   6.081   3.345  10.772 -0.4786 -0.1941  0.0479
   99OSM    O12 9870   5.918   3.317  10.947 -0.0225 -0.1569  0.2170
   99OSM    C1S 9871   6.008   3.284  10.672 -0.2333  0.4148  0.2738
   99OSM    H1S 9872   5.912   3.338  10.657 -0.1322  0.9632  1.5391
   99OSM    H1T 9873   5.984   3.179  10.696  0.2327 -0.0024 -1.0091
   99OSM     NF 9874   6.003   3.208  10.435  0.7774  0.7036  0.5587
   99OSM    HNF 9875   6.044   3.121  10.408 -2.6557 -0.8999  0.3412
   99OSM    C2S 9876   6.079   3.285  10.531 -0.7239  0.2223 -0.3591
   99OSM    H2S 9877   6.086   3.392  10.503 -0.4490 -0.3501 -2.5064
   99OSM    C3S 9878   6.225   3.238  10.553 -0.5655  0.0589 -0.1356
   99OSM    H3S 9879   6.229   3.133  10.589 -1.4373  0.3572  0.8567
   99OSM     O3 9880   6.299   3.319  10.647  0.8107  0.4401 -0.7367
   99OSM    HO3 9881   6.232   3.384  10.669  0.5680  0.4657 -1.5231
   99OSM    C4S 9882   6.298   3.245  10.418 -0.3631  0.2043 -0.0432
   99OSM    H4S 9883   6.324   3.347  10.384 -1.5042  0.1630 -1.0894
   99OSM    C5S 9884   6.330   3.138  10.341 -0.2809 -0.3102 -0.0270
   99OSM    H5S 9885   6.301   3.038  10.376  1.6119 -1.5633 -1.8844
   99OSM    C6S 9886   6.418   3.150  10.217  0.4342 -0.0980 -0.2734
   99OSM    H6S 9887   6.526   3.156  10.242  0.1823  1.3654  0.5572
   99OSM    H6T 9888   6.392   3.245  10.166  2.4681  1.2541  1.1568
   99OSM    C7S 9889   6.385   3.045  10.115 -0.1182 -0.1904 -0.2189
   99OSM    H7S 9890   6.445   2.961  10.155  0.8781  0.9333  0.6895
   99OSM    H7T 9891   6.436   3.071  10.020 -2.9779  1.7106 -1.3260
   99OSM    C8S 9892   6.237   3.022  10.083 -0.5672 -0.0037 -0.3422
   99OSM    H8S 9893   6.180   3.118  10.080 -0.3754  0.1930  1.7717
   99OSM    H8T 9894   6.197   2.975  10.176 -2.4798  1.4438 -0.3840
   99OSM    C9S 9895   6.215   2.943   9.957 -0.1658  0.0308 -0.4313
   99OSM    H9S 9896   6.264   2.999   9.874  1.0061 -0.2040  0.0998
   99OSM    H9T 9897   6.107   2.946   9.931 -0.6386  0.8150  1.5178
   99OSM   C10S 9898   6.266   2.792   9.961 -0.4216 -0.2901  0.0699
   99OSM   H10S 9899   6.222   2.733  10.045  0.9891  1.8718  2.3968
   99OSM   H10T 9900   6.376   2.791   9.976 -0.5739 -1.9503  1.2668
   99OSM   C11S 9901   6.218   2.725   9.833 -0.9395  0.2411  0.5870
   99OSM   H11S 9902   6.268   2.782   9.752 -1.5336 -0.9812 -0.6645
   99OSM   H11T 9903   6.107   2.732   9.833 -1.1459 -2.3338 -0.8143
   99OSM   C12S 9904   6.265   2.577   9.817 -0.6409  0.1375  0.2980
   99OSM   H12S 9905   6.373   2.570   9.841  0.1442  0.5785 -2.8763
   99OSM   H12T 9906   6.200   2.510   9.877  1.0949 -0.6296  1.3622
   99OSM   C13S 9907   6.244   2.551   9.666  0.2284  0.3191  0.2749
   99OSM   H13S 9908   6.288   2.638   9.613  4.0770 -1.5120  0.2830
   99OSM   H13T 9909   6.136   2.537   9.644  0.9253 -1.1539 -2.4395
   99OSM   C14S 9910   6.321   2.422   9.638  0.7404  0.3065 -0.5334
   99OSM   H14S 9911   6.299   2.356   9.725  2.5939  0.5027  0.1224
   99OSM   H14T 9912   6.432   2.436   9.639  0.6699  1.2175 -2.7628
   99OSM   C15S 9913   6.274   2.343   9.516  0.4982 -0.1563  0.3391
   99OSM   H15S 9914   6.193   2.405   9.473 -0.0021 -0.3020  1.0637
   99OSM   H15T 9915   6.226   2.250   9.552 -1.4166  1.3273  1.7132
   99OSM   C16S 9916   6.384   2.320   9.418  0.7300  0.2612 -0.6683
   99OSM   H16S 9917   6.445   2.411   9.397  1.2615  0.4876  1.7331
   99OSM   H16T 9918   6.327   2.293   9.326  1.1981  0.4305 -1.0133
   99OSM   C17S 9919   6.490   2.217   9.451  0.3070  0.2514 -0.5434
   99OSM   H17S 9920   6.444   2.116   9.464  1.1295 -0.3883 -2.4556
   99OSM   H17T 9921   6.542   2.245   9.545 -1.3213 -0.1436  0.4974
   99OSM   C18S 9922   6.590   2.197   9.335  0.0568  0.0629  0.4316
   99OSM   H18S 9923   6.545   2.166   9.238  0.3337 -0.9984  0.6370
   99OSM   H18T 9924   6.674   2.130   9.360 -1.0538 -1.4032  0.2559
   99OSM   H18U 9925   6.630   2.300   9.321 -4.1546  1.7254 -0.1145
   99OSM    C1F 9926   5.885   3.249  10.395  0.0904 -0.5344 -0.2626
   99OSM     OF 9927   5.846   3.357  10.426  0.2993 -0.4814 -0.3067
   99OSM    C2F 9928   5.808   3.157  10.309  0.1717  0.0973 -0.4258
   99OSM    H2F 9929   5.701   3.159  10.340 -0.3955  1.8296 -2.3985
   99OSM    H2G 9930   5.845   3.053  10.322 -3.0075 -1.3387 -2.2917
   99OSM    C3F 9931   5.824   3.192  10.159  0.3904 -0.2619  0.1042
   99OSM    H3F 9932   5.763   3.283  10.141 -0.9223 -1.3724 -1.1503
   99OSM    H3G 9933   5.929   3.208  10.129 -0.2699  4.1416 -0.2605
   99OSM    C4F 9934   5.757   3.080  10.073  0.2777  0.8258  0.5617
   99OSM    H4F 9935   5.765   3.123   9.971 -0.0689  1.0580  0.6309
   99OSM    H4G 9936   5.648   3.071  10.093  0.1201 -1.8629 -1.2509
   99OSM    C5F 9937   5.817   2.940  10.084  0.1835  0.2478 -0.1288
   99OSM    H5F 9938   5.790   2.886  10.177  1.3332  0.5342  0.3747
   99OSM    H5G 9939   5.927   2.951  10.096  0.1306  1.3757 -0.6185
   99OSM    C6F 9940   5.787   2.843   9.970 -0.8655 -0.8451  0.2891
   99OSM    H6F 9941   5.821   2.740   9.992  0.1855 -0.8954 -1.4749
   99OSM    H6G 9942   5.850   2.877   9.885 -0.8409 -1.3690  0.0981
   99OSM    C7F 9943   5.632   2.822   9.949  0.0288  0.0415  1.0184
   99OSM    H7F 9944   5.583   2.917   9.920  0.8579  1.0658  2.8899
   99OSM    H7G 9945   5.594   2.812  10.053  0.9418  0.2072  1.3729
   99OSM    C8F 9946   5.593   2.698   9.863 -0.3327  0.2188  0.1003
   99OSM    H8F 9947   5.485   2.672   9.864 -0.0094 -1.1255  1.6664
   99OSM    H8G 9948   5.648   2.619   9.920 -0.0322  1.5227  1.6548
   99OSM    C9F 9949   5.633   2.724   9.725 -0.2553 -0.0462 -0.4314
   99OSM    H9F 9950   5.577   2.807   9.680  1.0161  0.5580 -0.9394
   99OSM   C10F 9951   5.729   2.660   9.649 -0.1185  0.6142  0.1055
   99OSM   H10F 9952   5.750   2.694   9.547 -0.0733  1.3527  0.3621
   99OSM   C11F 9953   5.817   2.538   9.678 -0.0095  0.4105 -0.6041
   99OSM   H11F 9954   5.764   2.463   9.740 -0.1958  1.1596  0.1564
   99OSM   H11G 9955   5.900   2.585   9.735 -0.4752  2.3139 -1.4514
   99OSM   C12F 9956   5.872   2.465   9.557 -0.0105 -0.3475  0.0597
   99OSM   H12F 9957   5.938   2.381   9.588 -0.6846 -0.0288  2.5003
   99OSM   H12G 9958   5.946   2.538   9.516 -0.1606  1.2820  2.5646
   99OSM   C13F 9959   5.773   2.427   9.448  0.0124  0.0497  0.0359
   99OSM   H13F 9960   5.727   2.522   9.413 -0.2555  0.5404  1.6650
   99OSM   H13G 9961   5.693   2.361   9.488 -0.1196 -0.2103 -0.6521
   99OSM   C14F 9962   5.832   2.341   9.335  0.1596 -0.5967 -0.0352
   99OSM   H14F 9963   5.750   2.316   9.264  1.4028 -1.2167 -1.2678
   99OSM   H14G 9964   5.859   2.244   9.381 -3.0085 -0.5607  2.0988
   99OSM   C15F 9965   5.953   2.409   9.269  0.3410 -0.3247  0.5194
   99OSM   H15F 9966   6.000   2.336   9.199 -0.2138  0.1664 -0.3711
   99OSM   H15G 9967   6.035   2.431   9.341  0.3564 -0.7565  0.6312
   99OSM   C16F 9968   5.920   2.532   9.178 -0.4749  0.8630  0.1267
   99OSM   H16F 9969   6.022   2.571   9.160  1.3866 -4.5656 -2.1057
   99OSM   H16G 9970   5.857   2.607   9.231 -1.1555  1.5436 -1.6012
   99OSM   C17F 9971   5.855   2.486   9.049  0.0244  0.4000  0.0897
   99OSM   H17F 9972   5.758   2.439   9.073 -2.0871  2.9395 -3.0654
   99OSM   H17G 9973   5.921   2.412   8.999 -0.2881 -1.1582  1.9155
   99OSM   C18F 9974   5.832   2.596   8.950 -0.3045  0.4622  0.2829
   99OSM   H18F 9975   5.931   2.645   8.944 -0.7196  1.2015 -0.8518
   99OSM   H18G 9976   5.762   2.673   8.990  0.2100  0.8850  0.3746
   99OSM   H18H 9977   5.799   2.562   8.849  1.0494  4.9132 -1.8185
  100OSM      N 9978   1.847   3.257  11.081 -0.5980 -0.0674  0.3083
  100OSM    C15 9979   1.986   3.214  11.064 -1.3825 -0.2206  0.0176
  100OSM   H15A 9980   2.047   3.264  11.138 -0.5115  0.3969 -1.0946
  100OSM   H15B 9981   2.024   3.231  10.964 -0.8825  0.6806  0.3551
  100OSM   H15C 9982   2.004   3.109  11.082  0.5390  0.0564 -0.1902
  100OSM    C14 9983   1.777   3.229  10.952  0.2294 -0.2920  0.4273
  100OSM   H14A 9984   1.687   3.287  10.937  0.0803  0.4408  3.7995
  100OSM   H14B 9985   1.748   3.125  10.947  2.5964 -0.9559 -0.6244
  100OSM   H14C 9986   1.839   3.255  10.866 -0.7787  1.4276  0.1971
  100OSM    C13 9987   1.784   3.172  11.194 -0.0760  0.4492 -0.1609
  100OSM   H13A 9988   1.780   3.066  11.178  2.1828  0.0338  1.7221
  100OSM   H13B 9989   1.694   3.218  11.233 -0.5705 -1.5693  1.1617
  100OSM   H13C 9990   1.855   3.181  11.275 -0.7422  0.3768  0.4317
  100OSM    C12 9991   1.850   3.406  11.117  0.7740 -0.3960 -0.1495
  100OSM   H12A 9992   1.908   3.460  11.043 -2.2608  1.6269 -1.1612
  100OSM   H12B 9993   1.901   3.418  11.211 -0.8862  0.6140  0.6402
  100OSM    C11 9994   1.713   3.476  11.130  0.3903  0.4169  0.8558
  100OSM   H11A 9995   1.726   3.581  11.163 -0.1039  1.4416 -2.0322
  100OSM   H11B 9996   1.661   3.432  11.218 -0.6036 -1.3333 -0.5705
  100OSM      P 9997   1.501   3.523  10.989 -0.3936 -0.0653  0.0151
  100OSM    O13 9998   1.395   3.428  11.041 -0.2901 -0.1486 -0.1078
  100OSM    O14 9999   1.493   3.658  11.051 -0.9568  0.1812  0.4977
  100OSM    O1110000   1.487   3.539  10.833 -0.3889 -0.5767  0.3745
  100OSM    O1210001   1.642   3.464  11.008  0.2971  0.1420  0.5848
  100OSM    C1S10002   1.555   3.464  10.728  0.1746 -0.6990  0.6382
  100OSM    H1S10003   1.533   3.357  10.744 -0.0783 -0.7899 -0.2811
  100OSM    H1T10004   1.663   3.490  10.736  0.0410  0.0865 -0.0091
  100OSM     NF10005   1.549   3.416  10.494  0.0291 -0.2031 -0.6819
  100OSM    HNF10006   1.613   3.451  10.426  1.7369  0.1012  1.0573
  100OSM    C2S10007   1.493   3.508  10.588  0.0665  0.3796 -0.1866
  100OSM    H2S10008   1.385   3.493  10.610  0.1957  0.5531  0.5927
  100OSM    C3S10009   1.500   3.666  10.563 -0.5905  0.2225 -0.0038
  100OSM    H3S10010   1.610   3.683  10.569 -0.7085  2.3822 -2.5696
  100OSM     O310011   1.431   3.744  10.662 -0.3925 -0.5656 -0.3051
  100OSM    HO310012   1.405   3.676  10.724 -2.2871 -1.7687 -2.3424
  100OSM    C4S10013   1.438   3.685  10.429  0.0611  0.0450  0.7561
  100OSM    H4S10014   1.330   3.670  10.416  0.4469 -1.0953 -1.5117
  100OSM    C5S10015   1.505   3.729  10.317  0.3037 -0.1256  0.4709
  100OSM    H5S10016   1.612   3.754  10.321  0.1603  0.5531  0.0980
  100OSM    C6S10017   1.439   3.756  10.178  0.0517  0.3498  0.0257
  100OSM    H6S10018   1.443   3.866  10.164  0.8091  0.4137  0.7213
  100OSM    H6T10019   1.337   3.713  10.168  1.4148 -2.9273 -0.1351
  100OSM    C7S10020   1.514   3.697  10.059 -0.5961 -0.2271  0.5806
  100OSM    H7S10021   1.499   3.589  10.079  0.4519 -1.1528 -3.3332
  100OSM    H7T10022   1.625   3.701  10.070 -0.8695  0.7826  3.6595
  100OSM    C8S10023   1.454   3.736   9.926 -0.0630 -0.0773 -0.5725
  100OSM    H8S10024   1.486   3.837   9.892 -0.6221  0.1807 -0.3317
  100OSM    H8T10025   1.343   3.731   9.926 -0.0531 -0.3742 -0.1163
  100OSM    C9S10026   1.494   3.630   9.819  0.4564 -0.1095 -0.1638
  100OSM    H9S10027   1.450   3.532   9.847  0.6379  0.5943  2.7792
  100OSM    H9T10028   1.604   3.625   9.838  0.7247  0.4492 -1.5156
  100OSM   C10S10029   1.462   3.674   9.675 -0.1575  0.5055 -0.3000
  100OSM   H10S10030   1.495   3.780   9.674 -0.8880  0.7448  0.2688
  100OSM   H10T10031   1.354   3.685   9.653  0.2857  1.9998 -1.8586
  100OSM   C11S10032   1.529   3.596   9.568 -1.2241 -0.5025 -0.4108
  100OSM   H11S10033   1.491   3.493   9.584  0.5629 -0.9732  0.9469
  100OSM   H11T10034   1.640   3.591   9.572 -1.2076  1.0921  1.4878
  100OSM   C12S10035   1.507   3.630   9.423  0.2983  0.2692  0.2814
  100OSM   H12S10036   1.563   3.723   9.400 -0.9774  1.3017  1.2398
  100OSM   H12T10037   1.399   3.638   9.397  0.7536 -0.2461 -1.8836
  100OSM   C13S10038   1.558   3.521   9.324 -0.3703  0.0718  0.4159
  100OSM   H13S10039   1.500   3.427   9.338  1.3848 -1.2209 -0.7491
  100OSM   H13T10040   1.665   3.497   9.342  0.0748  0.9787 -0.9312
  100OSM   C14S10041   1.548   3.566   9.164 -0.1318  0.0680 -0.5604
  100OSM   H14S10042   1.612   3.657   9.163  0.8607 -0.5710  1.2281
  100OSM   H14T10043   1.441   3.583   9.141 -0.3302  1.5482  1.3205
  100OSM   C15S10044   1.610   3.459   9.073  0.1266  0.5998  0.0868
  100OSM   H15S10045   1.704   3.417   9.115 -1.1941 -0.3078  2.2083
  100OSM   H15T10046   1.629   3.503   8.972  1.2149 -1.2403 -0.5401
  100OSM   C16S10047   1.511   3.343   9.049  0.6700 -0.2286 -0.6825
  100OSM   H16S10048   1.410   3.389   9.043  1.0121  0.4242 -1.7136
  100OSM   H16T10049   1.519   3.278   9.139  0.3026  0.2939 -0.2709
  100OSM   C17S10050   1.533   3.264   8.917  0.2351 -0.0345  0.3496
  100OSM   H17S10051   1.474   3.170   8.924  0.3613 -0.1818 -0.4934
  100OSM   H17T10052   1.637   3.227   8.914 -0.7392 -2.9779  1.4789
  100OSM   C18S10053   1.498   3.342   8.797 -0.1764  0.4538  0.9973
  100OSM   H18S10054   1.392   3.372   8.809 -1.0582 -1.7653 -0.8686
  100OSM   H18T10055   1.501   3.278   8.706  0.0250 -0.0016  1.3233
  100OSM   H18U10056   1.567   3.427   8.776  0.7459 -0.9829 -2.1523
  100OSM    C1F10057   1.528   3.283  10.494  0.0165  0.1663  0.6384
  100OSM     OF10058   1.434   3.239  10.561 -0.2566  0.1277  0.1818
  100OSM    C2F10059   1.618   3.195  10.405 -0.0810  0.2395  0.1127
  100OSM    H2F10060   1.635   3.091  10.441  0.3661  0.2435 -0.0808
  100OSM    H2G10061   1.716   3.247  10.413 -0.4214  0.7041  1.4004
  100OSM    C3F10062   1.576   3.190  10.259 -0.2056  0.2317 -0.1401
  100OSM    H3F10063   1.476   3.147  10.238 -0.4458  0.8067 -0.2050
  100OSM    H3G10064   1.640   3.116  10.207 -0.8572 -0.9774  0.7676
  100OSM    C4F10065   1.589   3.318  10.183 -0.0559 -0.1025 -0.2492
  100OSM    H4F10066   1.694   3.350  10.201 -0.4698 -0.3636  2.8463
  100OSM    H4G10067   1.523   3.401  10.214  1.0434  0.5319  0.4260
  100OSM    C5F10068   1.580   3.291  10.034 -1.2249  0.5298  0.5869
  100OSM    H5F10069   1.635   3.198  10.009 -3.4152 -0.2301 -1.5522
  100OSM    H5G10070   1.620   3.377   9.977  1.5753 -0.1208  1.4534
  100OSM    C6F10071   1.436   3.269   9.972  0.4383  0.1669 -0.3277
  100OSM    H6F10072   1.385   3.365   9.995 -0.5677 -0.6716  1.0143
  100OSM    H6G10073   1.395   3.179  10.022  0.4299  1.3227  1.8058
  100OSM    C7F10074   1.442   3.249   9.822  0.0290 -0.0674 -0.2133
  100OSM    H7F10075   1.488   3.151   9.799  0.2295  0.8714 -4.1960
  100OSM    H7G10076   1.503   3.331   9.778 -0.5939  0.1480 -0.6694
  100OSM    C8F10077   1.307   3.245   9.760  0.4496  0.0823 -0.3473
  100OSM    H8F10078   1.254   3.341   9.779  1.2826  1.0006 -2.4585
  100OSM    H8G10079   1.249   3.165   9.810 -2.1527  2.0012 -0.1521
  100OSM    C9F10080   1.318   3.220   9.606 -0.0917 -0.1311  0.6777
  100OSM    H9F10081   1.351   3.306   9.547  0.5622 -0.1012  1.0761
  100OSM   C10F10082   1.280   3.108   9.533 -0.3121 -0.2632  0.6920
  100OSM   H10F10083   1.291   3.125   9.425 -0.0784 -1.9909  0.4320
  100OSM   C11F10084   1.215   2.982   9.586 -0.2716  0.5847  0.1166
  100OSM   H11F10085   1.183   3.001   9.691  2.1136  2.8949  0.4733
  100OSM   H11G10086   1.283   2.894   9.585  0.6152  1.2750 -0.5902
  100OSM   C12F10087   1.090   2.943   9.513  0.3386 -0.0611 -0.1364
  100OSM   H12F10088   1.012   3.022   9.516 -0.4087 -0.7902  0.1703
  100OSM   H12G10089   1.037   2.863   9.570  0.0526 -0.9288 -1.5870
  100OSM   C13F10090   1.113   2.902   9.375  0.7110  0.0324  0.1521
  100OSM   H13F10091   1.040   2.822   9.348 -1.1382  1.1403  1.7439
  100OSM   H13G10092   1.208   2.845   9.372  1.0560  0.5855  0.6502
  100OSM   C14F10093   1.088   3.015   9.273  0.1266  0.7930 -0.6718
  100OSM   H14F10094   1.139   3.109   9.301  3.3381 -1.7150  2.4604
  100OSM   H14G10095   0.985   3.052   9.253 -0.3303 -0.0690  0.0176
  100OSM   C15F10096   1.155   2.979   9.141  0.4856  0.4890  0.2895
  100OSM   H15F10097   1.089   2.905   9.090 -0.8829  0.4084  2.1093
  100OSM   H15G10098   1.257   2.940   9.161  0.4796 -0.0348 -0.6610
  100OSM   C16F10099   1.181   3.095   9.043  0.0873 -0.2517  0.0203
  100OSM   H16F10100   1.281   3.086   8.995 -0.0376  2.2386 -0.7921
  100OSM   H16G10101   1.188   3.181   9.113  1.1712 -0.5071  0.2331
  100OSM   C17F10102   1.069   3.123   8.938  0.5643  0.6663  0.9060
  100OSM   H17F10103   0.972   3.145   8.986  0.5112  1.2323  0.5396
  100OSM   H17G10104   1.059   3.033   8.873  1.6458  1.1356  0.0702
  100OSM   C18F10105   1.101   3.243   8.843  0.5786 -0.2281 -0.6172
  100OSM   H18F10106   1.092   3.333   8.907  1.5201  0.1687 -1.0262
  100OSM   H18G10107   1.028   3.249   8.759 -0.2006 -2.2545 -0.1072
  100OSM   H18H10108   1.201   3.245   8.794  0.7173 -0.3355 -0.3361
  101OSM      N10109   3.835   2.997  11.271  0.4736  0.5981 -0.0933
  101OSM    C1510110   3.723   3.088  11.298  0.1089 -0.1627  0.0221
  101OSM   H15A10111   3.753   3.191  11.282  0.5720 -0.3727 -0.4899
  101OSM   H15B10112   3.691   3.078  11.401 -0.6905  0.9939 -0.1055
  101OSM   H15C10113   3.648   3.070  11.223  0.5774 -1.8646 -0.0523
  101OSM    C1410114   3.946   3.027  11.358  0.0896 -0.2517  0.7628
  101OSM   H14A10115   4.036   2.986  11.315  0.9662 -0.3033  2.5874
  101OSM   H14B10116   3.933   2.994  11.460 -0.4653 -4.2636 -0.5271
  101OSM   H14C10117   3.969   3.132  11.368  1.1937 -0.3721 -0.3765
  101OSM    C1310118   3.783   2.857  11.287  0.0672 -0.0303  0.3303
  101OSM   H13A10119   3.734   2.855  11.383  1.1899  0.7941  0.9441
  101OSM   H13B10120   3.861   2.781  11.282  0.9236  0.6905  2.1199
  101OSM   H13C10121   3.708   2.832  11.214  0.4394  1.1002 -0.4515
  101OSM    C1210122   3.883   3.014  11.127 -0.3623  0.6743 -0.0551
  101OSM   H12A10123   3.801   2.993  11.060  0.9061  1.7408 -1.9869
  101OSM   H12B10124   3.948   2.931  11.106 -1.7152 -0.4363  0.0966
  101OSM    C1110125   3.948   3.150  11.085  0.3842  0.4263 -0.0367
  101OSM   H11A10126   3.983   3.144  10.980 -0.8310 -0.6779 -0.3881
  101OSM   H11B10127   4.035   3.179  11.148 -1.6320 -0.0134  3.0402
  101OSM      P10128   3.741   3.304  10.976 -0.1593 -0.0062 -0.1247
  101OSM    O1310129   3.619   3.214  10.979  0.1673  0.1649  0.2477
  101OSM    O1410130   3.718   3.449  10.995 -0.4790  0.6913  0.2900
  101OSM    O1110131   3.816   3.280  10.840  0.4091  0.0819 -0.3255
  101OSM    O1210132   3.845   3.256  11.094 -0.7653  0.1764  0.0028
  101OSM    C1S10133   3.897   3.373  10.771  0.0572 -0.2895 -0.6582
  101OSM    H1S10134   3.971   3.428  10.834  0.1941  1.0832 -1.9939
  101OSM    H1T10135   3.825   3.446  10.729 -0.2039  0.7585  1.4961
  101OSM     NF10136   4.049   3.412  10.587 -0.1939  0.3365 -0.1247
  101OSM    HNF10137   4.010   3.450  10.503 -3.9396 -0.9956  0.9206
  101OSM    C2S10138   3.976   3.308  10.663 -0.8972  0.2148  0.1411
  101OSM    H2S10139   4.051   3.241  10.710 -0.2667  0.8057 -0.0198
  101OSM    C3S10140   3.889   3.218  10.569 -0.4596  0.1159 -0.1467
  101OSM    H3S10141   3.806   3.284  10.536 -1.2014 -1.8870 -2.5148
  101OSM     O310142   3.829   3.114  10.631 -0.2809 -0.3931 -0.3761
  101OSM    HO310143   3.843   3.121  10.726  1.5182  1.1454 -0.7375
  101OSM    C4S10144   3.957   3.176  10.435 -0.4587  0.2418 -0.4229
  101OSM    H4S10145   3.936   3.249  10.355  0.5609 -1.4811 -2.3208
  101OSM    C5S10146   4.043   3.075  10.417 -0.0414 -0.2757  0.3027
  101OSM    H5S10147   4.078   3.020  10.506 -0.8618 -0.6826  0.3821
  101OSM    C6S10148   4.090   3.034  10.281 -0.5050 -0.5406  0.2779
  101OSM    H6S10149   4.097   2.924  10.265  0.1424 -0.5072  0.3398
  101OSM    H6T10150   4.196   3.068  10.277 -0.8666  0.4475 -1.3323
  101OSM    C7S10151   4.022   3.084  10.153 -0.6640  0.2023  0.8317
  101OSM    H7S10152   4.041   3.192  10.135 -1.8537  0.2253 -0.4534
  101OSM    H7T10153   3.912   3.066  10.162 -0.9380 -0.3727 -2.8070
  101OSM    C8S10154   4.088   3.018  10.030  0.3985 -0.0690  0.3010
  101OSM    H8S10155   4.102   2.909  10.045  1.0408  0.0616  0.6616
  101OSM    H8T10156   4.190   3.063  10.029 -0.1656  1.2321  0.5709
  101OSM    C9S10157   4.015   3.044   9.896 -0.7052  0.5110 -0.3105
  101OSM    H9S10158   3.997   3.154   9.889 -0.6284  0.5162 -0.4404
  101OSM    H9T10159   3.919   2.990   9.901  0.8698 -2.1922  3.0022
  101OSM   C10S10160   4.099   2.991   9.772  0.2259 -0.3044 -0.0423
  101OSM   H10S10161   4.064   2.886   9.761 -2.1114  0.2662  1.5371
  101OSM   H10T10162   4.204   3.012   9.802 -0.3219  2.3377  0.1898
  101OSM   C11S10163   4.068   3.071   9.638 -0.0438  0.6080 -0.1188
  101OSM   H11S10164   4.078   3.181   9.651  2.9832  0.4287 -0.4250
  101OSM   H11T10165   3.961   3.049   9.620  0.0443  0.8911 -1.0628
  101OSM   C12S10166   4.133   3.030   9.502 -0.3599  0.2555 -0.1388
  101OSM   H12S10167   4.242   3.044   9.518 -0.6201  1.3897  0.7355
  101OSM   H12T10168   4.100   3.101   9.423  2.2518 -0.6991 -2.1649
  101OSM   C13S10169   4.092   2.882   9.460 -0.2120  0.7259 -0.2874
  101OSM   H13S10170   3.982   2.874   9.445 -0.5125  4.3599 -0.4756
  101OSM   H13T10171   4.118   2.805   9.535  3.0600  0.3321 -1.7423
  101OSM   C14S10172   4.174   2.849   9.332 -0.2141  0.3943 -0.2413
  101OSM   H14S10173   4.151   2.740   9.326 -0.9801  0.6026 -1.2759
  101OSM   H14T10174   4.278   2.878   9.358 -0.7635  0.9435  1.3812
  101OSM   C15S10175   4.135   2.918   9.197 -0.0394 -0.6258 -0.1690
  101OSM   H15S10176   4.141   3.028   9.202  2.3873 -0.7511 -0.0618
  101OSM   H15T10177   4.030   2.888   9.178 -0.5184  0.2919  0.9667
  101OSM   C16S10178   4.227   2.872   9.080  0.3226 -0.0152 -0.0589
  101OSM   H16S10179   4.324   2.926   9.083  0.0561  0.4493  0.2399
  101OSM   H16T10180   4.179   2.907   8.987  2.8926  0.1329 -1.3903
  101OSM   C17S10181   4.252   2.722   9.064 -0.4806  0.0184  0.3977
  101OSM   H17S10182   4.155   2.679   9.033 -1.0128  0.3826  1.5150
  101OSM   H17T10183   4.284   2.682   9.163 -0.3828  0.6557  0.6292
  101OSM   C18S10184   4.359   2.695   8.960  0.4381 -0.3444  0.6438
  101OSM   H18S10185   4.317   2.659   8.864 -1.2358  2.4147  0.2718
  101OSM   H18T10186   4.413   2.609   9.004  0.9796 -0.8481 -0.9966
  101OSM   H18U10187   4.434   2.775   8.945 -0.8699  1.2159  2.1503
  101OSM    C1F10188   4.160   3.472  10.636  0.9310  0.1605 -0.0484
  101OSM     OF10189   4.207   3.437  10.744  0.2701 -0.4568 -0.2752
  101OSM    C2F10190   4.224   3.582  10.551  0.5267  0.5628 -0.4266
  101OSM    H2F10191   4.304   3.627  10.614  0.7363 -0.2762 -0.0806
  101OSM    H2G10192   4.140   3.652  10.533  0.7605  0.9463 -0.0254
  101OSM    C3F10193   4.289   3.534  10.420  0.1281  0.3405  0.7881
  101OSM    H3F10194   4.217   3.476  10.360  0.1260  1.4020 -0.2504
  101OSM    H3G10195   4.378   3.470  10.439 -2.0064 -2.0399  2.9936
  101OSM    C4F10196   4.315   3.656  10.328  0.3181  0.0799 -0.7869
  101OSM    H4F10197   4.349   3.745  10.384 -1.7916  0.6848 -0.4318
  101OSM    H4G10198   4.220   3.682  10.276 -1.2300 -3.8051 -0.1046
  101OSM    C5F10199   4.427   3.617  10.226  0.2788  0.2207  0.4525
  101OSM    H5F10200   4.520   3.582  10.277  0.8995  1.0888 -0.0775
  101OSM    H5G10201   4.454   3.709  10.170 -0.2753 -0.2224 -0.5519
  101OSM    C6F10202   4.391   3.502  10.136 -0.5346 -0.0580 -0.3702
  101OSM    H6F10203   4.414   3.402  10.180  0.6793  1.0556  1.6087
  101OSM    H6G10204   4.283   3.503  10.110 -1.4433  1.1695  3.2069
  101OSM    C7F10205   4.474   3.524  10.006 -0.1662  0.3565  0.1035
  101OSM    H7F10206   4.577   3.555  10.034 -0.0740  1.8030 -1.7440
  101OSM    H7G10207   4.427   3.603   9.944 -1.1942 -0.3800 -0.0687
  101OSM    C8F10208   4.492   3.394   9.925 -0.0714  1.3594  1.4438
  101OSM    H8F10209   4.535   3.316   9.992 -0.4586  0.3256  0.5198
  101OSM    H8G10210   4.565   3.424   9.848 -1.0617  2.5665  0.9685
  101OSM    C9F10211   4.374   3.329   9.864 -0.3627  0.3227  0.3427
  101OSM    H9F10212   4.311   3.264   9.926 -1.6560  2.7486  1.6301
  101OSM   C10F10213   4.336   3.355   9.735 -0.7250 -0.6731 -0.5398
  101OSM   H10F10214   4.241   3.314   9.698 -0.0646 -0.1270 -2.9355
  101OSM   C11F10215   4.412   3.450   9.644  0.2790 -0.6084  0.0857
  101OSM   H11F10216   4.457   3.529   9.707 -2.1152  1.5115 -0.7638
  101OSM   H11G10217   4.337   3.495   9.576 -0.1610  0.3943  1.2218
  101OSM   C12F10218   4.518   3.385   9.552  1.1201 -0.3203  0.0368
  101OSM   H12F10219   4.616   3.350   9.591  1.7926  0.9262 -0.5140
  101OSM   H12G10220   4.558   3.469   9.492 -1.7839 -0.9876 -2.9666
  101OSM   C13F10221   4.463   3.281   9.454 -0.0813  0.6237  0.3154
  101OSM   H13F10222   4.378   3.335   9.406  2.1551  2.0247 -2.2255
  101OSM   H13G10223   4.424   3.196   9.513  1.7475 -0.9227 -0.6552
  101OSM   C14F10224   4.574   3.241   9.357 -0.1264  0.1966  0.3756
  101OSM   H14F10225   4.654   3.183   9.408 -1.6463 -1.3266  1.0758
  101OSM   H14G10226   4.619   3.335   9.318  1.4756 -0.7750 -0.1318
  101OSM   C15F10227   4.524   3.135   9.247  0.2356 -0.2439 -0.3037
  101OSM   H15F10228   4.436   3.183   9.198  1.4960  1.4439 -0.9593
  101OSM   H15G10229   4.492   3.038   9.290  0.5120 -1.8840 -3.6845
  101OSM   C16F10230   4.633   3.094   9.144  0.3707  0.8258  0.3693
  101OSM   H16F10231   4.724   3.067   9.202  0.5700 -0.5611 -0.5719
  101OSM   H16G10232   4.658   3.188   9.089  1.3311  0.1668 -0.3390
  101OSM   C17F10233   4.603   2.984   9.042  0.0704  0.3441 -0.3114
  101OSM   H17F10234   4.517   3.022   8.983  0.6539  0.1005 -1.3198
  101OSM   H17G10235   4.563   2.896   9.096  0.9673  0.5226  0.6660
  101OSM   C18F10236   4.723   2.968   8.939 -0.3931 -0.4990  1.2348
  101OSM   H18F10237   4.817   2.961   8.997  1.4800  2.5928 -1.2168
  101OSM   H18G10238   4.720   3.048   8.862  0.8577 -1.3599  0.2681
  101OSM   H18H10239   4.720   2.879   8.872 -0.3730  2.6123 -3.1567
  102OSM      N10240   6.760   5.264  11.070  0.6223  0.3338  0.2680
  102OSM    C1510241   6.746   5.208  11.209  0.0581 -0.1895 -0.8090
  102OSM   H15A10242   6.676   5.261  11.272 -0.7453 -0.5097 -1.4314
  102OSM   H15B10243   6.841   5.214  11.260 -0.4964 -3.9790  0.8294
  102OSM   H15C10244   6.710   5.106  11.215  0.9767 -0.4039  1.5173
  102OSM    C1410245   6.803   5.406  11.078 -0.0066  0.3641  0.1808
  102OSM   H14A10246   6.891   5.412  11.139 -0.6873  2.9970  1.0007
  102OSM   H14B10247   6.722   5.462  11.124 -0.4129 -1.3451  1.5767
  102OSM   H14C10248   6.825   5.443  10.979  0.1457  0.5492  0.2847
  102OSM    C1310249   6.869   5.184  11.017  0.0768  0.7865  0.0861
  102OSM   H13A10250   6.964   5.212  11.061  0.3394 -1.3048  0.8779
  102OSM   H13B10251   6.873   5.200  10.910  0.1699 -0.1756 -0.0533
  102OSM   H13C10252   6.864   5.077  11.030  1.3892  0.6454 -0.4329
  102OSM    C1210253   6.631   5.255  10.992 -0.2033 -0.3626  0.3946
  102OSM   H12A10254   6.556   5.308  11.049 -0.2957  1.6658 -1.5728
  102OSM   H12B10255   6.597   5.153  10.976 -1.7336  0.1537  0.2978
  102OSM    C1110256   6.638   5.323  10.849  0.3290 -0.1066 -0.3442
  102OSM   H11A10257   6.653   5.432  10.865 -1.1717 -0.1558  1.6749
  102OSM   H11B10258   6.530   5.315  10.824  0.0670  0.2236  0.6428
  102OSM      P10259   6.704   5.137  10.673  0.1216 -0.0418 -0.5048
  102OSM    O1310260   6.833   5.071  10.652  0.6992  0.6839 -0.1089
  102OSM    O1410261   6.605   5.058  10.751 -0.3156  0.2293 -0.6074
  102OSM    O1110262   6.640   5.175  10.531  0.1270 -0.5602 -0.3651
  102OSM    O1210263   6.730   5.271  10.753  0.0220  0.1190 -0.2278
  102OSM    C1S10264   6.679   5.305  10.490  0.3362 -0.0158 -0.9080
  102OSM    H1S10265   6.789   5.316  10.477  0.2266 -0.6205 -2.5314
  102OSM    H1T10266   6.649   5.381  10.565 -0.2199 -0.2932 -0.8479
  102OSM     NF10267   6.714   5.459  10.299 -1.1891  0.1539 -0.2187
  102OSM    HNF10268   6.695   5.556  10.317  0.2054  0.1919  1.1298
  102OSM    C2S10269   6.623   5.357  10.355  0.0304 -0.0083 -0.2108
  102OSM    H2S10270   6.618   5.268  10.288 -1.4169 -0.3370  0.3295
  102OSM    C3S10271   6.473   5.398  10.384 -0.3291 -0.6104 -0.2199
  102OSM    H3S10272   6.477   5.460  10.476  0.7955 -2.2975  0.8998
  102OSM     O310273   6.383   5.289  10.411  0.3929  0.4999  0.3634
  102OSM    HO310274   6.437   5.210  10.419 -1.5850 -0.9200  0.1338
  102OSM    C4S10275   6.420   5.467  10.265 -0.1196  0.7365  0.4670
  102OSM    H4S10276   6.418   5.402  10.176  1.3070 -1.2796  1.8487
  102OSM    C5S10277   6.368   5.590  10.249  0.1322  0.3824 -0.4024
  102OSM    H5S10278   6.345   5.648  10.340  3.6475 -1.5125  1.8280
  102OSM    C6S10279   6.328   5.634  10.109  0.2245 -0.6065  0.2118
  102OSM    H6S10280   6.285   5.737  10.107  1.3178 -0.1501 -2.4309
  102OSM    H6T10281   6.240   5.576  10.073 -1.6577  2.6239 -0.6930
  102OSM    C7S10282   6.444   5.633  10.006  0.0060 -0.5652  0.5792
  102OSM    H7S10283   6.478   5.532   9.973  1.2837 -0.2240  0.8250
  102OSM    H7T10284   6.533   5.683  10.050  0.8830 -1.7515  0.1755
  102OSM    C8S10285   6.406   5.708   9.873 -0.3407 -0.6465  0.6693
  102OSM    H8S10286   6.395   5.818   9.891  0.1908 -0.0411 -2.4913
  102OSM    H8T10287   6.308   5.671   9.837 -0.6340 -0.5199  1.3209
  102OSM    C9S10288   6.509   5.676   9.761 -0.0497 -0.7384 -0.1359
  102OSM    H9S10289   6.511   5.565   9.757  3.0481 -0.7327 -0.2561
  102OSM    H9T10290   6.612   5.711   9.788  0.2360 -0.9722 -0.9124
  102OSM   C10S10291   6.484   5.734   9.623  0.4875  0.4562 -0.4981
  102OSM   H10S10292   6.480   5.844   9.634 -1.0426  0.1695  2.2041
  102OSM   H10T10293   6.381   5.703   9.596  0.2367  0.4183  0.5099
  102OSM   C11S10294   6.591   5.696   9.518  0.2597  0.4068  0.4459
  102OSM   H11S10295   6.592   5.586   9.502  0.7211  0.3553  0.8221
  102OSM   H11T10296   6.690   5.724   9.560  0.0552 -1.7840  2.4905
  102OSM   C12S10297   6.561   5.767   9.387  0.2032  0.6681  0.4312
  102OSM   H12S10298   6.576   5.877   9.398 -1.6292  0.9078  0.6211
  102OSM   H12T10299   6.461   5.742   9.348  0.6679  0.1535 -0.4499
  102OSM   C13S10300   6.669   5.738   9.278 -0.0641  0.1908  0.2706
  102OSM   H13S10301   6.690   5.630   9.264  1.1016  0.5603 -0.9628
  102OSM   H13T10302   6.764   5.788   9.309 -0.3661  0.0216  1.4716
  102OSM   C14S10303   6.630   5.793   9.143  0.1453  0.1380  0.5518
  102OSM   H14S10304   6.609   5.902   9.154  0.4269  0.1710  0.7527
  102OSM   H14T10305   6.539   5.758   9.090  1.1920 -0.0972 -1.1222
  102OSM   C15S10306   6.739   5.771   9.038  0.4051 -0.5360  0.2650
  102OSM   H15S10307   6.776   5.667   9.030  0.0660 -0.5013 -2.0255
  102OSM   H15T10308   6.828   5.827   9.073 -0.0776 -0.3225  1.1764
  102OSM   C16S10309   6.686   5.826   8.901 -0.2542  0.9063  0.1369
  102OSM   H16S10310   6.682   5.937   8.895 -0.9477  0.7985 -1.8245
  102OSM   H16T10311   6.588   5.789   8.864  0.7042 -0.9561 -0.6016
  102OSM   C17S10312   6.780   5.788   8.785 -0.0861  0.2386 -0.1974
  102OSM   H17S10313   6.728   5.802   8.688 -1.6267 -0.5493  0.4785
  102OSM   H17T10314   6.810   5.682   8.801  2.0650  1.0875  1.5477
  102OSM   C18S10315   6.896   5.881   8.781  0.0819 -0.3826  0.5732
  102OSM   H18S10316   6.965   5.856   8.864  0.0548  1.7306  1.2719
  102OSM   H18T10317   6.870   5.987   8.803 -0.4075 -0.5741  0.9347
  102OSM   H18U10318   6.947   5.886   8.683 -1.3308 -1.6445 -0.2500
  102OSM    C1F10319   6.831   5.424  10.248  0.1926  0.0705 -0.0234
  102OSM     OF10320   6.867   5.310  10.241 -0.2766  0.3871  0.3783
  102OSM    C2F10321   6.931   5.539  10.221  0.0354 -0.1846 -0.2540
  102OSM    H2F10322   6.999   5.535  10.308 -0.2372  1.1038  0.0213
  102OSM    H2G10323   6.878   5.637  10.217 -0.5271 -0.4497  0.5910
  102OSM    C3F10324   7.003   5.509  10.096  0.4417 -0.2840 -0.0389
  102OSM    H3F10325   7.040   5.408  10.125  1.1645  0.3316  1.2309
  102OSM    H3G10326   7.088   5.575  10.068  0.6400  0.8330  3.0501
  102OSM    C4F10327   6.916   5.518   9.968 -1.0038  0.5690 -0.0649
  102OSM    H4F10328   6.858   5.612   9.963  0.5958  1.5058 -1.7703
  102OSM    H4G10329   6.835   5.442   9.979 -0.7840  0.4696  0.9292
  102OSM    C5F10330   6.986   5.515   9.834  0.1868  0.0881  0.2461
  102OSM    H5F10331   7.073   5.447   9.844  1.2903  1.3525 -0.5227
  102OSM    H5G10332   7.029   5.617   9.822  1.5115 -0.6224 -1.2433
  102OSM    C6F10333   6.904   5.487   9.708 -0.1450 -0.3737  0.4425
  102OSM    H6F10334   6.798   5.507   9.732 -0.8752 -1.7905 -1.4153
  102OSM    H6G10335   6.919   5.378   9.692  1.4118  0.1065 -1.6253
  102OSM    C7F10336   6.950   5.562   9.583 -0.7671 -0.2319  0.0715
  102OSM    H7F10337   7.061   5.558   9.587 -0.7405  0.0240 -0.4073
  102OSM    H7G10338   6.936   5.672   9.586  1.7348  0.1578 -0.8114
  102OSM    C8F10339   6.911   5.497   9.449  0.3045 -0.1611  0.3708
  102OSM    H8F10340   6.801   5.500   9.434  0.1217  0.1094  1.7109
  102OSM    H8G10341   6.935   5.389   9.439  1.0284  0.1376 -1.1636
  102OSM    C9F10342   6.979   5.578   9.339 -0.4610 -0.6567  0.1868
  102OSM    H9F10343   6.979   5.687   9.356  1.7996 -0.5140 -0.5361
  102OSM   C10F10344   7.031   5.535   9.219  0.3371 -0.4518  0.1024
  102OSM   H10F10345   7.076   5.602   9.144  0.0178 -1.0443 -0.6249
  102OSM   C11F10346   7.022   5.388   9.179  0.5151  0.4426  0.2712
  102OSM   H11F10347   6.926   5.349   9.220  0.3579 -0.3217 -0.7771
  102OSM   H11G10348   7.102   5.327   9.226  1.8696 -0.0867 -2.6072
  102OSM   C12F10349   7.036   5.356   9.026 -0.9783 -0.5065  0.4836
  102OSM   H12F10350   7.066   5.250   9.012  2.0995  0.4323 -0.5038
  102OSM   H12G10351   7.109   5.422   8.975  0.9687 -1.2218  2.2964
  102OSM   C13F10352   6.899   5.378   8.963 -0.0095 -0.2709 -0.3012
  102OSM   H13F10353   6.874   5.485   8.979  2.2559  0.1411  0.7745
  102OSM   H13G10354   6.832   5.315   9.025  0.2975  0.2703  0.5835
  102OSM   C14F10355   6.888   5.348   8.816  0.1753  0.5859 -0.4963
  102OSM   H14F10356   6.937   5.250   8.799 -0.4524  0.3923 -1.2189
  102OSM   H14G10357   6.935   5.427   8.755 -2.5195  0.8243 -2.3695
  102OSM   C15F10358   6.743   5.368   8.772 -0.0460 -0.0253 -0.3063
  102OSM   H15F10359   6.737   5.476   8.747  3.4650  0.1916 -0.5240
  102OSM   H15G10360   6.682   5.359   8.864  1.5071 -2.9758  0.5006
  102OSM   C16F10361   6.694   5.276   8.667 -0.0943 -0.4356 -0.2534
  102OSM   H16F10362   6.665   5.183   8.721  2.0843 -0.6303  0.6454
  102OSM   H16G10363   6.779   5.241   8.605  1.2542  1.4647  0.4434
  102OSM   C17F10364   6.594   5.338   8.572 -0.3292 -0.8515  1.2319
  102OSM   H17F10365   6.607   5.447   8.558  0.7732 -1.0388  0.7866
  102OSM   H17G10366   6.496   5.336   8.624 -1.2498 -1.0181 -0.4619
  102OSM   C18F10367   6.601   5.264   8.435 -0.0782  0.5098  0.3364
  102OSM   H18F10368   6.690   5.287   8.373  0.1379  1.9072  1.1328
  102OSM   H18G10369   6.516   5.306   8.377 -3.0556 -1.6725  2.9437
  102OSM   H18H10370   6.580   5.156   8.444  3.3577 -0.1872  0.4521
  103OSM      N10371   5.527   1.523  10.883  0.2765 -0.1778  0.2679
  103OSM    C1510372   5.407   1.530  10.965 -0.0992 -0.6078  0.1333
  103OSM   H15A10373   5.345   1.614  10.937 -0.5290 -0.8211  0.4465
  103OSM   H15B10374   5.426   1.524  11.071  2.2414  0.0839 -0.2083
  103OSM   H15C10375   5.345   1.445  10.942 -0.4744  0.3485 -2.6052
  103OSM    C1410376   5.618   1.632  10.928 -0.1553  0.6249 -0.3954
  103OSM   H14A10377   5.574   1.728  10.904 -1.0174 -0.2479 -2.4756
  103OSM   H14B10378   5.718   1.643  10.889 -1.1732  3.2735 -2.4574
  103OSM   H14C10379   5.623   1.628  11.036  0.0954  0.8147 -0.3988
  103OSM    C1310380   5.601   1.396  10.915  0.3875  0.4449 -0.2411
  103OSM   H13A10381   5.696   1.391  10.866  0.8980  1.1907  0.6442
  103OSM   H13B10382   5.547   1.312  10.873  1.0224  0.6043 -1.3831
  103OSM   H13C10383   5.621   1.386  11.021  2.8771  1.0979 -0.6257
  103OSM    C1210384   5.500   1.540  10.739  0.0155 -0.7079 -0.3004
  103OSM   H12A10385   5.425   1.475  10.697 -1.8806  0.2846  1.4492
  103OSM   H12B10386   5.589   1.512  10.684  1.0054  0.2889  0.7695
  103OSM    C1110387   5.459   1.679  10.689 -0.6936 -0.4517 -0.3328
  103OSM   H11A10388   5.425   1.657  10.586  0.6596  0.2696 -0.9356
  103OSM   H11B10389   5.546   1.748  10.686  0.4441 -1.9341 -1.8610
  103OSM      P10390   5.337   1.888  10.793 -0.1126 -0.0174  0.0234
  103OSM    O1310391   5.228   1.915  10.895  0.1075  0.3621  0.5946
  103OSM    O1410392   5.476   1.938  10.830 -0.0632  0.1516  0.2486
  103OSM    O1110393   5.303   1.945  10.649  0.1329 -0.0025  0.3327
  103OSM    O1210394   5.344   1.730  10.763 -0.2200  0.2203  0.2833
  103OSM    C1S10395   5.392   1.986  10.549  0.4993  0.6671 -0.0276
  103OSM    H1S10396   5.459   1.901  10.522  1.8017  1.6095  0.1907
  103OSM    H1T10397   5.464   2.067  10.573  0.3101  0.1885  2.2679
  103OSM     NF10398   5.420   2.046  10.310 -0.1258 -0.3012  0.1470
  103OSM    HNF10399   5.471   2.131  10.306 -1.8060  0.7896  1.3655
  103OSM    C2S10400   5.320   2.023  10.416  0.4127 -0.4736  0.1186
  103OSM    H2S10401   5.256   1.940  10.382 -1.4983  0.6654  0.8501
  103OSM    C3S10402   5.228   2.149  10.443 -0.3465 -0.6192  0.0821
  103OSM    H3S10403   5.308   2.222  10.469 -0.0280  0.0063 -2.4930
  103OSM     O310404   5.140   2.139  10.559 -0.3251  0.2430  1.0949
  103OSM    HO310405   5.161   2.054  10.598 -0.2876  0.6640  2.0075
  103OSM    C4S10406   5.158   2.188  10.311  0.2539 -0.0304  0.5514
  103OSM    H4S10407   5.208   2.261  10.246  3.1211 -1.7432  0.7727
  103OSM    C5S10408   5.030   2.151  10.266 -0.1030  1.0951  0.3200
  103OSM    H5S10409   4.980   2.073  10.325 -1.2408  0.4615 -1.4728
  103OSM    C6S10410   4.986   2.189  10.130 -0.0706  0.8080 -0.3501
  103OSM    H6S10411   5.069   2.245  10.081 -0.3042 -0.4418 -2.2176
  103OSM    H6T10412   4.908   2.269  10.137  0.1991  1.0633 -0.2652
  103OSM    C7S10413   4.958   2.083  10.025 -0.2641  0.0076 -0.0201
  103OSM    H7S10414   4.933   2.134   9.929 -0.3355  0.7301  0.3747
  103OSM    H7T10415   4.871   2.018  10.049 -0.8366  0.6647 -0.3027
  103OSM    C8S10416   5.074   1.989  10.004  0.0239  0.3001  0.0837
  103OSM    H8S10417   5.085   1.932  10.098 -1.0715 -2.6243 -1.4937
  103OSM    H8T10418   5.169   2.047  10.002  1.1336 -1.3905  2.7268
  103OSM    C9S10419   5.054   1.889   9.888  0.2769  0.1046 -0.0566
  103OSM    H9S10420   4.966   1.827   9.914  1.0662 -1.2489 -0.5747
  103OSM    H9T10421   5.138   1.818   9.898 -1.5667 -2.2628 -0.9747
  103OSM   C10S10422   5.040   1.948   9.745 -0.6535  0.3519 -0.2527
  103OSM   H10S10423   5.097   2.040   9.724 -0.3571 -0.3792 -2.7878
  103OSM   H10T10424   4.933   1.979   9.740 -0.7385  0.1199  0.0444
  103OSM   C11S10425   5.065   1.840   9.638 -0.6990 -0.2974 -0.1196
  103OSM   H11S10426   4.999   1.753   9.655  1.2183 -1.9768 -0.9876
  103OSM   H11T10427   5.172   1.816   9.655 -0.8461 -1.3079 -0.6104
  103OSM   C12S10428   5.058   1.877   9.490  0.0079 -0.0876  0.5375
  103OSM   H12S10429   5.100   1.980   9.485  1.9898 -0.8769  0.8294
  103OSM   H12T10430   4.953   1.883   9.455  0.2214  0.8554  0.0256
  103OSM   C13S10431   5.117   1.774   9.396  0.5614 -0.6367 -0.1951
  103OSM   H13S10432   5.078   1.674   9.427 -0.7031 -0.4884 -1.2308
  103OSM   H13T10433   5.225   1.752   9.408  1.1515  1.2670 -1.7287
  103OSM   C14S10434   5.073   1.798   9.252 -0.6850 -0.6424  0.2930
  103OSM   H14S10435   4.964   1.817   9.255 -0.3768  1.2367 -0.0070
  103OSM   H14T10436   5.101   1.712   9.187 -0.5097  0.0615 -0.5620
  103OSM   C15S10437   5.155   1.918   9.208  0.1484  0.5330 -0.1904
  103OSM   H15S10438   5.261   1.892   9.230 -0.0912  0.8855  1.4823
  103OSM   H15T10439   5.129   2.013   9.260  0.5302 -0.8617  2.6366
  103OSM   C16S10440   5.129   1.954   9.055 -0.4340 -0.1904 -0.3918
  103OSM   H16S10441   5.169   1.884   8.978 -0.7224 -0.6170 -0.1563
  103OSM   H16T10442   5.187   2.047   9.039 -0.8936  0.1867  0.1006
  103OSM   C17S10443   4.983   1.977   9.029  0.3489  0.1409  1.0088
  103OSM   H17S10444   4.938   2.009   9.125  1.7692 -0.7778  2.0001
  103OSM   H17T10445   4.935   1.880   9.000 -0.9705  0.4064  2.2305
  103OSM   C18S10446   4.946   2.087   8.929  0.2775 -0.0360 -0.3179
  103OSM   H18S10447   4.990   2.060   8.830 -1.5694  0.2689 -1.2414
  103OSM   H18T10448   4.987   2.187   8.952 -1.6604  0.7258 -0.1377
  103OSM   H18U10449   4.838   2.095   8.909  0.3994 -0.9629 -1.4106
  103OSM    C1F10450   5.473   1.936  10.256 -0.5839 -0.1359 -0.9792
  103OSM     OF10451   5.424   1.822  10.284  0.4802 -0.0562 -0.2951
  103OSM    C2F10452   5.593   1.953  10.163 -0.0625 -0.1269  0.1815
  103OSM    H2F10453   5.675   1.968  10.236 -0.7158  0.4154  0.8012
  103OSM    H2G10454   5.581   2.038  10.093  0.3219 -1.1924 -1.2162
  103OSM    C3F10455   5.631   1.820  10.089 -0.7753  0.2884  0.5229
  103OSM    H3F10456   5.626   1.740  10.165 -0.1047  3.3334  3.9240
  103OSM    H3G10457   5.736   1.834  10.056 -0.0589 -0.3571  2.4603
  103OSM    C4F10458   5.541   1.788   9.964 -0.0505  0.8450 -0.3004
  103OSM    H4F10459   5.439   1.809  10.001 -0.1896  1.1668 -0.8573
  103OSM    H4G10460   5.553   1.679   9.941 -1.4063  0.1215  2.3366
  103OSM    C5F10461   5.576   1.880   9.840 -0.2878  0.0852  0.4565
  103OSM    H5F10462   5.677   1.856   9.799 -1.2875 -1.1192 -1.3171
  103OSM    H5G10463   5.591   1.983   9.880  2.6035 -0.0988 -0.0361
  103OSM    C6F10464   5.479   1.874   9.718 -0.2110 -0.6540  0.5916
  103OSM    H6F10465   5.373   1.893   9.747  0.5172  0.3686  2.6443
  103OSM    H6G10466   5.484   1.771   9.676  0.0790 -0.3362 -0.1572
  103OSM    C7F10467   5.537   1.976   9.617 -0.2254  0.0712 -0.2979
  103OSM    H7F10468   5.544   2.073   9.672 -1.0731  0.3609 -0.6811
  103OSM    H7G10469   5.450   1.986   9.548 -0.5265 -1.3488 -0.1329
  103OSM    C8F10470   5.662   1.944   9.538  0.2327  0.1777 -0.1650
  103OSM    H8F10471   5.747   1.921   9.606  0.4475  0.9043 -0.1803
  103OSM    H8G10472   5.698   2.040   9.495 -2.1809  0.7920 -0.9088
  103OSM    C9F10473   5.645   1.838   9.434 -0.1364 -0.4829 -0.1736
  103OSM    H9F10474   5.630   1.738   9.478  0.6523 -0.2499  0.6286
  103OSM   C10F10475   5.615   1.862   9.303 -0.4074 -0.5120  0.4162
  103OSM   H10F10476   5.615   1.774   9.236  0.4908 -0.7376  0.7071
  103OSM   C11F10477   5.594   1.991   9.226 -0.4047 -0.1519 -0.2758
  103OSM   H11F10478   5.630   2.081   9.280 -2.7244  0.0322  1.0530
  103OSM   H11G10479   5.486   2.013   9.212 -0.3500  1.3733  1.4898
  103OSM   C12F10480   5.666   2.000   9.087 -0.2371  0.1473 -0.5665
  103OSM   H12F10481   5.603   1.953   9.009 -1.3169  1.4641 -0.4974
  103OSM   H12G10482   5.758   1.938   9.091 -0.3161 -0.0661 -1.9130
  103OSM   C13F10483   5.717   2.141   9.043 -0.0783 -0.5471 -0.0621
  103OSM   H13F10484   5.790   2.178   9.118  0.5820  1.2076 -1.5550
  103OSM   H13G10485   5.638   2.217   9.023  0.7520  0.1268 -0.7907
  103OSM   C14F10486   5.809   2.138   8.920  0.2559 -0.0870 -0.0918
  103OSM   H14F10487   5.905   2.087   8.942 -0.5451 -1.1641  0.9934
  103OSM   H14G10488   5.826   2.248   8.917  1.3027 -0.2505 -0.5187
  103OSM   C15F10489   5.747   2.085   8.792  1.2088 -0.2640 -0.1021
  103OSM   H15F10490   5.646   2.129   8.802  1.1467 -1.0055  3.0240
  103OSM   H15G10491   5.762   1.975   8.799 -0.0001 -0.2890  2.2765
  103OSM   C16F10492   5.821   2.126   8.660  0.3293 -0.2423  0.0091
  103OSM   H16F10493   5.915   2.066   8.661  1.4898  1.5602  1.5477
  103OSM   H16G10494   5.834   2.236   8.658 -0.7512 -0.1187 -0.7043
  103OSM   C17F10495   5.746   2.102   8.531  0.5859 -0.4178  0.0582
  103OSM   H17F10496   5.646   2.150   8.541  0.7655  0.9656 -3.9697
  103OSM   H17G10497   5.725   1.994   8.514 -1.3728 -0.0657  0.1040
  103OSM   C18F10498   5.817   2.152   8.407  0.2299  0.1539  0.2474
  103OSM   H18F10499   5.845   2.260   8.416  0.9611  0.1269 -1.5723
  103OSM   H18G10500   5.764   2.139   8.311  0.8271  0.2565 -0.0991
  103OSM   H18H10501   5.917   2.105   8.398 -0.0375 -0.1279 -1.3581
  104OSM      N10502   6.748   0.955  10.947 -0.7274 -0.6457 -0.0503
  104OSM    C1510503   6.694   0.820  10.931  0.2547  0.4595 -0.2039
  104OSM   H15A10504   6.767   0.742  10.914 -1.4099 -1.5573  1.5373
  104OSM   H15B10505   6.628   0.814  10.846 -0.4499  0.1600  0.3605
  104OSM   H15C10506   6.630   0.792  11.013 -2.0444  1.9640 -1.4443
  104OSM    C1410507   6.635   1.040  10.997 -0.4709 -0.0195 -0.1515
  104OSM   H14A10508   6.567   1.048  10.913  0.1338 -0.2259 -0.6672
  104OSM   H14B10509   6.680   1.132  11.028  0.4738 -0.5504  0.0673
  104OSM   H14C10510   6.594   1.003  11.090 -1.7503  2.1212  0.1559
  104OSM    C1310511   6.860   0.962  11.054  0.8719  0.1181 -0.3725
  104OSM   H13A10512   6.818   0.928  11.148  0.2285  0.0794 -0.6691
  104OSM   H13B10513   6.895   1.063  11.067  0.5063  0.4886 -2.1851
  104OSM   H13C10514   6.930   0.885  11.025 -0.4742 -1.9669  1.6184
  104OSM    C1210515   6.813   1.007  10.818  0.1122 -0.0642 -0.4566
  104OSM   H12A10516   6.880   0.929  10.787  1.1457  0.9014 -0.6972
  104OSM   H12B10517   6.875   1.090  10.849  1.1856 -0.6376 -1.0323
  104OSM    C1110518   6.723   1.039  10.690 -0.5090 -0.4600  0.2808
  104OSM   H11A10519   6.652   0.954  10.683  0.3932 -1.3819  1.8535
  104OSM   H11B10520   6.782   1.041  10.596 -1.7660  0.7266 -0.4947
  104OSM      P10521   6.719   1.295  10.705 -0.1249  0.3649  0.0981
  104OSM    O1310522   6.625   1.398  10.763  0.1731 -0.0865 -0.2709
  104OSM    O1410523   6.843   1.287  10.782  0.1868 -0.2618 -0.0780
  104OSM    O1110524   6.758   1.330  10.553 -0.5697 -0.2629  0.1311
  104OSM    O1210525   6.648   1.160  10.701  0.0982  0.5683  0.2576
  104OSM    C1S10526   6.650   1.345  10.461 -0.7917 -0.7098  0.6850
  104OSM    H1S10527   6.588   1.435  10.481 -0.3576 -0.0196 -1.0301
  104OSM    H1T10528   6.581   1.258  10.472 -0.4230 -0.8889  1.6402
  104OSM     NF10529   6.598   1.356  10.219 -0.3333 -0.0831 -0.1349
  104OSM    HNF10530   6.559   1.268  10.194 -2.1478  0.5194  0.4691
  104OSM    C2S10531   6.705   1.354  10.319 -0.1962 -0.3059  0.3716
  104OSM    H2S10532   6.765   1.447  10.307  1.9403 -1.8556 -1.4989
  104OSM    C3S10533   6.812   1.234  10.301 -0.5078  0.3718 -0.5477
  104OSM    H3S10534   6.768   1.136  10.331  0.6937 -0.5860 -1.8623
  104OSM     O310535   6.929   1.242  10.378 -0.4063 -0.4546  0.3625
  104OSM    HO310536   6.903   1.302  10.449 -1.4027 -1.8588  1.2129
  104OSM    C4S10537   6.847   1.229  10.151  0.1634 -0.9475 -0.0407
  104OSM    H4S10538   6.863   1.334  10.123 -0.9007 -1.0110 -0.9514
  104OSM    C5S10539   6.849   1.121  10.068  0.2106 -0.1175  0.2667
  104OSM    H5S10540   6.830   1.017  10.099  0.3174 -0.4907 -0.9094
  104OSM    C6S10541   6.867   1.139   9.923 -0.6908 -0.3627 -0.0117
  104OSM    H6S10542   6.945   1.061   9.906 -1.0224 -0.4054 -1.3736
  104OSM    H6T10543   6.894   1.242   9.892 -0.6345 -0.9861 -2.0995
  104OSM    C7S10544   6.745   1.113   9.833  0.4105  0.4650  0.6066
  104OSM    H7S10545   6.668   1.190   9.857 -0.2132  0.3412 -0.9094
  104OSM    H7T10546   6.697   1.014   9.849 -2.4030  1.5726 -0.5933
  104OSM    C8S10547   6.794   1.124   9.684  0.0998 -0.2994  0.4683
  104OSM    H8S10548   6.896   1.083   9.675  0.7270  1.3543 -0.1177
  104OSM    H8T10549   6.798   1.231   9.656 -1.9919 -0.0219  1.1382
  104OSM    C9S10550   6.707   1.055   9.583 -0.6433 -0.2469  0.2479
  104OSM    H9S10551   6.612   1.110   9.572  0.9817  2.3634 -1.2794
  104OSM    H9T10552   6.692   0.950   9.615 -0.7702 -0.5402 -0.7429
  104OSM   C10S10553   6.771   1.055   9.440  0.7266  0.5602  0.0279
  104OSM   H10S10554   6.872   1.012   9.454  0.4815  0.5599  1.9367
  104OSM   H10T10555   6.766   1.158   9.398 -0.6274 -0.5069 -2.4998
  104OSM   C11S10556   6.715   0.947   9.339  0.2449  0.2359  0.2101
  104OSM   H11S10557   6.605   0.955   9.333  0.1543 -0.3208  1.0078
  104OSM   H11T10558   6.741   0.850   9.386  1.4114 -0.1057 -1.1052
  104OSM   C12S10559   6.782   0.952   9.203 -0.2582  0.7111  0.6725
  104OSM   H12S10560   6.888   0.919   9.218 -0.3727 -0.8655 -1.7505
  104OSM   H12T10561   6.791   1.054   9.161  0.4202 -0.3132 -1.7670
  104OSM   C13S10562   6.717   0.856   9.103  0.1587  0.2168 -0.4824
  104OSM   H13S10563   6.615   0.897   9.085  0.8426  2.1952 -0.0089
  104OSM   H13T10564   6.706   0.754   9.146  0.8948  0.5722  0.5643
  104OSM   C14S10565   6.805   0.852   8.976  0.7032  0.7601 -0.1546
  104OSM   H14S10566   6.897   0.795   9.001 -0.1303 -1.5080 -2.0672
  104OSM   H14T10567   6.827   0.958   8.950 -2.6081  1.9595  1.6990
  104OSM   C15S10568   6.721   0.800   8.855  0.1943  0.1148  0.0953
  104OSM   H15S10569   6.732   0.877   8.776 -1.0562  1.2223  0.9759
  104OSM   H15T10570   6.611   0.795   8.870 -0.3256  0.9265 -3.0097
  104OSM   C16S10571   6.763   0.667   8.799  0.4794  0.0623 -0.0361
  104OSM   H16S10572   6.763   0.596   8.885  1.4197  2.8965  2.3923
  104OSM   H16T10573   6.867   0.668   8.760 -0.3665  0.1711 -2.3758
  104OSM   C17S10574   6.671   0.615   8.683  0.7527 -0.6208 -0.0841
  104OSM   H17S10575   6.562   0.616   8.705  0.5955  0.1322 -0.8653
  104OSM   H17T10576   6.699   0.508   8.672  0.7534 -0.8025  1.5623
  104OSM   C18S10577   6.704   0.695   8.556  0.2193  0.2383  0.3333
  104OSM   H18S10578   6.640   0.665   8.471 -2.3654 -0.0851  2.3212
  104OSM   H18T10579   6.809   0.687   8.521  0.0368 -0.1610 -0.1310
  104OSM   H18U10580   6.685   0.803   8.574 -0.7938 -0.2377  2.2620
  104OSM    C1F10581   6.533   1.474  10.196 -0.1750 -0.4876 -0.6340
  104OSM     OF10582   6.582   1.580  10.231 -0.1418 -0.7506  0.2177
  104OSM    C2F10583   6.397   1.463  10.132  0.0144 -0.2752  0.4009
  104OSM    H2F10584   6.334   1.427  10.216 -0.8032  1.4483  0.5353
  104OSM    H2G10585   6.394   1.375  10.063 -1.4591 -0.3908  0.6007
  104OSM    C3F10586   6.339   1.594  10.078 -0.2634 -0.1144  1.0635
  104OSM    H3F10587   6.314   1.659  10.165 -2.5362 -0.1134  0.4418
  104OSM    H3G10588   6.242   1.561  10.035  0.9311  1.1896 -2.9406
  104OSM    C4F10589   6.415   1.676   9.965  0.0531  0.1616 -0.3800
  104OSM    H4F10590   6.504   1.713  10.020 -0.1801 -0.5133  0.4775
  104OSM    H4G10591   6.351   1.760   9.931  1.4046  0.9892 -0.8937
  104OSM    C5F10592   6.470   1.591   9.844  0.1566 -0.1898 -0.4353
  104OSM    H5F10593   6.381   1.552   9.790 -0.3511 -0.7128  0.7766
  104OSM    H5G10594   6.539   1.509   9.873  0.3140  0.6439  1.6478
  104OSM    C6F10595   6.541   1.680   9.738  0.2398 -0.0045  0.8119
  104OSM    H6F10596   6.639   1.710   9.783 -0.9440  2.4306  1.8790
  104OSM    H6G10597   6.489   1.777   9.724 -2.1038 -1.0928  1.7554
  104OSM    C7F10598   6.541   1.598   9.617  1.1974 -0.7584 -0.3180
  104OSM    H7F10599   6.439   1.582   9.578  1.2349  0.0066 -0.7416
  104OSM    H7G10600   6.595   1.505   9.645  1.5227 -0.1415  1.1948
  104OSM    C8F10601   6.613   1.675   9.505 -0.3198  0.3609 -1.0074
  104OSM    H8F10602   6.631   1.604   9.421 -0.3794 -0.5296 -0.2741
  104OSM    H8G10603   6.713   1.706   9.541 -0.6684  1.1296 -0.6864
  104OSM    C9F10604   6.533   1.799   9.457  0.2485 -0.1537  0.4274
  104OSM    H9F10605   6.502   1.869   9.535 -1.7595 -0.0705 -0.4122
  104OSM   C10F10606   6.483   1.817   9.328  0.6904  0.7398 -0.0870
  104OSM   H10F10607   6.451   1.920   9.304 -3.9151 -0.2933  1.1718
  104OSM   C11F10608   6.499   1.727   9.209  1.1328 -0.2308  0.0283
  104OSM   H11F10609   6.397   1.731   9.164  0.6307 -0.2857  1.1464
  104OSM   H11G10610   6.510   1.619   9.232  0.5095 -0.4699 -0.7700
  104OSM   C12F10611   6.615   1.762   9.113  0.0684 -0.2660 -0.6863
  104OSM   H12F10612   6.618   1.683   9.035  1.0963  1.4484 -2.4407
  104OSM   H12G10613   6.716   1.757   9.160  0.4832 -2.0196 -1.7156
  104OSM   C13F10614   6.608   1.895   9.043  0.3863 -0.2083 -0.0034
  104OSM   H13F10615   6.641   1.977   9.110  0.7528 -0.3486 -0.0127
  104OSM   H13G10616   6.505   1.925   9.016  0.6257  0.8784  0.2728
  104OSM   C14F10617   6.689   1.895   8.917 -0.3987  0.5573  0.3404
  104OSM   H14F10618   6.660   1.823   8.837  0.0913  0.9375 -0.1866
  104OSM   H14G10619   6.798   1.888   8.933 -0.0118  0.1553 -2.2642
  104OSM   C15F10620   6.657   2.023   8.838 -0.7690 -0.6776 -0.5375
  104OSM   H15F10621   6.679   2.116   8.894 -0.5117 -1.0217 -0.0657
  104OSM   H15G10622   6.550   2.026   8.807 -0.3573  0.6070 -1.8728
  104OSM   C16F10623   6.752   2.030   8.719  0.1044 -0.2065 -0.5301
  104OSM   H16F10624   6.777   1.930   8.676 -1.0031 -0.6583 -0.1453
  104OSM   H16G10625   6.850   2.070   8.754 -1.5961  1.6186  2.2968
  104OSM   C17F10626   6.706   2.126   8.607 -0.1679 -0.4787 -0.1451
  104OSM   H17F10627   6.597   2.118   8.585 -0.5618 -0.5828  1.8042
  104OSM   H17G10628   6.762   2.101   8.514  1.9495  2.3881  0.3202
  104OSM   C18F10629   6.734   2.270   8.643 -0.1213 -0.4361  0.1152
  104OSM   H18F10630   6.678   2.295   8.735 -0.1824 -1.0214  0.2420
  104OSM   H18G10631   6.702   2.343   8.565  3.5808  0.7591 -0.3713
  104OSM   H18H10632   6.842   2.280   8.667  0.0302  1.0221 -1.1043
  105OSM      N10633   3.766   4.712  10.929 -0.1736  0.2367 -0.6638
  105OSM    C1510634   3.881   4.621  10.944 -0.2965 -0.0815 -0.4481
  105OSM   H15A10635   3.884   4.569  11.039  0.7864  1.8733  0.6116
  105OSM   H15B10636   3.973   4.674  10.962 -0.8662  1.0466 -0.8182
  105OSM   H15C10637   3.891   4.560  10.855  1.2503  1.5310 -1.4127
  105OSM    C1410638   3.747   4.791  11.056 -0.2789  0.5439 -0.4820
  105OSM   H14A10639   3.732   4.723  11.138  0.9963 -0.1736 -0.8439
  105OSM   H14B10640   3.656   4.850  11.054 -1.6969 -1.5742 -0.3011
  105OSM   H14C10641   3.829   4.856  11.080 -1.4298  1.7764  0.2164
  105OSM    C1310642   3.810   4.820  10.825 -0.0924 -0.1593 -0.0370
  105OSM   H13A10643   3.801   4.784  10.724 -1.5672 -0.5906  0.2323
  105OSM   H13B10644   3.915   4.837  10.843 -0.5727  1.0362  1.8209
  105OSM   H13C10645   3.769   4.918  10.844  1.7813  0.6452 -0.0517
  105OSM    C1210646   3.636   4.643  10.886  0.9860 -0.4917 -0.3874
  105OSM   H12A10647   3.559   4.712  10.916  3.0199  1.3069  0.8150
  105OSM   H12B10648   3.622   4.553  10.945 -1.7863  0.6394  0.7815
  105OSM    C1110649   3.616   4.599  10.738 -1.1479 -0.1523  0.2164
  105OSM   H11A10650   3.640   4.682  10.668 -1.6109  2.3898  2.9434
  105OSM   H11B10651   3.513   4.573  10.705 -0.1977  0.0868 -3.1092
  105OSM      P10652   3.726   4.353  10.787 -0.1712  0.2132 -0.3909
  105OSM    O1310653   3.868   4.319  10.778  0.6478  0.7288  0.0021
  105OSM    O1410654   3.660   4.347  10.923  0.0212  0.3590  0.1061
  105OSM    O1110655   3.648   4.250  10.691  0.4258 -0.1387 -0.0832
  105OSM    O1210656   3.710   4.494  10.716  0.0412 -0.3293 -0.0739
  105OSM    C1S10657   3.559   4.289  10.587  0.4251  0.2319 -0.3607
  105OSM    H1S10658   3.536   4.397  10.592  1.0462  0.4346 -1.6820
  105OSM    H1T10659   3.471   4.221  10.593  0.9902 -0.2795  2.8674
  105OSM     NF10660   3.534   4.328  10.342 -0.1797 -0.0976  0.5492
  105OSM    HNF10661   3.486   4.264  10.282  0.4680  1.4419 -1.6661
  105OSM    C2S10662   3.620   4.268  10.440 -0.1730  0.0537 -0.0969
  105OSM    H2S10663   3.721   4.314  10.437  0.5736 -1.6324 -1.4480
  105OSM    C3S10664   3.648   4.115  10.422  0.8768 -0.1188  0.1407
  105OSM    H3S10665   3.550   4.064  10.423  0.3349  0.9339  1.7373
  105OSM     O310666   3.729   4.062  10.526 -0.1778 -0.1675 -0.2735
  105OSM    HO310667   3.722   4.125  10.597  0.4250  0.1766 -0.5196
  105OSM    C4S10668   3.714   4.090  10.289  0.1492 -0.2619 -0.2684
  105OSM    H4S10669   3.652   4.021  10.230  0.3827 -1.3486  0.7500
  105OSM    C5S10670   3.844   4.122  10.246  0.5929  0.3221  0.7242
  105OSM    H5S10671   3.910   4.169  10.321  3.1963  0.4028 -1.5744
  105OSM    C6S10672   3.900   4.083  10.107 -0.1265 -0.3320  0.2100
  105OSM    H6S10673   3.873   3.977  10.088  0.2383 -0.5059  0.6801
  105OSM    H6T10674   4.011   4.081  10.100 -0.0613 -0.5519  1.3094
  105OSM    C7S10675   3.854   4.170   9.984  0.0064 -0.4072 -0.6350
  105OSM    H7S10676   3.885   4.276   9.973 -0.7544 -0.1379 -0.1937
  105OSM    H7T10677   3.743   4.173   9.993  0.1412  0.4911  0.9128
  105OSM    C8S10678   3.892   4.083   9.860 -0.2502 -0.8918  0.8867
  105OSM    H8S10679   3.844   3.985   9.875  0.4625 -1.5325 -0.9268
  105OSM    H8T10680   4.002   4.079   9.844 -0.3672  1.3268 -0.7676
  105OSM    C9S10681   3.833   4.163   9.736 -0.0467 -0.7923  0.2046
  105OSM    H9S10682   3.883   4.262   9.734 -0.3950 -0.6227 -1.4378
  105OSM    H9T10683   3.723   4.168   9.753  0.0103  2.0034 -0.0527
  105OSM   C10S10684   3.873   4.098   9.605  0.6844 -0.1949  1.1564
  105OSM   H10S10685   3.836   3.994   9.608  0.8721 -0.2264  2.8597
  105OSM   H10T10686   3.984   4.100   9.612  0.7404  0.7417  0.2668
  105OSM   C11S10687   3.850   4.174   9.478 -0.6907 -0.1482 -0.0192
  105OSM   H11S10688   3.913   4.266   9.474 -2.4602  1.1225  0.6774
  105OSM   H11T10689   3.744   4.200   9.459 -0.5595  0.5181  0.1490
  105OSM   C12S10690   3.883   4.075   9.361 -0.2920  0.0331  0.4052
  105OSM   H12S10691   3.826   3.979   9.364 -0.6306  0.2180 -0.0548
  105OSM   H12T10692   3.992   4.054   9.351  0.2082  2.9204 -0.5752
  105OSM   C13S10693   3.855   4.147   9.224  0.0231 -0.6066 -0.5953
  105OSM   H13S10694   3.754   4.191   9.235 -0.6358 -2.1264 -0.5627
  105OSM   H13T10695   3.868   4.064   9.151  1.8325 -0.2365 -0.7365
  105OSM   C14S10696   3.954   4.257   9.194  0.4686  0.2277 -0.7693
  105OSM   H14S10697   4.058   4.220   9.201  0.3258  0.0856  0.5653
  105OSM   H14T10698   3.935   4.340   9.264  0.4836 -1.0997  0.8276
  105OSM   C15S10699   3.944   4.297   9.044  0.1564 -0.1375  0.3696
  105OSM   H15S10700   3.839   4.335   9.035  0.8825  1.9813  0.5925
  105OSM   H15T10701   3.942   4.205   8.982  1.6451  1.6718 -2.4776
  105OSM   C16S10702   4.045   4.390   8.970 -0.0947  0.5328 -0.0588
  105OSM   H16S10703   4.012   4.493   8.993  0.1438  0.7479 -0.6821
  105OSM   H16T10704   4.020   4.376   8.862  0.6776  2.1607 -0.4572
  105OSM   C17S10705   4.190   4.366   8.996  0.3662  0.6858 -0.0530
  105OSM   H17S10706   4.203   4.255   8.991 -0.2346  0.6160 -0.0724
  105OSM   H17T10707   4.225   4.402   9.095 -0.7768  2.1692 -0.1775
  105OSM   C18S10708   4.287   4.437   8.905  0.7752  0.2091 -0.1444
  105OSM   H18S10709   4.385   4.414   8.951  0.1877  0.6845  1.3691
  105OSM   H18T10710   4.269   4.547   8.913 -0.9750 -0.2332  2.5139
  105OSM   H18U10711   4.272   4.409   8.798  0.8347  2.3880 -0.7652
  105OSM    C1F10712   3.511   4.460  10.322  0.2208 -0.4528  0.5255
  105OSM     OF10713   3.582   4.549  10.373  0.4162  0.0830 -0.3512
  105OSM    C2F10714   3.382   4.493  10.253  0.3661 -0.6354  0.4590
  105OSM    H2F10715   3.332   4.572  10.312 -1.3015 -0.3662 -1.2779
  105OSM    H2G10716   3.317   4.405  10.236 -1.4300  0.9971 -1.5881
  105OSM    C3F10717   3.413   4.553  10.106  0.5565 -0.2823  0.1281
  105OSM    H3F10718   3.473   4.480  10.047 -1.7796 -2.1971  0.0004
  105OSM    H3G10719   3.478   4.635  10.140  0.7173 -0.0995 -0.6159
  105OSM    C4F10720   3.286   4.598  10.041  0.6321  0.8758  0.5954
  105OSM    H4F10721   3.235   4.669  10.110 -2.3167 -0.5810 -0.0142
  105OSM    H4G10722   3.228   4.504  10.030  0.8188  0.9042 -0.6536
  105OSM    C5F10723   3.311   4.661   9.902 -0.1773 -0.8494 -0.1211
  105OSM    H5F10724   3.373   4.598   9.836  1.7124  2.0995 -1.2552
  105OSM    H5G10725   3.356   4.762   9.908 -1.2912 -0.3638  0.1270
  105OSM    C6F10726   3.174   4.675   9.833 -0.0194 -0.2454  0.1567
  105OSM    H6F10727   3.108   4.729   9.905  1.2913  1.3892  0.1667
  105OSM    H6G10728   3.129   4.574   9.818  0.3069  0.1286 -3.6993
  105OSM    C7F10729   3.184   4.759   9.702 -0.1193 -0.3587  0.1400
  105OSM    H7F10730   3.243   4.693   9.634  0.9568  1.0022 -0.2576
  105OSM    H7G10731   3.234   4.856   9.722  0.1560 -0.5494  0.3959
  105OSM    C8F10732   3.051   4.783   9.629  0.0761  0.4107 -0.1540
  105OSM    H8F10733   3.073   4.858   9.550 -0.2761  0.0576 -0.5883
  105OSM    H8G10734   2.982   4.836   9.698  1.2006 -1.1548  2.2103
  105OSM    C9F10735   2.976   4.666   9.570 -0.1417 -0.0012  0.3397
  105OSM    H9F10736   2.962   4.582   9.639  2.0422 -0.9172 -0.2945
  105OSM   C10F10737   2.940   4.655   9.443 -0.2606  0.8432  0.1111
  105OSM   H10F10738   2.878   4.573   9.404  1.1025  0.9621 -2.4205
  105OSM   C11F10739   2.965   4.756   9.343  0.0371  0.4769 -0.2959
  105OSM   H11F10740   3.067   4.795   9.325  0.2338 -1.3580 -3.5408
  105OSM   H11G10741   2.907   4.843   9.379 -1.4052  0.4019 -2.3322
  105OSM   C12F10742   2.927   4.708   9.198  0.1865  0.0612 -0.0739
  105OSM   H12F10743   2.820   4.680   9.198  0.7983 -2.3780  1.8274
  105OSM   H12G10744   2.987   4.622   9.162 -0.0766  0.1624 -0.7626
  105OSM   C13F10745   2.920   4.824   9.091  0.0522 -1.1330  0.2742
  105OSM   H13F10746   3.010   4.887   9.111 -0.4150 -0.1469 -0.6435
  105OSM   H13G10747   2.834   4.889   9.120  2.7645  1.2069  3.6319
  105OSM   C14F10748   2.898   4.795   8.939 -0.6080  0.3185 -0.8769
  105OSM   H14F10749   2.802   4.739   8.932 -0.1539 -0.2347 -3.2291
  105OSM   H14G10750   2.969   4.718   8.902 -0.6739 -0.0261 -0.2824
  105OSM   C15F10751   2.886   4.911   8.842 -0.2092 -0.8448 -0.4188
  105OSM   H15F10752   2.978   4.974   8.836 -1.1934  0.6992  0.3071
  105OSM   H15G10753   2.810   4.982   8.881  0.4594  0.4582 -1.4328
  105OSM   C16F10754   2.842   4.871   8.702 -0.0025  0.0800 -0.8524
  105OSM   H16F10755   2.732   4.880   8.691 -0.4297 -1.2671  1.9333
  105OSM   H16G10756   2.880   4.769   8.679 -0.7898 -0.6239  0.9010
  105OSM   C17F10757   2.901   4.968   8.605  0.3303 -0.6633 -0.1581
  105OSM   H17F10758   3.012   4.957   8.605  0.2371 -1.6337 -0.8902
  105OSM   H17G10759   2.883   5.076   8.624  0.3083 -1.0874  2.3845
  105OSM   C18F10760   2.856   4.938   8.464 -0.2724 -0.2732  0.1344
  105OSM   H18F10761   2.892   4.839   8.430 -1.3534 -0.3401 -0.8508
  105OSM   H18G10762   2.889   5.013   8.390 -2.6063  2.0034  1.2978
  105OSM   H18H10763   2.745   4.941   8.472 -0.1268  0.6398  2.3367
  106OSM      N10764   1.808   3.807  10.872 -0.3940  0.4406 -0.2696
  106OSM    C1510765   1.750   3.836  11.003 -0.3325 -0.3812 -0.5402
  106OSM   H15A10766   1.707   3.935  10.993 -0.1390 -0.1752  0.5900
  106OSM   H15B10767   1.812   3.824  11.090  0.2072 -1.4578 -1.0688
  106OSM   H15C10768   1.668   3.770  11.027  0.0303 -1.8704 -3.2181
  106OSM    C1410769   1.709   3.827  10.758 -0.3043  0.1123  0.3136
  106OSM   H14A10770   1.621   3.763  10.755  0.3886 -0.8978  1.0958
  106OSM   H14B10771   1.761   3.827  10.663 -0.1828 -0.3312  0.3778
  106OSM   H14C10772   1.674   3.929  10.754 -0.6503 -0.0425 -1.0691
  106OSM    C1310773   1.926   3.899  10.834  0.1954  0.3504  0.1024
  106OSM   H13A10774   1.904   4.003  10.855 -1.2121  0.5617 -2.2398
  106OSM   H13B10775   1.957   3.889  10.731 -1.2851 -3.2034 -0.0708
  106OSM   H13C10776   2.011   3.879  10.898  2.0128  1.3286 -1.9049
  106OSM    C1210777   1.860   3.670  10.872 -0.2242  0.3371  0.3368
  106OSM   H12A10778   1.780   3.599  10.888 -0.6852  0.8695  0.3785
  106OSM   H12B10779   1.926   3.658  10.958 -2.3287  2.4732  2.3152
  106OSM    C1110780   1.923   3.616  10.746 -1.2330  0.4984  0.3048
  106OSM   H11A10781   1.995   3.691  10.705 -2.1620  0.8467 -0.7077
  106OSM   H11B10782   1.846   3.597  10.669 -0.5978  0.0066 -0.2147
  106OSM      P10783   2.126   3.483  10.831  0.1345  0.1181 -0.0649
  106OSM    O1310784   2.112   3.502  10.977 -0.2941 -0.0973  0.1400
  106OSM    O1410785   2.193   3.358  10.790 -0.4542  0.5439  0.4480
  106OSM    O1110786   2.202   3.611  10.765 -0.1693  0.6432 -0.6769
  106OSM    O1210787   1.980   3.491  10.776 -0.4587  0.1194 -0.2144
  106OSM    C1S10788   2.244   3.596  10.632  0.5436 -0.0382  1.0844
  106OSM    H1S10789   2.154   3.582  10.569  1.8939 -0.1537 -0.8707
  106OSM    H1T10790   2.303   3.504  10.616  0.0004 -0.6079  2.2624
  106OSM     NF10791   2.353   3.717  10.446  0.8012 -0.4061  0.0333
  106OSM    HNF10792   2.436   3.669  10.418  1.0783  0.1697 -0.1262
  106OSM    C2S10793   2.328   3.717  10.586 -0.1757  0.0225  0.1626
  106OSM    H2S10794   2.272   3.808  10.614  2.0305  1.1954  0.9125
  106OSM    C3S10795   2.467   3.723  10.659 -0.4471 -0.1932 -0.7336
  106OSM    H3S10796   2.525   3.636  10.621  3.2687  1.7774  0.1495
  106OSM     O310797   2.467   3.708  10.799 -0.6156 -0.8525  0.4928
  106OSM    HO310798   2.396   3.646  10.818 -1.9828  0.2871 -0.7586
  106OSM    C4S10799   2.539   3.848  10.630 -0.2592 -0.3347  0.1486
  106OSM    H4S10800   2.504   3.943  10.673  0.2679  0.0050 -0.1588
  106OSM    C5S10801   2.658   3.853  10.564  0.0607  0.1311  0.9777
  106OSM    H5S10802   2.705   3.761  10.527  0.2041  0.2725  0.8090
  106OSM    C6S10803   2.733   3.985  10.543  0.6243  0.4851  0.5149
  106OSM    H6S10804   2.842   3.975  10.565  0.4060 -0.3317  1.2279
  106OSM    H6T10805   2.702   4.066  10.613  0.5697  1.3023 -0.4415
  106OSM    C7S10806   2.707   4.031  10.397 -0.4854 -0.5050 -0.3387
  106OSM    H7S10807   2.762   4.127  10.396 -2.7700  0.9094  2.2163
  106OSM    H7T10808   2.599   4.047  10.378 -0.8435 -0.1987  1.7566
  106OSM    C8S10809   2.764   3.952  10.282  0.1265  0.1444  0.1221
  106OSM    H8S10810   2.726   3.971  10.179  2.5424  0.7997 -0.6804
  106OSM    H8T10811   2.746   3.843  10.288 -0.6067  0.0972 -2.5110
  106OSM    C9S10812   2.913   3.969  10.284 -0.6494  0.0974  0.3241
  106OSM    H9S10813   2.952   3.946  10.385  4.0961  2.0672 -0.9062
  106OSM    H9T10814   2.936   4.076  10.261 -0.3875 -0.2922 -1.2964
  106OSM   C10S10815   2.984   3.880  10.174 -0.2354 -0.3571 -0.3779
  106OSM   H10S10816   2.960   3.772  10.179 -1.7965 -0.0181 -0.3619
  106OSM   H10T10817   3.092   3.900  10.192 -0.3976 -0.4058  0.6927
  106OSM   C11S10818   2.950   3.926  10.034 -0.9210 -0.4225 -0.8087
  106OSM   H11S10819   2.967   4.036  10.026 -3.3324  0.0032 -0.3936
  106OSM   H11T10820   2.843   3.909  10.011 -1.3692 -0.5011  1.2258
  106OSM   C12S10821   3.028   3.856   9.926  0.3989  0.5009 -0.1304
  106OSM   H12S10822   3.000   3.749   9.938 -0.5007  0.3497 -3.1672
  106OSM   H12T10823   3.136   3.874   9.942  0.7165 -1.2723 -0.0873
  106OSM   C13S10824   2.993   3.904   9.786 -0.4015 -0.2296 -0.8723
  106OSM   H13S10825   3.018   4.011   9.775 -0.3490 -0.2379 -0.8341
  106OSM   H13T10826   2.883   3.888   9.780 -0.1614 -2.3692 -0.2119
  106OSM   C14S10827   3.062   3.817   9.681 -0.5857  0.6400  0.3827
  106OSM   H14S10828   3.037   3.709   9.686 -0.5506  0.6613  1.0278
  106OSM   H14T10829   3.167   3.809   9.716 -0.6002  2.0183  0.7509
  106OSM   C15S10830   3.032   3.880   9.548 -0.0040 -0.0755 -0.7365
  106OSM   H15S10831   3.072   3.983   9.549 -1.7897  0.6415  1.7241
  106OSM   H15T10832   2.921   3.893   9.545 -0.2594 -1.5050  1.3710
  106OSM   C16S10833   3.095   3.807   9.428 -0.0068  0.1620  0.7856
  106OSM   H16S10834   3.052   3.705   9.431  3.1394 -1.2399  0.9537
  106OSM   H16T10835   3.205   3.797   9.439  0.1433  3.5190  3.1321
  106OSM   C17S10836   3.058   3.875   9.299  0.5961 -0.4264  0.4253
  106OSM   H17S10837   3.077   3.983   9.313 -2.2680  0.3871 -1.3761
  106OSM   H17T10838   2.950   3.865   9.275  0.0096  2.4204  1.6594
  106OSM   C18S10839   3.129   3.818   9.175 -0.1952  0.0695  0.2224
  106OSM   H18S10840   3.239   3.828   9.187 -0.3211  0.2514  1.2583
  106OSM   H18T10841   3.098   3.868   9.080  1.8336 -1.7082 -1.4398
  106OSM   H18U10842   3.094   3.713   9.168  0.3861 -0.1130  0.0028
  106OSM    C1F10843   2.255   3.739  10.361  0.9177  0.4467  0.1231
  106OSM     OF10844   2.143   3.777  10.397  0.2560  0.1328 -0.7033
  106OSM    C2F10845   2.273   3.708  10.217 -0.3600  0.4309  0.4302
  106OSM    H2F10846   2.180   3.669  10.170  0.5707  0.0789 -1.1995
  106OSM    H2G10847   2.345   3.624  10.206 -0.6567 -0.1249  2.5191
  106OSM    C3F10848   2.334   3.826  10.130 -0.5347  0.9292  0.6968
  106OSM    H3F10849   2.423   3.872  10.177 -0.6389  0.7031  1.1195
  106OSM    H3G10850   2.257   3.906  10.123 -2.0151 -0.5136  0.0414
  106OSM    C4F10851   2.364   3.778   9.986 -0.1401 -0.0645 -0.5214
  106OSM    H4F10852   2.265   3.768   9.936 -0.2506  0.1075 -0.3422
  106OSM    H4G10853   2.421   3.683   9.988  1.9227  1.1100 -1.5026
  106OSM    C5F10854   2.452   3.880   9.907  0.0837 -0.4542  0.4343
  106OSM    H5F10855   2.556   3.901   9.941 -0.2649  1.0872  0.5958
  106OSM    H5G10856   2.400   3.979   9.910  0.4072 -0.2876  0.5778
  106OSM    C6F10857   2.450   3.844   9.762  0.0156 -0.0436  0.3625
  106OSM    H6F10858   2.347   3.847   9.721 -0.7984 -4.2229  1.7998
  106OSM    H6G10859   2.501   3.746   9.750  0.5808  0.4704 -1.6352
  106OSM    C7F10860   2.545   3.934   9.671 -0.0773 -0.6224  0.6288
  106OSM    H7F10861   2.634   3.961   9.731 -0.1266  0.3189  0.2911
  106OSM    H7G10862   2.490   4.030   9.654 -1.1992 -1.3737 -0.0516
  106OSM    C8F10863   2.599   3.863   9.542  0.5431  0.3099  1.0805
  106OSM    H8F10864   2.676   3.788   9.568  1.9847  1.2958 -0.3116
  106OSM    H8G10865   2.661   3.942   9.493 -0.0341  1.0677  1.5507
  106OSM    C9F10866   2.502   3.796   9.448  0.6111  0.2036 -0.9481
  106OSM    H9F10867   2.407   3.780   9.501  0.4065  1.6369 -0.8701
  106OSM   C10F10868   2.523   3.761   9.325 -0.2651  1.0322 -0.2306
  106OSM   H10F10869   2.439   3.712   9.274 -0.9079  1.0712  0.7969
  106OSM   C11F10870   2.652   3.776   9.255 -0.1533 -0.2766  0.0218
  106OSM   H11F10871   2.733   3.804   9.325 -1.1334 -1.5097  1.6847
  106OSM   H11G10872   2.639   3.862   9.186  0.5684 -1.0155 -1.0430
  106OSM   C12F10873   2.711   3.657   9.185 -0.2482 -0.5051  0.4344
  106OSM   H12F10874   2.776   3.598   9.253 -1.9289 -1.4689  1.2682
  106OSM   H12G10875   2.783   3.678   9.104 -3.6835 -1.2628 -2.9965
  106OSM   C13F10876   2.603   3.571   9.112 -0.2072  0.8156  0.7268
  106OSM   H13F10877   2.528   3.638   9.066 -0.1872  0.9870  0.9438
  106OSM   H13G10878   2.553   3.515   9.193 -1.2898  1.9031  0.8063
  106OSM   C14F10879   2.672   3.470   9.005 -0.9232  0.8782  1.1559
  106OSM   H14F10880   2.752   3.410   9.052  1.5498  1.4162 -2.2069
  106OSM   H14G10881   2.721   3.535   8.929  1.2210  0.9873  2.5923
  106OSM   C15F10882   2.569   3.369   8.942 -1.0015 -0.8317 -0.0624
  106OSM   H15F10883   2.610   3.307   8.860  0.6271  1.2682 -0.8773
  106OSM   H15G10884   2.500   3.436   8.887 -1.5924 -1.8896 -0.6237
  106OSM   C16F10885   2.507   3.285   9.049 -0.4431  0.0790  0.1472
  106OSM   H16F10886   2.444   3.345   9.118  0.5431  0.6718  0.5471
  106OSM   H16G10887   2.584   3.223   9.101  1.7893 -1.1184 -4.3563
  106OSM   C17F10888   2.423   3.173   8.989  1.0639  0.1771 -0.3005
  106OSM   H17F10889   2.407   3.100   9.071 -1.2762  0.7374 -0.2331
  106OSM   H17G10890   2.483   3.133   8.905 -0.4652  1.2547 -1.9395
  106OSM   C18F10891   2.287   3.212   8.925 -0.1819 -0.3994 -0.5020
  106OSM   H18F10892   2.248   3.121   8.874 -0.3061 -0.8542  0.3921
  106OSM   H18G10893   2.285   3.290   8.847 -0.6696 -0.2343 -0.3243
  106OSM   H18H10894   2.218   3.250   9.003  0.9369  1.0825 -0.2207
  107OSM      N10895   4.992   0.931  10.905 -0.5146 -0.7312 -0.6258
  107OSM    C1510896   4.915   0.941  11.033 -0.9059  0.9832  0.0586
  107OSM   H15A10897   4.937   0.856  11.095  1.1299  0.1546 -1.7431
  107OSM   H15B10898   4.813   0.914  11.008 -0.1428 -0.4615 -1.5433
  107OSM   H15C10899   4.925   1.036  11.084  0.7993  1.1328 -0.5548
  107OSM    C1410900   5.129   0.907  10.946 -0.3725 -0.0415 -0.7145
  107OSM   H14A10901   5.174   0.995  10.988  1.4765 -0.9096 -0.7968
  107OSM   H14B10902   5.193   0.877  10.864  0.6948 -0.0536  0.1127
  107OSM   H14C10903   5.133   0.825  11.017 -0.7361  0.9562  0.4572
  107OSM    C1310904   4.922   0.826  10.822  0.0386  0.4507 -0.4305
  107OSM   H13A10905   4.933   0.725  10.859  1.2539  0.8778  0.3749
  107OSM   H13B10906   4.956   0.828  10.719  2.3268  0.4364  0.3051
  107OSM   H13C10907   4.815   0.835  10.815 -0.0022  0.5291  0.3134
  107OSM    C1210908   4.984   1.066  10.839 -0.0452 -0.2121  0.2375
  107OSM   H12A10909   5.019   1.144  10.904 -0.6982  0.8617 -0.6921
  107OSM   H12B10910   4.884   1.092  10.808  0.6576  1.0601 -0.9778
  107OSM    C1110911   5.059   1.081  10.702 -0.1744  0.5127  0.0177
  107OSM   H11A10912   5.018   1.175  10.658 -0.4861 -0.5922 -2.1568
  107OSM   H11B10913   5.039   1.002  10.626 -1.7526 -1.4135  2.3579
  107OSM      P10914   5.277   1.196  10.777  0.2147 -0.5451  0.2682
  107OSM    O1310915   5.211   1.234  10.903  0.0441  0.4913 -0.3914
  107OSM    O1410916   5.420   1.159  10.778 -0.1520  0.0256  0.1902
  107OSM    O1110917   5.259   1.318  10.671 -0.6082 -0.2270  0.7415
  107OSM    O1210918   5.200   1.077  10.712  0.1558 -0.2957 -0.4422
  107OSM    C1S10919   5.318   1.296  10.538 -0.4434 -0.4453 -0.1586
  107OSM    H1S10920   5.405   1.227  10.541  1.8727  2.4359  1.8147
  107OSM    H1T10921   5.350   1.394  10.496 -3.0570  0.8802  0.7970
  107OSM     NF10922   5.276   1.194  10.307  0.3373 -0.0304 -0.4271
  107OSM    HNF10923   5.264   1.253  10.228  0.5417  1.7456  0.8233
  107OSM    C2S10924   5.216   1.235  10.431  0.1079  0.8375  0.2520
  107OSM    H2S10925   5.173   1.144  10.478 -0.1470  1.4954  1.3172
  107OSM    C3S10926   5.096   1.334  10.403  0.9831  0.4127  1.0803
  107OSM    H3S10927   5.152   1.412  10.347  2.2563 -0.3320  1.2757
  107OSM     O310928   5.036   1.393  10.514  0.0821 -0.2596  0.9167
  107OSM    HO310929   5.099   1.377  10.585  0.2694  2.3036  1.3452
  107OSM    C4S10930   4.991   1.279  10.309  0.4539  0.1399 -0.0739
  107OSM    H4S10931   5.003   1.311  10.204 -0.3844  0.6922 -0.0110
  107OSM    C5S10932   4.878   1.204  10.339  0.7163 -0.3527 -0.1395
  107OSM    H5S10933   4.854   1.192  10.446 -1.6501 -0.7893 -0.6885
  107OSM    C6S10934   4.772   1.166  10.237 -0.2018 -0.7430  0.6209
  107OSM    H6S10935   4.676   1.219  10.251  0.0739  0.4912 -1.9867
  107OSM    H6T10936   4.763   1.055  10.237  1.1108 -0.8826 -1.5185
  107OSM    C7S10937   4.817   1.192  10.094 -0.9830 -0.0585  0.5542
  107OSM    H7S10938   4.911   1.138  10.069 -1.8766 -0.4271 -2.1504
  107OSM    H7T10939   4.827   1.302  10.081  2.2940 -0.1373  1.8572
  107OSM    C8S10940   4.725   1.150   9.983  0.2860 -0.0144  0.1309
  107OSM    H8S10941   4.633   1.212   9.981  0.9582  0.9908 -0.1146
  107OSM    H8T10942   4.695   1.043   9.987 -0.9216  0.3380  0.7141
  107OSM    C9S10943   4.803   1.167   9.850  0.5213  0.0451 -0.3949
  107OSM    H9S10944   4.897   1.108   9.856 -0.7195 -1.8444  0.8305
  107OSM    H9T10945   4.831   1.273   9.830 -0.6865  0.1666 -1.4681
  107OSM   C10S10946   4.728   1.107   9.730 -0.5972  0.0101 -0.1196
  107OSM   H10S10947   4.632   1.156   9.706 -0.9406 -0.4791  0.2493
  107OSM   H10T10948   4.703   1.001   9.753 -3.2991  0.6644  0.0148
  107OSM   C11S10949   4.799   1.099   9.598  0.4478  0.0924 -0.6201
  107OSM   H11S10950   4.877   1.020   9.596  1.2232  0.8466 -0.9748
  107OSM   H11T10951   4.840   1.202   9.583 -1.4208  0.5061 -3.3812
  107OSM   C12S10952   4.715   1.074   9.469  0.1269  0.6364 -0.7878
  107OSM   H12S10953   4.627   1.141   9.468  0.6991  1.5047  1.8680
  107OSM   H12T10954   4.681   0.968   9.465 -0.4836  0.8803 -2.1920
  107OSM   C13S10955   4.808   1.093   9.353 -0.2283  0.2371 -0.2517
  107OSM   H13S10956   4.901   1.032   9.354  0.8052  1.7788  1.2752
  107OSM   H13T10957   4.839   1.200   9.349  1.1218 -0.2029 -2.2581
  107OSM   C14S10958   4.734   1.064   9.218  0.1081 -0.1705  0.8852
  107OSM   H14S10959   4.649   1.135   9.212  0.3545  0.1583  1.1962
  107OSM   H14T10960   4.690   0.963   9.221 -0.3967  0.0844  2.0540
  107OSM   C15S10961   4.828   1.075   9.095 -0.0475  0.3224 -0.7487
  107OSM   H15S10962   4.910   1.002   9.112  0.2439  1.2581  2.2028
  107OSM   H15T10963   4.876   1.175   9.083 -0.6110  0.5119 -1.4213
  107OSM   C16S10964   4.763   1.040   8.959 -0.0580  0.4876 -0.0855
  107OSM   H16S10965   4.664   1.089   8.945 -0.4724 -0.5940 -1.0098
  107OSM   H16T10966   4.750   0.932   8.940 -2.5932  0.2677  2.6353
  107OSM   C17S10967   4.854   1.088   8.843 -0.0944 -0.0820 -0.0273
  107OSM   H17S10968   4.850   1.006   8.767 -0.5109 -1.8912  1.8906
  107OSM   H17T10969   4.957   1.097   8.884  1.7862 -3.2854 -3.6211
  107OSM   C18S10970   4.810   1.222   8.792  0.1667 -0.1057  0.3862
  107OSM   H18S10971   4.713   1.211   8.738  0.7669  0.6430 -0.8640
  107OSM   H18T10972   4.882   1.252   8.713 -0.5227  0.6591  0.0331
  107OSM   H18U10973   4.812   1.301   8.870 -1.1873  1.9640 -1.5712
  107OSM    C1F10974   5.359   1.099  10.297  0.1729 -1.2416  0.0263
  107OSM     OF10975   5.397   1.039  10.403  0.8500  0.3632  0.2323
  107OSM    C2F10976   5.405   1.068  10.155  0.4982  0.0733  0.6443
  107OSM    H2F10977   5.421   1.158  10.093 -1.3116  1.5153  2.2055
  107OSM    H2G10978   5.333   1.001  10.102  0.1903  0.8442  0.0930
  107OSM    C3F10979   5.526   0.975  10.156 -0.8219 -0.0637  0.3913
  107OSM    H3F10980   5.505   0.887  10.220 -0.7048 -1.3054 -1.2204
  107OSM    H3G10981   5.613   1.024  10.203 -1.5327  0.3052  1.3278
  107OSM    C4F10982   5.568   0.907  10.018 -0.2010 -0.0755  0.1731
  107OSM    H4F10983   5.486   0.855   9.964 -0.2088  1.7779 -1.6262
  107OSM    H4G10984   5.645   0.828  10.032 -3.0064 -2.9494  0.2235
  107OSM    C5F10985   5.620   1.011   9.913 -0.4711 -0.1461 -0.6540
  107OSM    H5F10986   5.690   1.083   9.959  0.0216  0.0352 -1.6734
  107OSM    H5G10987   5.529   1.065   9.879 -2.5199 -2.7872  0.4367
  107OSM    C6F10988   5.696   0.944   9.792 -0.8985 -0.2072 -0.0138
  107OSM    H6F10989   5.618   0.877   9.750 -0.5899  0.0220 -0.9670
  107OSM    H6G10990   5.771   0.879   9.841  0.8358  0.6378 -1.4984
  107OSM    C7F10991   5.745   1.037   9.683 -0.5253  0.7260 -0.0536
  107OSM    H7F10992   5.785   1.131   9.728 -1.7835  0.7422  1.0760
  107OSM    H7G10993   5.651   1.059   9.628 -0.8827 -1.1224 -0.2122
  107OSM    C8F10994   5.847   0.979   9.577 -0.4513 -0.0688  0.6003
  107OSM    H8F10995   5.936   0.940   9.631 -0.0646 -1.4862 -1.0050
  107OSM    H8G10996   5.874   1.060   9.506  1.0095 -0.6268  0.4924
  107OSM    C9F10997   5.777   0.864   9.514 -0.0838 -0.3798 -0.1445
  107OSM    H9F10998   5.779   0.772   9.575  3.4534 -0.5205 -0.3394
  107OSM   C10F10999   5.738   0.856   9.384 -0.1521  0.4762 -0.0881
  107OSM   H10F11000   5.678   0.769   9.353 -0.5748  1.3225 -1.7287
  107OSM   C11F11001   5.750   0.966   9.278 -0.2389  0.3280 -0.4413
  107OSM   H11F11002   5.737   1.060   9.336  1.4615 -0.0609  0.5927
  107OSM   H11G11003   5.663   0.955   9.209 -0.7030 -0.0209  0.1894
  107OSM   C12F11004   5.888   0.956   9.214  0.2252 -0.1013 -0.3413
  107OSM   H12F11005   5.893   0.857   9.164  4.3242 -0.1566 -0.0482
  107OSM   H12G11006   5.958   0.972   9.299 -0.9925  2.1765  0.2874
  107OSM   C13F11007   5.921   1.090   9.143  0.8712 -0.2388  0.1976
  107OSM   H13F11008   6.024   1.090   9.101  0.3541 -0.8050 -1.1104
  107OSM   H13G11009   5.916   1.177   9.212  1.7733 -0.0704  0.0671
  107OSM   C14F11010   5.840   1.102   9.017  0.3349 -0.4765  0.1533
  107OSM   H14F11011   5.736   1.134   9.043  0.4750  0.0685  0.0539
  107OSM   H14G11012   5.846   0.995   8.987  3.6008 -0.5119  0.8427
  107OSM   C15F11013   5.893   1.197   8.916  0.7857 -0.0280 -0.4940
  107OSM   H15F11014   5.993   1.168   8.879  0.4508  0.0474 -1.4896
  107OSM   H15G11015   5.896   1.301   8.956 -2.3011 -0.0467 -0.0252
  107OSM   C16F11016   5.801   1.187   8.790  0.3298 -0.1324  0.1559
  107OSM   H16F11017   5.695   1.201   8.821  0.0935 -0.7771 -0.3367
  107OSM   H16G11018   5.812   1.088   8.740  0.4293 -1.2062  2.2525
  107OSM   C17F11019   5.825   1.291   8.681  0.6319 -1.0352 -0.2752
  107OSM   H17F11020   5.869   1.380   8.731  0.6535 -1.0229 -0.3182
  107OSM   H17G11021   5.732   1.331   8.636 -0.5301 -1.0720  1.9992
  107OSM   C18F11022   5.914   1.243   8.569  0.3574 -0.1173 -0.4652
  107OSM   H18F11023   5.857   1.174   8.504  0.1852  0.0698 -0.5134
  107OSM   H18G11024   6.002   1.194   8.615  0.5013 -0.9592 -1.6305
  107OSM   H18H11025   5.951   1.328   8.508 -0.4998 -0.1246 -0.9986
  108OSM      N11026   2.746   2.783  10.794 -0.1518  0.6005  0.6255
  108OSM    C1511027   2.847   2.845  10.694 -0.3350 -0.1000 -1.2266
  108OSM   H15A11028   2.791   2.896  10.617 -1.1220 -2.4674 -2.2661
  108OSM   H15B11029   2.899   2.767  10.641 -0.4462 -0.5512 -0.6757
  108OSM   H15C11030   2.920   2.903  10.748 -2.2300  1.3304 -0.0971
  108OSM    C1411031   2.808   2.676  10.875 -0.3175 -0.5471  0.1947
  108OSM   H14A11032   2.847   2.599  10.810  1.6163 -0.0238  0.7217
  108OSM   H14B11033   2.724   2.639  10.933 -0.1938 -1.2059 -0.0445
  108OSM   H14C11034   2.885   2.716  10.938 -0.1977  2.1664 -1.6053
  108OSM    C1311035   2.698   2.898  10.876  0.1281  0.4863 -0.0715
  108OSM   H13A11036   2.637   2.967  10.819  1.3997  0.3498 -1.6303
  108OSM   H13B11037   2.784   2.954  10.910 -0.3066  0.3937  1.2368
  108OSM   H13C11038   2.655   2.874  10.972  0.5324 -1.3722 -0.3374
  108OSM    C1211039   2.632   2.722  10.705 -0.1909 -0.8258  0.7868
  108OSM   H12A11040   2.686   2.641  10.658 -1.0028  0.7818 -3.1349
  108OSM   H12B11041   2.613   2.789  10.623  1.9067 -0.5814  0.4769
  108OSM    C1111042   2.507   2.685  10.773  1.1420  0.6176 -0.3103
  108OSM   H11A11043   2.516   2.621  10.862 -0.9292  0.6548 -0.0697
  108OSM   H11B11044   2.455   2.627  10.694  0.6193  2.5095 -1.3833
  108OSM      P11045   2.390   2.912  10.695  0.3209 -0.4794 -0.0736
  108OSM    O1311046   2.314   3.020  10.763  0.0902 -0.2946  0.2079
  108OSM    O1411047   2.502   2.950  10.606  0.0570 -0.1171 -0.3776
  108OSM    O1111048   2.289   2.840  10.613 -0.2584  0.1452  0.1096
  108OSM    O1211049   2.428   2.804  10.805 -0.0024 -0.0999  0.3138
  108OSM    C1S11050   2.196   2.907  10.528 -0.5369 -0.1652  0.3481
  108OSM    H1S11051   2.241   3.005  10.498  0.6433 -0.7632  0.1257
  108OSM    H1T11052   2.102   2.920  10.585 -0.4573 -0.6854  0.6017
  108OSM     NF11053   2.045   2.916  10.329  0.3124 -0.4413  0.5209
  108OSM    HNF11054   1.947   2.894  10.333  0.1901 -0.3698 -1.3707
  108OSM    C2S11055   2.160   2.836  10.395  0.0359  0.3645  0.1674
  108OSM    H2S11056   2.246   2.830  10.326 -1.4598 -2.1439 -1.5589
  108OSM    C3S11057   2.111   2.693  10.423 -0.0825 -0.4446 -0.1536
  108OSM    H3S11058   2.007   2.716  10.455 -0.0258  1.2402 -1.1206
  108OSM     O311059   2.172   2.622  10.530  0.3116 -0.1821 -0.0007
  108OSM    HO311060   2.209   2.694  10.582  0.2281 -1.0117  1.2423
  108OSM    C4S11061   2.124   2.609  10.302  0.5384  0.2998  0.1612
  108OSM    H4S11062   2.220   2.569  10.269  0.3358  0.3802 -0.5416
  108OSM    C5S11063   2.009   2.568  10.241  0.0380 -0.5789 -0.3563
  108OSM    H5S11064   1.911   2.604  10.278  0.3940 -0.9767  1.0084
  108OSM    C6S11065   2.014   2.475  10.124  0.1796 -0.6047  0.1708
  108OSM    H6S11066   1.911   2.456  10.089 -0.0786  1.9760 -0.5641
  108OSM    H6T11067   2.048   2.374  10.155 -2.4550 -1.2084  1.2357
  108OSM    C7S11068   2.094   2.530  10.003 -0.8564 -0.1780 -0.7562
  108OSM    H7S11069   2.202   2.521  10.026 -0.6619  2.5677 -0.4376
  108OSM    H7T11070   2.070   2.635   9.979  2.2395  0.2634 -2.1340
  108OSM    C8S11071   2.081   2.436   9.882 -0.0041 -0.2714  0.2212
  108OSM    H8S11072   1.981   2.388   9.880 -2.6287  4.4516  4.5993
  108OSM    H8T11073   2.163   2.361   9.890  1.4098  1.2797  0.5595
  108OSM    C9S11074   2.104   2.525   9.765  0.3241 -0.3314  0.1618
  108OSM    H9S11075   2.210   2.557   9.757 -0.2052  1.5356  0.4240
  108OSM    H9T11076   2.035   2.612   9.773  0.0430 -0.6153  0.9254
  108OSM   C10S11077   2.059   2.464   9.627 -0.4166  0.3690 -0.1196
  108OSM   H10S11078   1.949   2.457   9.640 -0.3111  1.5298  1.5913
  108OSM   H10T11079   2.107   2.364   9.614 -4.7394 -1.7813 -0.3933
  108OSM   C11S11080   2.099   2.551   9.509 -0.5639  0.7045 -0.3937
  108OSM   H11S11081   2.210   2.548   9.500 -0.5607  0.0760 -0.2059
  108OSM   H11T11082   2.063   2.655   9.521  0.7876  1.0461  0.8083
  108OSM   C12S11083   2.032   2.498   9.375  0.4798  0.5582  0.4239
  108OSM   H12S11084   1.922   2.491   9.392 -0.1953  0.9997 -3.2549
  108OSM   H12T11085   2.069   2.397   9.348  2.8462  1.1123  1.4731
  108OSM   C13S11086   2.092   2.586   9.260 -0.0300  0.2568  0.0333
  108OSM   H13S11087   2.203   2.583   9.268 -0.0059  0.0229 -0.4036
  108OSM   H13T11088   2.065   2.694   9.268  1.3269  0.7826 -2.2397
  108OSM   C14S11089   2.045   2.532   9.132  0.0099 -0.0689  0.2916
  108OSM   H14S11090   1.935   2.535   9.120  0.0698  1.5578  0.0182
  108OSM   H14T11091   2.078   2.428   9.114  0.5657  0.1195  0.2145
  108OSM   C15S11092   2.096   2.618   9.013 -0.7051 -0.3695  0.4991
  108OSM   H15S11093   2.205   2.623   9.030 -0.3257 -2.7141 -1.0289
  108OSM   H15T11094   2.053   2.720   9.020  0.7731  0.3361 -0.5714
  108OSM   C16S11095   2.049   2.561   8.876  0.0091  0.3759 -0.3593
  108OSM   H16S11096   1.940   2.543   8.872  0.3886 -2.3369  0.3941
  108OSM   H16T11097   2.086   2.456   8.872  2.4877  1.1600  0.7108
  108OSM   C17S11098   2.091   2.639   8.751  0.3030 -0.4346 -0.4118
  108OSM   H17S11099   2.072   2.744   8.784  0.2721 -0.6801  0.3770
  108OSM   H17T11100   2.020   2.604   8.674 -1.0079 -2.1816  1.5219
  108OSM   C18S11101   2.231   2.612   8.698 -0.4709  0.4307  0.0138
  108OSM   H18S11102   2.258   2.672   8.608  1.0294 -0.5454 -0.1946
  108OSM   H18T11103   2.237   2.503   8.680  0.7533  0.6746 -1.1131
  108OSM   H18U11104   2.306   2.644   8.774 -1.7404  1.2329  0.9479
  108OSM    C1F11105   2.063   3.044  10.292 -0.2872 -0.3758 -0.3404
  108OSM     OF11106   2.168   3.100  10.309 -0.2295  0.6098 -0.8405
  108OSM    C2F11107   1.947   3.109  10.226 -0.1267 -0.4463 -0.1458
  108OSM    H2F11108   1.915   3.195  10.290  1.2169 -0.1619  0.1456
  108OSM    H2G11109   1.865   3.037  10.202  0.7669 -1.2314 -0.8329
  108OSM    C3F11110   1.990   3.181  10.093  0.1982 -0.2228  0.6183
  108OSM    H3F11111   2.077   3.250  10.102  0.1553 -0.1415  0.3977
  108OSM    H3G11112   1.900   3.240  10.066 -0.7977 -1.3667  1.3826
  108OSM    C4F11113   2.012   3.076   9.977 -0.3872  0.8356  0.4188
  108OSM    H4F11114   1.918   3.024   9.949  0.7633 -0.0381 -1.8834
  108OSM    H4G11115   2.077   2.994  10.013 -1.3572 -0.3321 -0.4560
  108OSM    C5F11116   2.076   3.129   9.850 -0.1533 -1.0288 -0.5711
  108OSM    H5F11117   2.094   3.038   9.789 -0.0027 -0.1578 -1.8617
  108OSM    H5G11118   2.176   3.170   9.877  0.1941 -0.7672 -2.1515
  108OSM    C6F11119   1.995   3.239   9.772 -0.7247  0.5238  0.1743
  108OSM    H6F11120   2.068   3.299   9.714  0.2918  0.3355  1.2328
  108OSM    H6G11121   1.955   3.310   9.847  0.8754  0.8414  0.7270
  108OSM    C7F11122   1.877   3.177   9.696  0.0104 -0.1414 -0.4262
  108OSM    H7F11123   1.788   3.153   9.757 -0.0066  1.3161  0.1398
  108OSM    H7G11124   1.910   3.080   9.654  1.6719 -0.6956  2.0512
  108OSM    C8F11125   1.827   3.270   9.584  0.1251 -0.2949 -0.1307
  108OSM    H8F11126   1.906   3.307   9.516  0.2913  0.2242  0.3348
  108OSM    H8G11127   1.789   3.358   9.641  0.5423 -0.4069  0.3205
  108OSM    C9F11128   1.731   3.208   9.487 -0.3201 -0.6382  0.1662
  108OSM    H9F11129   1.627   3.234   9.511  0.2993  1.2030  0.9517
  108OSM   C10F11130   1.758   3.120   9.385  0.7172  0.7203  0.5223
  108OSM   H10F11131   1.683   3.083   9.314  1.5179 -1.7598  0.9072
  108OSM   C11F11132   1.896   3.066   9.355  0.6329 -0.1690  0.1387
  108OSM   H11F11133   1.899   2.955   9.347 -1.5202 -0.3062  0.8161
  108OSM   H11G11134   1.963   3.076   9.443 -1.5196 -2.2971  2.1379
  108OSM   C12F11135   1.963   3.126   9.226  0.5366 -0.1080 -0.0834
  108OSM   H12F11136   1.978   3.235   9.238 -0.3709 -0.0201  0.2743
  108OSM   H12G11137   1.902   3.113   9.135 -0.1189  0.1588  0.3142
  108OSM   C13F11138   2.094   3.053   9.206  0.3187  0.5968 -0.2780
  108OSM   H13F11139   2.151   3.077   9.115  1.0857 -1.9040 -0.5101
  108OSM   H13G11140   2.069   2.945   9.200  1.4533  0.2903  0.3693
  108OSM   C14F11141   2.192   3.061   9.328 -0.4432 -0.0280 -0.4647
  108OSM   H14F11142   2.288   3.014   9.300  1.0668  2.3365  0.5805
  108OSM   H14G11143   2.169   3.011   9.424  0.7350 -0.4382 -0.3924
  108OSM   C15F11144   2.231   3.206   9.353 -0.3462 -0.0563 -0.2104
  108OSM   H15F11145   2.154   3.261   9.412  0.1203 -0.3078  0.6440
  108OSM   H15G11146   2.228   3.259   9.256 -4.1795  1.7975  0.8112
  108OSM   C16F11147   2.374   3.224   9.400  0.1873  0.2830 -0.1606
  108OSM   H16F11148   2.441   3.172   9.328  0.6700 -1.2884  1.3905
  108OSM   H16G11149   2.388   3.168   9.495 -0.0711  1.0697  0.3493
  108OSM   C17F11150   2.425   3.366   9.415  0.0776 -0.0978 -0.3410
  108OSM   H17F11151   2.356   3.445   9.377  0.5714  0.1759 -0.6747
  108OSM   H17G11152   2.521   3.391   9.365  0.7022 -3.0765 -0.7332
  108OSM   C18F11153   2.464   3.400   9.555 -0.1084  0.1175  0.5285
  108OSM   H18F11154   2.378   3.404   9.625 -1.9567  0.8125 -1.7254
  108OSM   H18G11155   2.513   3.500   9.553  2.2171 -0.9806  1.0118
  108OSM   H18H11156   2.543   3.334   9.598  0.5569  1.3845  1.2830
  109OSM      N11157   0.681   0.663  11.186  0.7127 -0.1244 -0.0414
  109OSM    C1511158   0.550   0.696  11.253  0.1437 -0.7701  0.0739
  109OSM   H15A11159   0.476   0.748  11.193 -1.2565 -0.9751  1.5905
  109OSM   H15B11160   0.567   0.757  11.340 -0.6526  1.4271 -1.2745
  109OSM   H15C11161   0.491   0.608  11.276 -0.3602  0.1330  2.3348
  109OSM    C1411162   0.772   0.782  11.190  0.4980  0.1486 -0.3898
  109OSM   H14A11163   0.867   0.750  11.151  0.9179 -1.7471  2.0827
  109OSM   H14B11164   0.790   0.812  11.292  1.6018  0.1420 -0.5761
  109OSM   H14C11165   0.734   0.861  11.126 -2.9941 -1.5879 -0.5927
  109OSM    C1311166   0.753   0.553  11.255  0.2868 -0.2862 -0.5290
  109OSM   H13A11167   0.680   0.478  11.280  0.4889 -0.2556  0.1577
  109OSM   H13B11168   0.794   0.598  11.344  0.1414 -0.4108 -0.4010
  109OSM   H13C11169   0.828   0.503  11.196  2.2329  2.2225 -0.3016
  109OSM    C1211170   0.659   0.614  11.037  0.0183  0.8823 -0.0605
  109OSM   H12A11171   0.610   0.518  11.034 -0.4933  1.1470 -0.1370
  109OSM   H12B11172   0.756   0.594  10.992  0.8931  2.0782  1.2468
  109OSM    C1111173   0.579   0.717  10.951 -0.2073  0.0503 -0.4647
  109OSM   H11A11174   0.482   0.730  11.003  0.3111  1.4376  0.1936
  109OSM   H11B11175   0.552   0.672  10.853  0.3873  0.2048 -0.7029
  109OSM      P11176   0.751   0.864  10.816  0.0263 -0.5117  0.0556
  109OSM    O1311177   0.791   1.009  10.813  0.1169 -0.1500 -0.0277
  109OSM    O1411178   0.862   0.768  10.831 -0.1937 -0.6568 -0.1060
  109OSM    O1111179   0.653   0.821  10.700  0.5242 -0.1489  0.0903
  109OSM    O1211180   0.650   0.843  10.935  0.5559  0.1194 -0.7053
  109OSM    C1S11181   0.567   0.913  10.634  0.1418 -0.3026 -0.3682
  109OSM    H1S11182   0.563   1.013  10.683 -0.8651 -0.7129  0.4002
  109OSM    H1T11183   0.465   0.873  10.646 -0.6730  2.0224  0.8731
  109OSM     NF11184   0.528   1.037  10.434  0.0040 -0.0585 -0.4799
  109OSM    HNF11185   0.435   1.016  10.406  0.4949 -3.2917  0.1317
  109OSM    C2S11186   0.605   0.924  10.484  0.8705  1.2670  0.7634
  109OSM    H2S11187   0.714   0.944  10.478  1.1571 -0.7012 -1.2008
  109OSM    C3S11188   0.564   0.785  10.414  0.0651  0.1619  0.5627
  109OSM    H3S11189   0.462   0.754  10.446  1.0378 -2.2873  1.3788
  109OSM     O311190   0.646   0.681  10.465  0.5269 -0.1882 -0.0165
  109OSM    HO311191   0.674   0.723  10.547 -0.5626  0.0313  0.2555
  109OSM    C4S11192   0.563   0.786  10.260  0.1501  0.2804 -1.0732
  109OSM    H4S11193   0.666   0.784  10.221  0.8795 -0.9755  0.8148
  109OSM    C5S11194   0.453   0.776  10.177 -0.3420 -0.1027 -1.0475
  109OSM    H5S11195   0.351   0.776  10.218  0.2868  1.0696  0.5737
  109OSM    C6S11196   0.445   0.757  10.034  0.1536 -0.3143 -0.4839
  109OSM    H6S11197   0.358   0.814   9.995  0.2070  0.9785  1.2416
  109OSM    H6T11198   0.429   0.651  10.005 -0.2868 -0.3194 -0.2202
  109OSM    C7S11199   0.571   0.784   9.943 -0.0926 -0.0423  0.3408
  109OSM    H7S11200   0.639   0.699   9.964 -1.0056 -1.2664 -1.5980
  109OSM    H7T11201   0.622   0.883   9.952  0.1861 -0.0470 -1.1791
  109OSM    C8S11202   0.528   0.758   9.797 -0.3391 -0.2548 -0.3028
  109OSM    H8S11203   0.459   0.835   9.757  0.8069  1.5433  1.1431
  109OSM    H8T11204   0.466   0.666   9.792 -0.0509 -0.5081  0.6728
  109OSM    C9S11205   0.647   0.721   9.702  0.1671 -0.1435  0.7786
  109OSM    H9S11206   0.672   0.612   9.704  0.7778 -0.0460 -1.0262
  109OSM    H9T11207   0.732   0.789   9.721  0.2629  0.4927 -1.8108
  109OSM   C10S11208   0.590   0.739   9.557 -0.1275  0.3611 -0.2250
  109OSM   H10S11209   0.546   0.840   9.542 -1.6364 -0.1634  0.5392
  109OSM   H10T11210   0.505   0.668   9.545  1.5194 -1.9295  1.3041
  109OSM   C11S11211   0.704   0.732   9.448  0.2572  0.1442 -0.3206
  109OSM   H11S11212   0.750   0.632   9.462 -1.4793 -0.3303  2.4344
  109OSM   H11T11213   0.784   0.808   9.464  0.2695 -0.0492  0.5436
  109OSM   C12S11214   0.639   0.734   9.306 -0.4512  0.3972 -0.2580
  109OSM   H12S11215   0.589   0.831   9.287 -0.3374  0.6965  0.9449
  109OSM   H12T11216   0.554   0.662   9.306 -2.3375  2.5710 -0.7482
  109OSM   C13S11217   0.741   0.694   9.195  0.0164 -0.1495 -0.4900
  109OSM   H13S11218   0.783   0.595   9.223 -2.8001 -0.9996  0.8568
  109OSM   H13T11219   0.820   0.772   9.189  0.6710 -0.6740  0.9390
  109OSM   C14S11220   0.660   0.681   9.068  0.8963 -0.1706 -0.1755
  109OSM   H14S11221   0.607   0.773   9.036  0.4916 -0.4397 -0.2842
  109OSM   H14T11222   0.585   0.603   9.091 -0.0772  0.9605  0.5174
  109OSM   C15S11223   0.757   0.648   8.950 -0.5344 -0.1285 -0.2287
  109OSM   H15S11224   0.809   0.553   8.976  0.8949  1.6850  4.0657
  109OSM   H15T11225   0.838   0.723   8.961 -0.7569 -0.2933  2.8408
  109OSM   C16S11226   0.692   0.628   8.816  0.6494 -0.1132 -0.7767
  109OSM   H16S11227   0.599   0.687   8.807  0.5438 -0.1336  0.0721
  109OSM   H16T11228   0.659   0.522   8.804  3.2248 -0.7724 -2.3930
  109OSM   C17S11229   0.768   0.657   8.689  0.0922  0.4876 -0.2946
  109OSM   H17S11230   0.851   0.585   8.673 -1.6535 -1.5816 -0.2455
  109OSM   H17T11231   0.814   0.759   8.689 -0.5989  0.8220 -2.1746
  109OSM   C18S11232   0.682   0.649   8.565 -0.2486 -1.2304 -0.6631
  109OSM   H18S11233   0.600   0.723   8.582 -0.4748 -1.1867 -1.8870
  109OSM   H18T11234   0.645   0.547   8.541 -1.8002 -0.9840  0.5944
  109OSM   H18U11235   0.741   0.674   8.474  0.8231  0.4920  0.4766
  109OSM    C1F11236   0.578   1.158  10.467  0.4004  0.3560 -0.5125
  109OSM     OF11237   0.687   1.163  10.520 -0.2793 -0.4501  0.1564
  109OSM    C2F11238   0.497   1.281  10.444 -0.1213 -0.4369  0.6106
  109OSM    H2F11239   0.497   1.344  10.535  1.1607  1.2043 -0.4945
  109OSM    H2G11240   0.393   1.260  10.410  0.5244  2.0254 -3.1358
  109OSM    C3F11241   0.561   1.371  10.338  0.6193  0.3147 -0.5622
  109OSM    H3F11242   0.669   1.386  10.359  0.4450  2.5501 -1.1926
  109OSM    H3G11243   0.522   1.474  10.330 -0.7237 -0.1360  0.0904
  109OSM    C4F11244   0.569   1.309  10.195 -0.6906 -0.4899 -0.4536
  109OSM    H4F11245   0.615   1.208  10.208 -1.7530 -0.8090  1.0314
  109OSM    H4G11246   0.650   1.355  10.134 -1.1060 -0.9914 -1.3941
  109OSM    C5F11247   0.439   1.303  10.119  0.4804  0.1057 -0.9280
  109OSM    H5F11248   0.414   1.404  10.079 -0.7916  1.2720  2.6532
  109OSM    H5G11249   0.350   1.284  10.183  0.9872 -1.0608 -0.5610
  109OSM    C6F11250   0.440   1.193  10.007 -0.2846  0.1038  0.0862
  109OSM    H6F11251   0.338   1.151   9.995 -0.1783  0.0829 -0.7428
  109OSM    H6G11252   0.518   1.116  10.028  1.8959  1.9431 -1.0099
  109OSM    C7F11253   0.494   1.264   9.875 -0.2321 -0.1983  0.8199
  109OSM    H7F11254   0.583   1.327   9.893  0.0183 -0.6201  1.0779
  109OSM    H7G11255   0.420   1.341   9.843  0.0159 -0.5068 -0.5514
  109OSM    C8F11256   0.526   1.170   9.760  0.1837  0.0422  1.7302
  109OSM    H8F11257   0.442   1.097   9.758  2.9633 -3.2519  0.4337
  109OSM    H8G11258   0.614   1.111   9.795  1.6804  0.5965 -0.9579
  109OSM    C9F11259   0.552   1.237   9.628 -0.3671  0.7910 -0.6826
  109OSM    H9F11260   0.633   1.311   9.628 -0.2357  0.6474 -0.6681
  109OSM   C10F11261   0.478   1.211   9.515 -0.6551  0.8961 -0.4164
  109OSM   H10F11262   0.518   1.263   9.428 -0.0319  0.2005 -0.5542
  109OSM   C11F11263   0.364   1.119   9.492 -0.6420 -0.2365 -0.1323
  109OSM   H11F11264   0.273   1.181   9.478  1.0339  2.5053  0.6454
  109OSM   H11G11265   0.341   1.069   9.588 -1.1824  2.6889  1.3253
  109OSM   C12F11266   0.387   1.016   9.384  0.7779  0.8180 -0.8375
  109OSM   H12F11267   0.318   0.930   9.400  1.5726  0.4381  0.6108
  109OSM   H12G11268   0.491   0.980   9.390  0.0035 -1.3025  0.2770
  109OSM   C13F11269   0.346   1.068   9.246  0.2967  0.0659  0.6098
  109OSM   H13F11270   0.404   1.162   9.231 -1.0357  0.7827 -0.1423
  109OSM   H13G11271   0.238   1.094   9.246  0.2313 -0.1853 -0.2067
  109OSM   C14F11272   0.379   0.982   9.125  0.4254  0.2328 -0.6892
  109OSM   H14F11273   0.324   0.886   9.127  0.7713 -0.0662 -3.5890
  109OSM   H14G11274   0.487   0.956   9.127  0.4321  0.2036  2.7616
  109OSM   C15F11275   0.340   1.061   8.995 -0.2611  0.0488 -0.3360
  109OSM   H15F11276   0.401   1.154   8.987  0.4549 -0.1786  2.1526
  109OSM   H15G11277   0.232   1.088   9.000  0.1086  1.3958  0.9319
  109OSM   C16F11278   0.374   0.985   8.865 -0.1692 -0.2225 -0.0358
  109OSM   H16F11279   0.340   0.880   8.883  0.3617 -0.4968 -0.6305
  109OSM   H16G11280   0.482   0.972   8.847 -0.0934 -1.3929  1.2010
  109OSM   C17F11281   0.293   1.038   8.760  0.3823 -0.0970 -0.1989
  109OSM   H17F11282   0.316   1.145   8.739 -2.3984  0.4170 -0.8450
  109OSM   H17G11283   0.186   1.041   8.791  0.4000 -1.7320  0.0329
  109OSM   C18F11284   0.302   0.962   8.637 -0.6220 -0.3365 -0.5574
  109OSM   H18F11285   0.281   0.853   8.644  0.6689 -0.4328  2.5616
  109OSM   H18G11286   0.406   0.965   8.599  0.5069  1.9134  2.5335
  109OSM   H18H11287   0.232   0.992   8.556 -3.0740  1.0450  1.9761
  110OSM      N11288   1.592   6.744  11.129 -0.4144  0.7133  0.2421
  110OSM    C1511289   1.476   6.753  11.024  1.1847 -0.7624  0.0293
  110OSM   H15A11290   1.497   6.833  10.954  0.3255  0.2503  0.9036
  110OSM   H15B11291   1.379   6.770  11.068  1.7675 -2.6845  2.1438
  110OSM   H15C11292   1.471   6.657  10.976  2.0846 -1.0596  0.5128
  110OSM    C1411293   1.544   6.829  11.245 -0.6481 -0.1385 -0.4647
  110OSM   H14A11294   1.447   6.816  11.293  0.2364 -0.6212  1.2452
  110OSM   H14B11295   1.557   6.932  11.216 -1.5757  0.6937  1.9508
  110OSM   H14C11296   1.610   6.816  11.329 -0.5761 -1.9772 -0.7774
  110OSM    C1311297   1.606   6.597  11.170  0.5045 -0.4826  0.2599
  110OSM   H13A11298   1.594   6.525  11.090 -1.3342 -2.4724  2.2731
  110OSM   H13B11299   1.538   6.580  11.251 -2.4315  0.0086 -1.9940
  110OSM   H13C11300   1.707   6.576  11.201  0.1068 -2.3434  0.3265
  110OSM    C1211301   1.722   6.787  11.067 -0.1482  0.0305  0.8168
  110OSM   H12A11302   1.794   6.787  11.148 -1.4762 -1.3783  2.0240
  110OSM   H12B11303   1.707   6.891  11.043 -0.8715 -0.5085 -1.1330
  110OSM    C1111304   1.781   6.713  10.940  0.1449 -0.6131  0.1062
  110OSM   H11A11305   1.875   6.760  10.903  0.1199  0.3753  1.2768
  110OSM   H11B11306   1.710   6.744  10.861 -0.7052 -0.6539  0.8412
  110OSM      P11307   1.906   6.490  10.991  0.0295 -0.2504 -0.2559
  110OSM    O1311308   1.939   6.529  11.130  0.8843 -0.4051 -0.1491
  110OSM    O1411309   1.878   6.347  10.974 -0.1899 -0.0443  0.5985
  110OSM    O1111310   2.012   6.545  10.895 -0.1208 -0.0407  0.1649
  110OSM    O1211311   1.780   6.567  10.943  0.2923 -0.0225  0.2513
  110OSM    C1S11312   2.021   6.499  10.760 -0.0232  1.0709  0.0517
  110OSM    H1S11313   1.928   6.457  10.717 -0.5935  1.5372  0.8216
  110OSM    H1T11314   2.108   6.432  10.742 -0.0141  1.0484  0.1811
  110OSM     NF11315   2.006   6.582  10.527  0.6207 -0.0849 -0.0691
  110OSM    HNF11316   2.081   6.573  10.461  0.5396  0.8121 -0.2947
  110OSM    C2S11317   2.039   6.622  10.661  0.0123 -0.8516  0.0400
  110OSM    H2S11318   1.967   6.698  10.696  1.1645 -0.2176  1.1026
  110OSM    C3S11319   2.178   6.681  10.673 -0.0016  0.0024  0.6676
  110OSM    H3S11320   2.238   6.592  10.645 -2.4253 -1.1201 -1.2013
  110OSM     O311321   2.221   6.728  10.798  0.7051  0.7149 -0.2301
  110OSM    HO311322   2.170   6.666  10.852  0.7302 -0.2175 -1.2496
  110OSM    C4S11323   2.202   6.786  10.566 -0.5094  0.2280 -0.7701
  110OSM    H4S11324   2.227   6.733  10.473  0.2682 -2.6536  1.0101
  110OSM    C5S11325   2.206   6.916  10.574  0.1300 -0.0069  0.2576
  110OSM    H5S11326   2.195   6.971  10.669  1.3842 -0.2366  0.5435
  110OSM    C6S11327   2.239   7.007  10.458  0.6123 -0.8557  0.6249
  110OSM    H6S11328   2.236   6.955  10.359 -0.4643  0.4276 -0.0238
  110OSM    H6T11329   2.346   7.032  10.474  1.0450 -1.5351 -0.9918
  110OSM    C7S11330   2.162   7.134  10.428 -0.3388 -0.0474  0.0813
  110OSM    H7S11331   2.188   7.212  10.504  0.1417 -0.8047  0.7011
  110OSM    H7T11332   2.052   7.117  10.435 -0.4225  0.6635  0.6529
  110OSM    C8S11333   2.198   7.187  10.294  0.2527 -0.2279  0.4682
  110OSM    H8S11334   2.177   7.107  10.219 -1.2208  0.8161 -0.2606
  110OSM    H8T11335   2.304   7.219  10.285  0.0953  0.9626  2.4710
  110OSM    C9S11336   2.115   7.302  10.248  0.0757  0.8124  0.1715
  110OSM    H9S11337   2.137   7.383  10.321 -1.2479 -0.5430  2.1381
  110OSM    H9T11338   2.009   7.279  10.271 -0.0610  1.4057  0.1569
  110OSM   C10S11339   2.147   7.346  10.106  0.1802  0.1366  1.2614
  110OSM   H10S11340   2.255   7.360  10.086 -0.1917  0.3765 -0.6300
  110OSM   H10T11341   2.094   7.443  10.088  2.0252  0.7491 -1.0685
  110OSM   C11S11342   2.094   7.250   9.997 -0.4411  0.6479  0.1512
  110OSM   H11S11343   1.984   7.243  10.008 -0.4196  1.5475  1.0252
  110OSM   H11T11344   2.142   7.151  10.005 -0.5960  0.5386 -0.2642
  110OSM   C12S11345   2.118   7.311   9.862  0.2123 -0.0293  0.2444
  110OSM   H12S11346   2.226   7.338   9.858 -0.5645  3.2999  0.0287
  110OSM   H12T11347   2.056   7.403   9.854 -1.5664 -1.1168  1.3971
  110OSM   C13S11348   2.093   7.213   9.749  0.3468  0.4742 -0.6958
  110OSM   H13S11349   1.983   7.198   9.755  0.7521 -1.9571  1.4222
  110OSM   H13T11350   2.133   7.112   9.773  0.4000  0.2666 -1.6184
  110OSM   C14S11351   2.150   7.257   9.613  0.0943  0.4829 -0.4467
  110OSM   H14S11352   2.259   7.257   9.634 -0.0430  0.8015  0.2938
  110OSM   H14T11353   2.128   7.365   9.594  2.1836  1.2535  1.2922
  110OSM   C15S11354   2.130   7.159   9.502 -0.3230 -0.2372 -0.4056
  110OSM   H15S11355   2.150   7.058   9.545 -1.5701 -0.2814  0.1005
  110OSM   H15T11356   2.203   7.172   9.419 -0.8430 -1.2467 -1.0403
  110OSM   C16S11357   1.995   7.152   9.440 -0.3194 -0.1227  0.1443
  110OSM   H16S11358   1.977   7.238   9.372 -1.6504 -0.2055  0.3832
  110OSM   H16T11359   1.919   7.161   9.521 -1.2230 -2.3800 -0.4276
  110OSM   C17S11360   1.965   7.016   9.373 -0.1181 -0.5152  0.2664
  110OSM   H17S11361   1.972   6.938   9.452  0.5477 -0.5580  0.1717
  110OSM   H17T11362   2.040   6.998   9.293  1.2841 -3.0881  2.0679
  110OSM   C18S11363   1.823   6.990   9.316 -0.4936  0.5994 -0.0313
  110OSM   H18S11364   1.745   6.979   9.395  0.4819  0.3443  0.9142
  110OSM   H18T11365   1.829   6.895   9.258 -0.4301  0.1733  0.6573
  110OSM   H18U11366   1.788   7.072   9.250  1.0534  0.0814 -1.5334
  110OSM    C1F11367   1.884   6.565  10.484  1.4517 -0.2248 -0.6117
  110OSM     OF11368   1.788   6.617  10.536 -1.0655  0.6122  0.3936
  110OSM    C2F11369   1.874   6.492  10.351 -0.6683  0.7092  0.4238
  110OSM    H2F11370   1.911   6.388  10.359  1.9666  1.7050  1.7774
  110OSM    H2G11371   1.928   6.543  10.269 -0.3275 -1.7351 -0.8982
  110OSM    C3F11372   1.723   6.484  10.301 -0.5809 -0.2782 -0.2774
  110OSM    H3F11373   1.681   6.587  10.304  0.4795  0.1026  3.0093
  110OSM    H3G11374   1.666   6.426  10.376  1.6622 -0.4363  1.3505
  110OSM    C4F11375   1.713   6.425  10.160 -0.0349  0.3754 -0.4214
  110OSM    H4F11376   1.774   6.491  10.093 -1.9657  1.7489 -0.8537
  110OSM    H4G11377   1.608   6.439  10.127  0.0553  2.4698  0.1098
  110OSM    C5F11378   1.735   6.273  10.151 -0.2751 -0.1221  0.2825
  110OSM    H5F11379   1.671   6.202  10.207 -2.4273 -0.1812 -2.1795
  110OSM    H5G11380   1.829   6.253  10.208  0.0436  2.3531  0.7022
  110OSM    C6F11381   1.754   6.227  10.003  0.5444  0.6450 -0.1056
  110OSM    H6F11382   1.863   6.209   9.989  1.0720  1.2221  2.8645
  110OSM    H6G11383   1.703   6.310   9.950  2.6238  1.0270 -1.5402
  110OSM    C7F11384   1.681   6.094   9.961  0.5206 -0.8058  0.5761
  110OSM    H7F11385   1.584   6.069  10.011 -1.3405  1.9893 -1.5001
  110OSM    H7G11386   1.754   6.016   9.991  1.3132 -1.2813 -2.4333
  110OSM    C8F11387   1.661   6.074   9.805  0.0249 -0.7556  0.4110
  110OSM    H8F11388   1.764   6.078   9.765 -0.6321 -0.0065 -1.2417
  110OSM    H8G11389   1.601   6.160   9.769  0.2286 -0.1334  1.5204
  110OSM    C9F11390   1.595   5.945   9.777  0.1189  0.4534 -0.5880
  110OSM    H9F11391   1.546   5.892   9.860 -1.8196 -0.5421 -2.2922
  110OSM   C10F11392   1.617   5.872   9.667  0.3638 -0.2978 -0.0894
  110OSM   H10F11393   1.574   5.770   9.664 -0.5804  0.1316 -2.2035
  110OSM   C11F11394   1.698   5.916   9.553 -0.2296 -0.2379  0.5915
  110OSM   H11F11395   1.803   5.882   9.565  0.3454  1.1527 -0.2895
  110OSM   H11G11396   1.698   6.027   9.545 -1.3180 -0.2063  0.9670
  110OSM   C12F11397   1.666   5.849   9.417  0.3222 -0.5117  0.1651
  110OSM   H12F11398   1.563   5.879   9.389  0.8993 -0.7056 -2.2304
  110OSM   H12G11399   1.680   5.740   9.430 -0.3979 -0.4480  1.6258
  110OSM   C13F11400   1.765   5.897   9.316 -0.0360  0.1851 -0.5045
  110OSM   H13F11401   1.866   5.851   9.325  0.2390  0.0462 -3.7403
  110OSM   H13G11402   1.789   6.004   9.332 -0.2499  0.1392  0.1144
  110OSM   C14F11403   1.734   5.873   9.171 -0.4082  0.3228  0.9328
  110OSM   H14F11404   1.644   5.928   9.137 -2.1041 -1.3262  2.5908
  110OSM   H14G11405   1.709   5.765   9.158  1.1906  0.1902 -1.1174
  110OSM   C15F11406   1.850   5.907   9.076 -0.0228  0.6194 -0.3151
  110OSM   H15F11407   1.942   5.862   9.118 -2.4160 -1.6298  2.8369
  110OSM   H15G11408   1.875   6.014   9.085 -3.1091  1.3931 -0.2629
  110OSM   C16F11409   1.826   5.875   8.932 -0.3950  0.3039 -0.9901
  110OSM   H16F11410   1.915   5.919   8.882  1.3544 -0.2234  1.5551
  110OSM   H16G11411   1.738   5.930   8.891 -3.1726 -1.7265  2.0253
  110OSM   C17F11412   1.804   5.724   8.908 -0.2560  0.0967 -0.7617
  110OSM   H17F11413   1.708   5.703   8.960  0.4870  2.1520  1.5431
  110OSM   H17G11414   1.888   5.665   8.951 -0.8557 -0.4907 -0.3913
  110OSM   C18F11415   1.793   5.685   8.764  0.0553  0.1096 -0.1942
  110OSM   H18F11416   1.762   5.580   8.746  1.1351 -0.2237 -0.1366
  110OSM   H18G11417   1.882   5.705   8.700 -0.3217  0.7284 -0.5296
  110OSM   H18H11418   1.722   5.747   8.706 -0.4019 -0.8416 -0.6684
  111OSM      N11419   2.879   4.182  11.098  0.2657 -0.5152 -0.5897
  111OSM    C1511420   2.741   4.130  11.082  0.1684  0.9123  0.5199
  111OSM   H15A11421   2.675   4.207  11.046 -1.5435  0.5235  2.7038
  111OSM   H15B11422   2.701   4.082  11.171  1.5847 -1.5136 -0.1029
  111OSM   H15C11423   2.747   4.046  11.014 -0.5688  0.5778  0.8601
  111OSM    C1411424   2.869   4.318  11.169 -0.3111  0.5622  0.1743
  111OSM   H14A11425   2.780   4.364  11.129 -0.5835  1.1019  1.4047
  111OSM   H14B11426   2.944   4.387  11.132  1.0111 -0.9334 -0.0222
  111OSM   H14C11427   2.846   4.311  11.274  3.0141  0.9322  0.9891
  111OSM    C1311428   2.965   4.096  11.188 -0.0832 -0.4103 -0.0184
  111OSM   H13A11429   2.967   4.001  11.137  0.4640 -1.3757  1.7711
  111OSM   H13B11430   2.924   4.096  11.288 -0.3463  0.8865 -0.1154
  111OSM   H13C11431   3.068   4.126  11.199 -0.1324 -1.1259  2.7302
  111OSM    C1211432   2.949   4.202  10.969  1.0674 -0.2452 -0.0758
  111OSM   H12A11433   2.952   4.107  10.918  1.0225 -1.1649  1.5897
  111OSM   H12B11434   3.054   4.225  10.982  1.2449  0.8917 -3.1968
  111OSM    C1111435   2.906   4.318  10.868 -0.6933 -0.4942  0.7793
  111OSM   H11A11436   2.797   4.306  10.888 -0.4746 -0.5951  1.9317
  111OSM   H11B11437   2.941   4.291  10.766  1.9860 -0.3396  1.6305
  111OSM      P11438   3.072   4.515  10.885  0.1664  0.0260 -0.0440
  111OSM    O1311439   3.073   4.644  10.958  0.4711  0.5101  0.1976
  111OSM    O1411440   3.173   4.408  10.906  0.4907 -0.1610 -0.8345
  111OSM    O1111441   3.069   4.547  10.722  0.4432 -0.8990  0.6880
  111OSM    O1211442   2.934   4.452  10.916  0.1125 -0.2923  0.0035
  111OSM    C1S11443   2.955   4.623  10.669  0.7534 -0.2417  0.2188
  111OSM    H1S11444   2.969   4.733  10.676 -1.2628  0.0580 -0.1943
  111OSM    H1T11445   2.858   4.599  10.716  1.3964  1.0867  2.2700
  111OSM     NF11446   2.833   4.684  10.455  0.3240  0.8545 -0.2829
  111OSM    HNF11447   2.747   4.638  10.433  0.2211  0.7844  0.2582
  111OSM    C2S11448   2.936   4.596  10.515 -0.1369  0.4507  0.5668
  111OSM    H2S11449   3.035   4.617  10.468 -0.5395 -1.7795 -1.3239
  111OSM    C3S11450   2.902   4.445  10.491 -0.2235  0.4953 -0.5660
  111OSM    H3S11451   2.813   4.409  10.547  0.0449  0.6031 -0.0648
  111OSM     O311452   3.007   4.361  10.532 -0.6517  0.2156 -0.2445
  111OSM    HO311453   3.065   4.417  10.584 -1.6668  0.2084  0.9082
  111OSM    C4S11454   2.874   4.415  10.340  0.5473 -0.1537 -0.6277
  111OSM    H4S11455   2.770   4.389  10.314  0.9439 -1.6514 -0.7735
  111OSM    C5S11456   2.968   4.430  10.238  0.4195  0.2119 -0.1576
  111OSM    H5S11457   3.069   4.463  10.269 -0.5683  2.3862  0.8856
  111OSM    C6S11458   2.953   4.398  10.085  0.0617  0.3091 -0.0490
  111OSM    H6S11459   3.037   4.331  10.057 -1.0720 -1.0682 -0.2145
  111OSM    H6T11460   2.949   4.487  10.019  0.6743 -2.0037 -3.3364
  111OSM    C7S11461   2.823   4.313  10.049 -0.1492  0.2645  0.4934
  111OSM    H7S11462   2.738   4.385  10.055 -0.3196 -0.0799  3.0084
  111OSM    H7T11463   2.807   4.229  10.120  1.8089 -1.6140 -1.2406
  111OSM    C8S11464   2.813   4.269   9.901 -0.4268  0.0185 -0.0894
  111OSM    H8S11465   2.723   4.206   9.886  1.0451 -2.0694 -0.4009
  111OSM    H8T11466   2.897   4.200   9.878  0.6679  1.1052  0.6045
  111OSM    C9S11467   2.806   4.381   9.796 -0.0594  0.5151  0.0285
  111OSM    H9S11468   2.908   4.417   9.773  1.2438 -1.1093  3.0410
  111OSM    H9T11469   2.742   4.463   9.836 -1.8897 -0.5940 -0.5363
  111OSM   C10S11470   2.745   4.336   9.662  0.6808 -0.0512  0.1577
  111OSM   H10S11471   2.720   4.426   9.603  2.6944 -0.9732 -2.1794
  111OSM   H10T11472   2.652   4.277   9.678  1.2845 -1.0813 -0.0739
  111OSM   C11S11473   2.850   4.247   9.582  0.3214  0.1703 -0.3696
  111OSM   H11S11474   2.880   4.162   9.647  0.1215  0.6670  0.3757
  111OSM   H11T11475   2.938   4.313   9.567  1.2787 -1.0343 -0.1481
  111OSM   C12S11476   2.789   4.186   9.449 -0.4399 -0.0463 -0.4371
  111OSM   H12S11477   2.682   4.161   9.466 -0.7147  1.2663 -0.2325
  111OSM   H12T11478   2.846   4.092   9.434  0.6384  0.5590 -0.1704
  111OSM   C13S11479   2.791   4.285   9.336  0.3080  0.0018  0.3402
  111OSM   H13S11480   2.890   4.328   9.312  0.6200  0.2351  2.0023
  111OSM   H13T11481   2.733   4.375   9.365 -0.5648 -0.6733  0.7262
  111OSM   C14S11482   2.738   4.215   9.209 -0.1111  0.3283  0.7525
  111OSM   H14S11483   2.748   4.293   9.130  1.9791 -1.5189 -0.8393
  111OSM   H14T11484   2.630   4.188   9.209 -0.5009  1.8360  0.8927
  111OSM   C15S11485   2.833   4.106   9.162 -0.2372 -0.1695 -0.0626
  111OSM   H15S11486   2.814   4.016   9.225 -2.5404 -0.2631 -0.8297
  111OSM   H15T11487   2.938   4.139   9.175  0.3733 -2.2113  0.3822
  111OSM   C16S11488   2.787   4.065   9.016  0.7295 -0.6278 -0.0135
  111OSM   H16S11489   2.814   4.152   8.952 -0.2734 -0.8639 -0.7715
  111OSM   H16T11490   2.677   4.048   9.024  0.4731  1.0163  0.1532
  111OSM   C17S11491   2.860   3.939   8.970 -0.4465 -0.2833 -0.2867
  111OSM   H17S11492   2.883   3.873   9.056  1.4557  2.3219  1.2975
  111OSM   H17T11493   2.958   3.976   8.934 -0.1842 -0.9130 -0.2203
  111OSM   C18S11494   2.804   3.857   8.853 -0.4313  0.7544  0.3873
  111OSM   H18S11495   2.881   3.782   8.825 -0.8549  0.9251 -1.3091
  111OSM   H18T11496   2.771   3.922   8.769  1.5565  0.1564 -0.9086
  111OSM   H18U11497   2.720   3.791   8.883  1.5779 -1.5465  1.1175
  111OSM    C1F11498   2.834   4.812  10.439 -0.0952  0.2478  1.0327
  111OSM     OF11499   2.919   4.881  10.497  0.4913 -0.1939 -0.9765
  111OSM    C2F11500   2.716   4.873  10.367  0.3877  0.0446  0.2347
  111OSM    H2F11501   2.630   4.883  10.436 -0.1530 -0.3372 -0.3732
  111OSM    H2G11502   2.687   4.796  10.292  0.5412 -0.1336  0.3580
  111OSM    C3F11503   2.755   5.006  10.297  0.1604  0.5427  0.8399
  111OSM    H3F11504   2.817   5.074  10.359  0.8784 -0.1215  0.8635
  111OSM    H3G11505   2.664   5.064  10.273 -0.3312 -0.9856 -1.1436
  111OSM    C4F11506   2.832   4.986  10.155 -0.5389  0.0015 -0.2716
  111OSM    H4F11507   2.755   4.932  10.097 -1.6565  0.1025  1.0617
  111OSM    H4G11508   2.915   4.914  10.165 -1.0847 -0.6039 -0.0477
  111OSM    C5F11509   2.869   5.111  10.081 -0.5808 -0.2686  0.6182
  111OSM    H5F11510   2.964   5.146  10.127 -0.4208 -1.3417  1.1343
  111OSM    H5G11511   2.801   5.197  10.098 -1.2243 -0.5827 -0.3207
  111OSM    C6F11512   2.881   5.088   9.927 -0.3169  0.4108  0.9221
  111OSM    H6F11513   2.784   5.039   9.903 -1.1992  2.3752  0.3632
  111OSM    H6G11514   2.959   5.013   9.903 -0.7753  0.7054 -1.6433
  111OSM    C7F11515   2.906   5.207   9.836 -0.4510 -0.2072 -0.1349
  111OSM    H7F11516   2.996   5.253   9.884 -0.5852  0.1196 -0.1975
  111OSM    H7G11517   2.822   5.279   9.848  0.3952  0.6258  0.9184
  111OSM    C8F11518   2.924   5.171   9.688 -0.3562 -0.8794 -0.4558
  111OSM    H8F11519   3.016   5.109   9.676  0.4818  0.3612 -0.4908
  111OSM    H8G11520   2.941   5.265   9.632  0.7283  2.3362  4.9246
  111OSM    C9F11521   2.799   5.099   9.637 -0.1599 -0.0779 -0.1623
  111OSM    H9F11522   2.758   5.025   9.708  0.1081 -0.0700  0.0032
  111OSM   C10F11523   2.743   5.105   9.516  0.0063  0.5936 -1.0324
  111OSM   H10F11524   2.642   5.061   9.512 -0.6572  2.0909 -1.0803
  111OSM   C11F11525   2.791   5.200   9.408 -0.0584 -0.0717 -0.5700
  111OSM   H11F11526   2.797   5.304   9.447  2.8367 -0.3981 -0.0973
  111OSM   H11G11527   2.725   5.209   9.319  1.3238 -0.0143 -1.6075
  111OSM   C12F11528   2.929   5.161   9.348 -0.0518  0.7513 -0.5111
  111OSM   H12F11529   2.910   5.056   9.318  0.2913  0.3101  0.7501
  111OSM   H12G11530   3.006   5.159   9.428 -1.4484 -3.6011  0.8715
  111OSM   C13F11531   2.956   5.242   9.216 -0.5606  0.6507 -0.1976
  111OSM   H13F11532   3.056   5.206   9.184  0.2368  0.5098  2.3057
  111OSM   H13G11533   2.973   5.348   9.247 -3.6630  1.0272  0.4155
  111OSM   C14F11534   2.857   5.225   9.097 -0.8840 -0.3810  0.0323
  111OSM   H14F11535   2.782   5.305   9.111 -1.0073 -0.6112  0.7154
  111OSM   H14G11536   2.817   5.125   9.124  1.6351 -1.5969 -0.6200
  111OSM   C15F11537   2.920   5.249   8.960 -0.0081  0.0585 -0.1770
  111OSM   H15F11538   2.856   5.193   8.889  1.3521 -1.5761 -0.1471
  111OSM   H15G11539   3.021   5.204   8.947 -0.3514 -1.0859  1.0059
  111OSM   C16F11540   2.925   5.399   8.922 -0.0060  0.3839 -0.2345
  111OSM   H16F11541   2.953   5.454   9.014  0.7645 -0.2893 -0.0627
  111OSM   H16G11542   2.820   5.427   8.899 -0.1206 -0.5576 -0.8985
  111OSM   C17F11543   3.020   5.436   8.804 -0.1164 -0.0729  0.4139
  111OSM   H17F11544   3.082   5.346   8.786  2.8929  2.2168 -1.1492
  111OSM   H17G11545   3.080   5.520   8.844 -1.1810  1.2941 -0.7656
  111OSM   C18F11546   2.958   5.476   8.669 -0.0952 -0.5296  0.0554
  111OSM   H18F11547   2.898   5.394   8.623 -1.5980  1.3878 -1.5381
  111OSM   H18G11548   3.047   5.507   8.611 -1.6718  2.0851 -1.0703
  111OSM   H18H11549   2.892   5.562   8.695  0.5716  0.0364 -0.0979
  112OSM      N11550   2.080   2.669  10.920  0.1616  0.2541  0.1269
  112OSM    C1511551   2.174   2.607  10.827 -0.3409 -0.6533  0.4046
  112OSM   H15A11552   2.125   2.591  10.732  1.7108 -1.7035 -0.5224
  112OSM   H15B11553   2.189   2.509  10.870  0.2484 -0.5638  0.4080
  112OSM   H15C11554   2.261   2.670  10.817 -1.6121  1.0424 -0.2392
  112OSM    C1411555   2.128   2.646  11.059  0.1899  0.1920 -0.2088
  112OSM   H14A11556   2.115   2.542  11.082 -1.7395  0.3104 -0.6464
  112OSM   H14B11557   2.069   2.708  11.127  0.4983  1.4893 -1.1001
  112OSM   H14C11558   2.232   2.671  11.074 -0.4955  2.5405  0.9100
  112OSM    C1311559   2.063   2.816  10.887 -0.3698  0.3056 -0.0193
  112OSM   H13A11560   2.156   2.870  10.899  0.0177  0.0690 -1.8591
  112OSM   H13B11561   1.990   2.858  10.955 -1.5938  0.1637 -1.2171
  112OSM   H13C11562   2.029   2.836  10.787 -1.1445  2.0988  0.5822
  112OSM    C1211563   1.943   2.600  10.899 -0.9484  0.2948  1.4305
  112OSM   H12A11564   1.862   2.639  10.959 -2.0803  2.1681 -1.2224
  112OSM   H12B11565   1.951   2.494  10.919 -0.8985  0.3152  1.5200
  112OSM    C1111566   1.872   2.597  10.763 -0.5658 -0.2824  0.4613
  112OSM   H11A11567   1.791   2.522  10.770 -0.7013 -0.2120 -0.3109
  112OSM   H11B11568   1.938   2.540  10.694 -0.8729  0.0987 -0.1430
  112OSM      P11569   1.707   2.798  10.765 -0.1686  0.0884  0.7833
  112OSM    O1311570   1.664   2.749  10.899 -0.2521 -0.0700  0.3490
  112OSM    O1411571   1.715   2.943  10.749  0.2582 -0.2018 -0.0920
  112OSM    O1111572   1.595   2.742  10.677  0.1736 -0.0681 -0.1241
  112OSM    O1211573   1.833   2.728  10.710  0.2040 -0.5587 -0.1271
  112OSM    C1S11574   1.591   2.762  10.533  0.2020 -0.5963 -0.3726
  112OSM    H1S11575   1.620   2.866  10.507  0.2720 -0.0787  1.7079
  112OSM    H1T11576   1.486   2.754  10.498  0.0071 -0.8714  0.2685
  112OSM     NF11577   1.624   2.672  10.314 -0.0898  0.5091  0.0530
  112OSM    HNF11578   1.544   2.621  10.286  0.2993 -0.3011  0.3958
  112OSM    C2S11579   1.661   2.651  10.453 -0.0258 -0.3446  0.1050
  112OSM    H2S11580   1.772   2.659  10.465 -0.0065 -1.2953  0.6867
  112OSM    C3S11581   1.610   2.504  10.490  0.0122  0.6722  0.5642
  112OSM    H3S11582   1.513   2.481  10.441 -0.9171 -1.2268  3.1793
  112OSM     O311583   1.582   2.483  10.629 -0.3775  0.5510  0.2047
  112OSM    HO311584   1.580   2.570  10.669 -0.2425 -0.4075  2.3744
  112OSM    C4S11585   1.705   2.399  10.434 -0.1876 -0.2084 -0.4277
  112OSM    H4S11586   1.700   2.390  10.325  1.5302  1.0340 -0.6461
  112OSM    C5S11587   1.801   2.327  10.497 -0.7044  0.1487  0.5514
  112OSM    H5S11588   1.803   2.326  10.607 -1.9339  1.2010  0.5930
  112OSM    C6S11589   1.900   2.243  10.418 -0.2437 -0.2054  0.4528
  112OSM    H6S11590   2.003   2.247  10.459  0.5592  0.7541 -1.5903
  112OSM    H6T11591   1.923   2.296  10.323  1.2624 -0.3254  0.7369
  112OSM    C7S11592   1.860   2.098  10.409 -0.5000  0.3319 -0.0916
  112OSM    H7S11593   1.760   2.089  10.362 -1.1425  1.0062  1.1193
  112OSM    H7T11594   1.853   2.046  10.507  2.2261  0.8873  0.4293
  112OSM    C8S11595   1.954   2.010  10.327  0.8869  0.5747  0.1927
  112OSM    H8S11596   1.911   1.908  10.324  0.3773  0.7857  0.2317
  112OSM    H8T11597   2.055   2.014  10.373  1.5045  0.5186 -1.1191
  112OSM    C9S11598   1.961   2.042  10.179  0.1630  0.4611  0.6012
  112OSM    H9S11599   2.034   1.971  10.134 -0.4098 -0.9645  1.8673
  112OSM    H9T11600   2.009   2.141  10.166  1.0784  0.1162  1.2995
  112OSM   C10S11601   1.837   2.031  10.089 -0.3357 -0.0592 -1.0545
  112OSM   H10S11602   1.743   2.075  10.128  0.0726 -0.4311  0.3783
  112OSM   H10T11603   1.829   1.921  10.075  1.5841 -0.5195  1.0510
  112OSM   C11S11604   1.859   2.084   9.944  0.3379 -0.3905  0.4908
  112OSM   H11S11605   1.872   2.194   9.940  1.0645 -0.5029 -0.4320
  112OSM   H11T11606   1.761   2.067   9.895 -0.6906 -0.7937  2.6637
  112OSM   C12S11607   1.974   2.013   9.866 -0.3092  0.0725 -0.2536
  112OSM   H12S11608   1.967   1.902   9.869  2.9272 -0.2214 -2.0792
  112OSM   H12T11609   2.067   2.039   9.920  0.5671  1.2698 -2.2866
  112OSM   C13S11610   1.984   2.054   9.715 -0.2315  0.8494 -0.1611
  112OSM   H13S11611   1.971   2.164   9.705 -0.0492  0.7058 -2.1542
  112OSM   H13T11612   1.904   2.006   9.654  0.3050 -0.1583 -0.0776
  112OSM   C14S11613   2.126   2.022   9.663 -0.3542  0.6749  0.6107
  112OSM   H14S11614   2.147   1.913   9.670  1.3354  0.6328 -3.4644
  112OSM   H14T11615   2.206   2.077   9.718 -0.6927  1.2480  0.5364
  112OSM   C15S11616   2.137   2.063   9.516  0.3388 -0.5179  0.8971
  112OSM   H15S11617   2.244   2.087   9.499  0.0292  0.9958  0.9897
  112OSM   H15T11618   2.069   2.150   9.498 -0.1979 -1.1966 -0.4209
  112OSM   C16S11619   2.105   1.954   9.408  0.0125  0.2525  0.7549
  112OSM   H16S11620   1.995   1.940   9.413 -0.0898  0.2458 -1.2383
  112OSM   H16T11621   2.154   1.858   9.437  1.4472  0.9451  0.6976
  112OSM   C17S11622   2.138   1.992   9.263  0.2201  0.0193 -0.0160
  112OSM   H17S11623   2.248   1.989   9.252  0.1804 -0.8319 -0.2046
  112OSM   H17T11624   2.103   2.095   9.240 -0.7030  0.7602  4.3588
  112OSM   C18S11625   2.070   1.906   9.149 -0.3630  0.1790 -0.1507
  112OSM   H18S11626   1.960   1.908   9.167 -0.0174 -1.5302  2.4294
  112OSM   H18T11627   2.092   1.799   9.165 -1.8957 -0.1063  0.1298
  112OSM   H18U11628   2.097   1.945   9.049  0.6704  0.6888  0.3190
  112OSM    C1F11629   1.680   2.771  10.246 -0.2981 -0.0527 -1.0576
  112OSM     OF11630   1.788   2.819  10.287  0.0196 -0.2229 -0.6159
  112OSM    C2F11631   1.609   2.813  10.119 -0.3272  0.6269 -0.2775
  112OSM    H2F11632   1.538   2.897  10.138 -0.7282  0.4032 -0.7745
  112OSM    H2G11633   1.541   2.729  10.095  0.4551 -0.3811  0.9766
  112OSM    C3F11634   1.702   2.835  10.001 -0.2880  0.0407 -0.8104
  112OSM    H3F11635   1.770   2.748   9.990 -0.7180 -0.3012 -0.7944
  112OSM    H3G11636   1.757   2.927  10.029 -1.5738  0.3080  0.8609
  112OSM    C4F11637   1.626   2.854   9.865 -0.2468  0.1931 -0.2715
  112OSM    H4F11638   1.578   2.954   9.872  1.2914  1.0122 -1.2352
  112OSM    H4G11639   1.547   2.776   9.867 -0.1073 -0.0029 -1.6696
  112OSM    C5F11640   1.710   2.840   9.746  0.8476 -0.6127  0.0579
  112OSM    H5F11641   1.793   2.769   9.764  0.9260 -1.2721 -2.6881
  112OSM    H5G11642   1.748   2.942   9.724 -0.9327  0.2155  0.7046
  112OSM    C6F11643   1.623   2.797   9.622  0.6435  0.7925 -0.0039
  112OSM    H6F11644   1.565   2.885   9.590  2.5398  2.2041  0.3357
  112OSM    H6G11645   1.553   2.715   9.649 -1.5040  3.1571  1.7869
  112OSM    C7F11646   1.703   2.762   9.494  0.4941  0.0632 -0.3065
  112OSM    H7F11647   1.776   2.682   9.520 -0.1235 -0.6219 -0.6517
  112OSM    H7G11648   1.761   2.853   9.470  0.7546  0.2800  1.1474
  112OSM    C8F11649   1.630   2.736   9.366 -0.2624 -0.4204  0.1041
  112OSM    H8F11650   1.558   2.820   9.352  0.2092 -0.0474 -0.0854
  112OSM    H8G11651   1.571   2.643   9.386 -1.8866  1.1340  2.9595
  112OSM    C9F11652   1.716   2.714   9.245 -0.1907 -0.4805 -0.3258
  112OSM    H9F11653   1.797   2.640   9.259  2.7150  2.3430 -1.4516
  112OSM   C10F11654   1.719   2.780   9.122 -0.2819  0.0880 -0.1543
  112OSM   H10F11655   1.799   2.752   9.052 -0.0224 -1.5374  0.7676
  112OSM   C11F11656   1.629   2.886   9.074  0.1567 -0.1986  0.2102
  112OSM   H11F11657   1.671   2.986   9.096  1.0017 -0.6296  0.6074
  112OSM   H11G11658   1.533   2.896   9.129 -0.3999  0.6668 -0.8992
  112OSM   C12F11659   1.593   2.882   8.930  0.3078  0.1986 -0.1769
  112OSM   H12F11660   1.511   2.954   8.914 -0.3496 -0.3192  0.8027
  112OSM   H12G11661   1.545   2.783   8.914 -0.6232  0.6367 -0.1121
  112OSM   C13F11662   1.716   2.922   8.846 -0.1269 -0.0418  0.2469
  112OSM   H13F11663   1.783   2.833   8.840  1.3630  0.9808  1.4030
  112OSM   H13G11664   1.775   3.002   8.896 -1.9116  1.4264  0.0110
  112OSM   C14F11665   1.683   2.957   8.705  0.1211 -0.5594  0.5771
  112OSM   H14F11666   1.632   3.056   8.709 -0.5225 -0.8784  0.4516
  112OSM   H14G11667   1.627   2.870   8.664  1.9831 -1.7033  0.4160
  112OSM   C15F11668   1.801   2.980   8.615 -0.0836  1.1252 -0.1015
  112OSM   H15F11669   1.768   3.007   8.513 -0.7074 -0.2977 -0.2913
  112OSM   H15G11670   1.861   2.890   8.592  0.5446  0.8785  2.3332
  112OSM   C16F11671   1.895   3.097   8.652  0.5835  0.0719  0.5756
  112OSM   H16F11672   1.941   3.100   8.753  3.2492 -0.6415 -0.5726
  112OSM   H16G11673   1.828   3.185   8.648 -0.8987 -1.0506  0.0451
  112OSM   C17F11674   2.003   3.116   8.541 -0.1874 -0.1792  0.8671
  112OSM   H17F11675   2.019   3.226   8.550  1.8211 -0.5010  1.3502
  112OSM   H17G11676   1.974   3.095   8.436  0.3984  3.1589 -0.0185
  112OSM   C18F11677   2.124   3.030   8.572  0.5134 -0.0285  0.8408
  112OSM   H18F11678   2.160   3.038   8.676 -0.3511 -0.8268  1.2043
  112OSM   H18G11679   2.204   3.062   8.501 -0.2079 -0.5226 -0.2034
  112OSM   H18H11680   2.099   2.923   8.558  2.4389 -0.5410  1.1470
  113OSM      N11681   1.865   1.868  10.881 -0.4873  0.2099 -0.1322
  113OSM    C1511682   1.949   1.913  10.994  0.0723 -0.3198  0.5020
  113OSM   H15A11683   1.911   1.998  11.050 -0.1963  0.1090 -0.3265
  113OSM   H15B11684   2.043   1.948  10.954 -1.6745  3.6030 -0.5019
  113OSM   H15C11685   1.966   1.837  11.069 -0.6505 -0.9086  0.0694
  113OSM    C1411686   1.736   1.834  10.946 -0.1822 -0.3242  0.2644
  113OSM   H14A11687   1.672   1.786  10.874 -0.7603  0.2190  0.4144
  113OSM   H14B11688   1.696   1.926  10.985 -2.3188 -1.7731  1.6118
  113OSM   H14C11689   1.754   1.765  11.027  0.3740  2.2717  2.4274
  113OSM    C1311690   1.853   1.989  10.796 -0.3142  0.0857  0.7152
  113OSM   H13A11691   1.816   2.073  10.853 -1.8762  0.0556 -0.2136
  113OSM   H13B11692   1.792   1.975  10.708  1.2169 -3.2940  0.1588
  113OSM   H13C11693   1.951   2.022  10.767 -0.5881  2.4724  2.3510
  113OSM    C1211694   1.912   1.744  10.806 -0.1712  0.0841 -0.0824
  113OSM   H12A11695   1.834   1.728  10.733  1.8096  1.0793 -2.5218
  113OSM   H12B11696   1.921   1.666  10.880 -1.1759 -2.7933 -2.8911
  113OSM    C1111697   2.052   1.752  10.743 -0.1989 -0.0031 -0.3254
  113OSM   H11A11698   2.043   1.842  10.677  0.9361 -0.6450 -1.3828
  113OSM   H11B11699   2.067   1.661  10.681  1.5440 -0.5878  0.9113
  113OSM      P11700   2.291   1.816  10.832 -0.2346  0.0046 -0.0131
  113OSM    O1311701   2.281   1.960  10.870 -0.1089 -0.5512 -0.1918
  113OSM    O1411702   2.393   1.730  10.895  0.0175  0.3375 -0.1045
  113OSM    O1111703   2.319   1.807  10.678 -0.2869 -0.1579  0.1678
  113OSM    O1211704   2.152   1.755  10.849  0.7586 -0.0200 -0.3630
  113OSM    C1S11705   2.384   1.694  10.619 -0.2993  0.6008  0.1443
  113OSM    H1S11706   2.332   1.603  10.658 -0.1984  1.5422  2.5688
  113OSM    H1T11707   2.492   1.700  10.640 -0.9978 -0.8426  4.7281
  113OSM     NF11708   2.462   1.581  10.412  0.4625 -0.0297  0.1878
  113OSM    HNF11709   2.545   1.613  10.369 -0.5387  1.4066 -0.7433
  113OSM    C2S11710   2.367   1.681  10.464 -0.1706 -0.0769 -0.2276
  113OSM    H2S11711   2.263   1.648  10.441 -0.1571 -0.9280  0.9192
  113OSM    C3S11712   2.372   1.816  10.393  0.0510 -0.2810 -0.1618
  113OSM    H3S11713   2.473   1.862  10.398  0.2111 -0.7481  1.4022
  113OSM     O311714   2.287   1.921  10.442  0.5399  0.8293 -0.1863
  113OSM    HO311715   2.284   1.902  10.536  1.5109  1.5111 -0.0137
  113OSM    C4S11716   2.352   1.792  10.238 -0.3887 -0.1284 -0.6113
  113OSM    H4S11717   2.452   1.785  10.193  0.5576  0.1333  1.3858
  113OSM    C5S11718   2.242   1.797  10.167 -0.0610 -0.1476 -0.2720
  113OSM    H5S11719   2.147   1.833  10.208  1.1112  1.3007  1.2278
  113OSM    C6S11720   2.237   1.791  10.018 -0.3123 -0.3201  0.5966
  113OSM    H6S11721   2.233   1.894   9.978  1.4485 -0.5034 -0.0916
  113OSM    H6T11722   2.141   1.741   9.993  0.2935 -0.7945 -0.8678
  113OSM    C7S11723   2.346   1.709   9.950 -0.1814 -0.4425 -0.2074
  113OSM    H7S11724   2.342   1.607   9.995  0.2420 -0.0753  0.6769
  113OSM    H7T11725   2.444   1.753   9.978 -0.7944  2.0107 -1.7911
  113OSM    C8S11726   2.343   1.703   9.792 -0.1212  0.1412  0.3440
  113OSM    H8S11727   2.445   1.711   9.749 -0.4171  0.2653 -0.3427
  113OSM    H8T11728   2.276   1.781   9.749 -1.4409 -0.9767  0.3253
  113OSM    C9S11729   2.296   1.566   9.763  0.4970  0.1679  0.4745
  113OSM    H9S11730   2.190   1.563   9.796  0.5726  1.7989  0.9144
  113OSM    H9T11731   2.354   1.492   9.822  0.7428 -0.9707 -1.1740
  113OSM   C10S11732   2.308   1.518   9.614 -0.4142 -0.1164  0.4480
  113OSM   H10S11733   2.288   1.409   9.616  2.5839 -0.6892  1.0782
  113OSM   H10T11734   2.410   1.523   9.571  1.1489 -1.9274  3.7168
  113OSM   C11S11735   2.210   1.596   9.520  0.5831 -0.6214 -0.3767
  113OSM   H11S11736   2.233   1.703   9.541  0.8593 -1.0997  1.9175
  113OSM   H11T11737   2.103   1.568   9.535 -0.4352  0.9878 -4.1071
  113OSM   C12S11738   2.232   1.575   9.369 -0.2844  0.0171  0.9936
  113OSM   H12S11739   2.135   1.599   9.319  0.3714 -1.1707 -0.8978
  113OSM   H12T11740   2.252   1.468   9.349  1.3405  0.1409  1.8492
  113OSM   C13S11741   2.348   1.661   9.316  0.7742  0.3222 -0.3222
  113OSM   H13S11742   2.435   1.608   9.361 -1.0363 -1.1662  1.5040
  113OSM   H13T11743   2.345   1.763   9.362  2.1819  0.1733  0.1384
  113OSM   C14S11744   2.369   1.645   9.162  0.1155  0.4118 -0.0201
  113OSM   H14S11745   2.287   1.700   9.111 -1.0643  3.5608  4.8116
  113OSM   H14T11746   2.353   1.539   9.132 -0.2501  0.5203 -0.2144
  113OSM   C15S11747   2.508   1.693   9.121  0.5322  0.4872 -0.0142
  113OSM   H15S11748   2.579   1.660   9.200  0.2689 -1.2448 -0.4618
  113OSM   H15T11749   2.510   1.803   9.106  2.4134  0.3703 -0.7291
  113OSM   C16S11750   2.549   1.601   9.000  0.2539 -0.6149 -0.0065
  113OSM   H16S11751   2.563   1.500   9.045 -2.6998 -0.4851  1.2950
  113OSM   H16T11752   2.649   1.637   8.966  0.4475 -1.4622 -0.3489
  113OSM   C17S11753   2.468   1.610   8.879  0.4691 -0.4807 -0.2918
  113OSM   H17S11754   2.470   1.715   8.844  0.3943 -1.4706 -3.3541
  113OSM   H17T11755   2.364   1.586   8.910 -0.4941  1.6194 -1.8122
  113OSM   C18S11756   2.512   1.514   8.774 -0.5528 -0.4468 -0.2705
  113OSM   H18S11757   2.518   1.413   8.819  0.3773 -1.3515 -2.4245
  113OSM   H18T11758   2.613   1.533   8.734 -0.1627  1.2202  1.4164
  113OSM   H18U11759   2.435   1.509   8.694  1.7053  2.2117 -2.7178
  113OSM    C1F11760   2.436   1.452  10.440  0.4951 -0.2553 -0.4704
  113OSM     OF11761   2.329   1.424  10.489 -0.2747  0.3482  0.5701
  113OSM    C2F11762   2.531   1.337  10.404 -0.5344 -0.1372  0.7475
  113OSM    H2F11763   2.561   1.279  10.493 -0.7535 -1.7641 -0.2292
  113OSM    H2G11764   2.624   1.380  10.359  0.0060 -1.1181  0.9323
  113OSM    C3F11765   2.458   1.243  10.308 -0.6932  0.3695  0.8811
  113OSM    H3F11766   2.376   1.181  10.352 -0.1172 -0.5051  0.7274
  113OSM    H3G11767   2.527   1.157  10.294 -0.1939  0.5563  2.1619
  113OSM    C4F11768   2.422   1.317  10.179 -0.4566  0.5974 -0.1745
  113OSM    H4F11769   2.509   1.371  10.135  1.4560 -3.1185 -1.1327
  113OSM    H4G11770   2.348   1.399  10.196 -0.3934  0.9876 -1.6929
  113OSM    C5F11771   2.385   1.225  10.064  0.2346  0.5760  0.0845
  113OSM    H5F11772   2.338   1.284   9.982 -0.5138  0.0218  0.1145
  113OSM    H5G11773   2.316   1.144  10.096  0.5455  1.0033  1.8568
  113OSM    C6F11774   2.509   1.151  10.015 -0.5141 -0.3751  0.4940
  113OSM    H6F11775   2.576   1.118  10.097  1.7149  0.4590 -0.9460
  113OSM    H6G11776   2.561   1.228   9.955  0.1286 -1.6079 -0.5595
  113OSM    C7F11777   2.467   1.039   9.921  0.2911 -0.2714  0.0007
  113OSM    H7F11778   2.389   0.986   9.980 -0.6280  2.9570  1.8292
  113OSM    H7G11779   2.545   0.960   9.927 -0.0632 -0.5093  1.9524
  113OSM    C8F11780   2.426   1.097   9.786  0.2056  0.4039  0.3157
  113OSM    H8F11781   2.520   1.141   9.747  0.0358 -0.3423 -0.9628
  113OSM    H8G11782   2.354   1.178   9.811  0.8505  0.8713  0.6521
  113OSM    C9F11783   2.356   0.984   9.704  0.0082 -0.1680  0.3590
  113OSM    H9F11784   2.305   0.905   9.761  1.6119 -1.4304  0.0969
  113OSM   C10F11785   2.377   0.981   9.574 -0.3871 -0.3066  0.3350
  113OSM   H10F11786   2.337   0.891   9.524  0.6553 -0.7351  0.2434
  113OSM   C11F11787   2.454   1.078   9.484 -0.3895 -0.3684  0.0472
  113OSM   H11F11788   2.555   1.038   9.462 -0.0456  1.3828 -1.6607
  113OSM   H11G11789   2.466   1.174   9.539  0.6379 -0.8318  0.6591
  113OSM   C12F11790   2.358   1.125   9.370 -0.0737 -0.2620 -0.3674
  113OSM   H12F11791   2.267   1.167   9.416  0.3223  0.0605  0.1200
  113OSM   H12G11792   2.327   1.042   9.303  3.0940  1.5052 -4.3109
  113OSM   C13F11793   2.419   1.241   9.284 -0.4068 -0.0770  0.1244
  113OSM   H13F11794   2.429   1.335   9.341 -0.5051  0.4345 -0.6992
  113OSM   H13G11795   2.342   1.270   9.208  1.3013  2.6769 -0.6154
  113OSM   C14F11796   2.549   1.203   9.203 -0.7338 -0.1179 -0.4987
  113OSM   H14F11797   2.649   1.201   9.253 -1.8891 -0.2107  1.8866
  113OSM   H14G11798   2.553   1.287   9.129 -0.5152 -1.6154 -2.2099
  113OSM   C15F11799   2.536   1.079   9.117 -0.1981  0.3315 -0.0630
  113OSM   H15F11800   2.433   1.088   9.078 -0.6341 -1.0002  0.7785
  113OSM   H15G11801   2.546   0.989   9.181 -0.6681 -0.0443 -0.5129
  113OSM   C16F11802   2.639   1.063   9.006  0.0883 -0.0671  0.2688
  113OSM   H16F11803   2.635   0.961   8.963  3.1705  0.7355 -2.0754
  113OSM   H16G11804   2.744   1.070   9.041  0.1933  1.0101 -0.2221
  113OSM   C17F11805   2.615   1.165   8.894 -0.0016 -0.6366 -0.3607
  113OSM   H17F11806   2.612   1.261   8.950 -4.6586  0.4585 -2.2259
  113OSM   H17G11807   2.513   1.153   8.850 -0.1032 -3.1196  0.4694
  113OSM   C18F11808   2.713   1.165   8.778 -0.3003 -0.8320  0.2742
  113OSM   H18F11809   2.817   1.173   8.816 -0.3319  0.0966  0.1666
  113OSM   H18G11810   2.692   1.255   8.717 -1.0483 -0.5072  0.9955
  113OSM   H18H11811   2.709   1.076   8.712 -0.6055 -1.4398  1.0945
  114OSM      N11812   3.912   0.922  11.582 -0.2261 -0.8936  0.0306
  114OSM    C1511813   4.015   1.032  11.570 -0.0892  0.4852  0.0018
  114OSM   H15A11814   4.057   1.050  11.472 -1.4156  0.6030 -0.5524
  114OSM   H15B11815   4.098   1.013  11.636 -0.9084  2.3474  1.6505
  114OSM   H15C11816   3.966   1.123  11.602 -1.9890 -0.5375  0.0919
  114OSM    C1411817   3.974   0.801  11.519 -0.3190  0.2069  0.3878
  114OSM   H14A11818   4.053   0.750  11.571 -1.7124 -2.0074  0.3791
  114OSM   H14B11819   4.033   0.821  11.431 -1.7906  0.4030 -0.5630
  114OSM   H14C11820   3.896   0.730  11.496  1.9333 -2.7527  1.5554
  114OSM    C1311821   3.885   0.894  11.730  0.7056  0.3236  0.6184
  114OSM   H13A11822   3.835   0.799  11.743 -0.3009  0.6431 -0.7832
  114OSM   H13B11823   3.827   0.976  11.770 -1.7474 -1.2458  0.3663
  114OSM   H13C11824   3.984   0.887  11.773 -0.0777 -1.1322  2.2145
  114OSM    C1211825   3.782   0.958  11.522 -0.1080  0.5464  0.3058
  114OSM   H12A11826   3.775   1.066  11.514 -2.3956  0.3879 -0.1841
  114OSM   H12B11827   3.697   0.923  11.577  1.0817  0.4477  2.1200
  114OSM    C1111828   3.757   0.912  11.379 -0.0292  0.4417  0.1479
  114OSM   H11A11829   3.853   0.938  11.330  0.3752 -0.3426  0.5270
  114OSM   H11B11830   3.672   0.965  11.330  0.4299  1.9214  0.9361
  114OSM      P11831   3.607   0.703  11.430  0.1551  0.0471 -0.0051
  114OSM    O1311832   3.630   0.576  11.492 -0.4117  0.0657 -0.1229
  114OSM    O1411833   3.531   0.796  11.511  0.5173  0.3978  0.2573
  114OSM    O1111834   3.517   0.673  11.293 -0.0326 -0.2685 -0.0987
  114OSM    O1211835   3.739   0.764  11.373 -0.1385 -0.3052 -0.1817
  114OSM    C1S11836   3.586   0.694  11.161  0.4209 -0.1553 -0.0170
  114OSM    H1S11837   3.674   0.627  11.155 -0.4344 -1.1828 -1.3543
  114OSM    H1T11838   3.616   0.797  11.132 -1.5668  0.5231  0.2679
  114OSM     NF11839   3.548   0.660  10.919  0.2309  0.0812 -0.6135
  114OSM    HNF11840   3.544   0.750  10.876  1.2669 -0.1858 -1.2845
  114OSM    C2S11841   3.489   0.642  11.048 -0.6105  0.2644  0.3975
  114OSM    H2S11842   3.481   0.534  11.072 -0.5740 -0.5141 -2.8593
  114OSM    C3S11843   3.352   0.711  11.061 -0.3968  0.7015  0.2598
  114OSM    H3S11844   3.351   0.820  11.038  0.2375  0.7972  0.6852
  114OSM     O311845   3.290   0.709  11.186  0.4112 -0.5817  0.2721
  114OSM    HO311846   3.354   0.663  11.242  0.5534 -0.0776  0.5286
  114OSM    C4S11847   3.256   0.653  10.960  0.7619 -0.1259 -0.2964
  114OSM    H4S11848   3.251   0.544  10.972 -2.3160  0.0899  0.9198
  114OSM    C5S11849   3.180   0.707  10.861  0.5176  0.0233  0.6024
  114OSM    H5S11850   3.188   0.815  10.844 -2.7529  0.0189 -1.5075
  114OSM    C6S11851   3.088   0.634  10.769 -0.9364  0.0810  0.0297
  114OSM    H6S11852   2.983   0.633  10.806 -0.3067  0.6808  1.9099
  114OSM    H6T11853   3.129   0.533  10.744  1.1302  0.5587  1.4037
  114OSM    C7S11854   3.082   0.708  10.635  0.3654 -0.5763  0.0188
  114OSM    H7S11855   3.049   0.813  10.652  0.9990 -0.5539  1.1926
  114OSM    H7T11856   3.002   0.658  10.577 -0.4772 -0.5915  1.1810
  114OSM    C8S11857   3.208   0.704  10.557 -0.3012  1.0162 -0.0873
  114OSM    H8S11858   3.277   0.628  10.601 -1.8512  0.8366  2.1197
  114OSM    H8T11859   3.259   0.803  10.559  1.0717  0.3126  2.1228
  114OSM    C9S11860   3.181   0.657  10.412  0.1344  0.3837  0.7146
  114OSM    H9S11861   3.119   0.565  10.418  1.9236 -0.8991  0.1359
  114OSM    H9T11862   3.278   0.627  10.366 -0.0861 -0.9665  1.0968
  114OSM   C10S11863   3.110   0.767  10.325  0.1491  0.4087  0.4097
  114OSM   H10S11864   3.171   0.860  10.329 -1.0606  1.2276 -0.0548
  114OSM   H10T11865   3.009   0.783  10.367 -0.8948 -0.6196 -1.6879
  114OSM   C11S11866   3.102   0.734  10.173 -0.0996  0.4280 -0.1910
  114OSM   H11S11867   3.204   0.702  10.140  0.1870  0.3609  0.7571
  114OSM   H11T11868   3.079   0.831  10.125  0.0142 -0.2413 -1.6230
  114OSM   C12S11869   2.982   0.641  10.134 -0.0175 -0.0782 -0.1559
  114OSM   H12S11870   2.885   0.676  10.174 -0.5987  1.3483 -2.6750
  114OSM   H12T11871   3.007   0.548  10.189 -0.0620  0.1284  0.2141
  114OSM   C13S11872   2.972   0.627   9.983 -0.2026  0.0635 -1.1523
  114OSM   H13S11873   2.943   0.726   9.941 -1.3481  0.4563  0.5265
  114OSM   H13T11874   2.885   0.560   9.969 -1.7669  1.8625 -0.2575
  114OSM   C14S11875   3.103   0.580   9.916 -0.2273  0.0838 -0.7200
  114OSM   H14S11876   3.178   0.547   9.991  0.0322 -1.5780 -1.6936
  114OSM   H14T11877   3.154   0.670   9.875 -0.0522 -0.1239 -0.9615
  114OSM   C15S11878   3.077   0.461   9.822  0.3042  0.1189 -1.1799
  114OSM   H15S11879   2.982   0.411   9.852 -0.6231  0.9590 -2.6132
  114OSM   H15T11880   3.163   0.393   9.837 -1.3811 -1.5741  1.0119
  114OSM   C16S11881   3.050   0.506   9.681  0.0643  0.2805  0.0369
  114OSM   H16S11882   3.146   0.534   9.632  0.0039  1.0606  0.3576
  114OSM   H16T11883   2.977   0.589   9.679 -0.4294 -0.1625 -0.4026
  114OSM   C17S11884   2.992   0.384   9.609 -0.2342  0.0647  0.2047
  114OSM   H17S11885   2.897   0.368   9.664  1.4932 -0.0901  3.2909
  114OSM   H17T11886   3.056   0.298   9.639  0.1421  0.2273 -0.1231
  114OSM   C18S11887   2.972   0.405   9.459 -0.2084  0.1499 -0.0169
  114OSM   H18S11888   3.065   0.402   9.399  1.7030 -2.7053  2.8733
  114OSM   H18T11889   2.921   0.503   9.446  0.4147  0.4583 -0.1433
  114OSM   H18U11890   2.911   0.319   9.423  0.9346 -0.4704 -0.5053
  114OSM    C1F11891   3.643   0.580  10.871  1.4048  0.2263 -0.5357
  114OSM     OF11892   3.651   0.472  10.923 -0.1659  0.3807  0.0793
  114OSM    C2F11893   3.737   0.627  10.764  0.0858  0.1346 -0.1606
  114OSM    H2F11894   3.836   0.637  10.812  0.0640  2.6241 -0.5620
  114OSM    H2G11895   3.705   0.727  10.729 -2.5682 -0.5457  0.2180
  114OSM    C3F11896   3.735   0.524  10.644  0.2609 -1.0046 -0.1927
  114OSM    H3F11897   3.629   0.517  10.612 -0.1723  0.8023  0.7615
  114OSM    H3G11898   3.772   0.427  10.684  0.0054 -1.1308 -0.2679
  114OSM    C4F11899   3.816   0.561  10.526  0.6973 -0.5655  0.2241
  114OSM    H4F11900   3.924   0.571  10.549  0.5424  2.1898 -0.1754
  114OSM    H4G11901   3.785   0.662  10.493  0.4191 -0.6654  0.1767
  114OSM    C5F11902   3.790   0.469  10.406 -0.4917  0.3692  0.0651
  114OSM    H5F11903   3.682   0.454  10.388 -0.5984 -0.3593  1.2335
  114OSM    H5G11904   3.831   0.370  10.434 -0.7448 -0.3334 -1.9718
  114OSM    C6F11905   3.881   0.520  10.287  0.5751 -0.6801 -0.4095
  114OSM    H6F11906   3.985   0.519  10.326  0.0958  1.0881  0.9673
  114OSM    H6G11907   3.842   0.618  10.253 -0.0535 -1.1796 -1.1401
  114OSM    C7F11908   3.874   0.422  10.166  0.3839  0.3326 -0.0889
  114OSM    H7F11909   3.770   0.425  10.126 -0.0892 -4.1759  0.5376
  114OSM    H7G11910   3.903   0.319  10.193  1.0381  0.7177  0.6906
  114OSM    C8F11911   3.986   0.452  10.057  0.2198  0.1423 -0.6631
  114OSM    H8F11912   4.015   0.353  10.016 -2.0871 -0.9149  0.1941
  114OSM    H8G11913   4.073   0.494  10.113 -0.0674  1.0401 -0.8877
  114OSM    C9F11914   3.951   0.553   9.946  0.3885 -0.2835 -0.1046
  114OSM    H9F11915   3.951   0.658   9.976 -0.5164 -0.3262  0.0414
  114OSM   C10F11916   3.902   0.522   9.829  0.6952 -0.2194 -0.3001
  114OSM   H10F11917   3.891   0.598   9.751  1.4319 -1.4182 -1.6006
  114OSM   C11F11918   3.878   0.388   9.765 -0.0969 -0.1424 -0.0317
  114OSM   H11F11919   3.770   0.382   9.743 -0.6345  5.1279  0.4396
  114OSM   H11G11920   3.915   0.309   9.834  0.3115 -0.4564 -0.6017
  114OSM   C12F11921   3.953   0.358   9.629  0.1957 -0.2874  0.3194
  114OSM   H12F11922   3.912   0.257   9.606 -1.0656 -0.0590  1.5349
  114OSM   H12G11923   4.060   0.351   9.659  1.1258  1.4963 -2.4291
  114OSM   C13F11924   3.935   0.472   9.528 -0.2884 -0.5067 -0.2347
  114OSM   H13F11925   3.960   0.568   9.577 -3.6306 -0.3503  1.2490
  114OSM   H13G11926   3.829   0.498   9.511 -0.6225 -1.2849  0.5922
  114OSM   C14F11927   4.007   0.455   9.396 -0.1799  0.7302 -0.4160
  114OSM   H14F11928   4.114   0.445   9.421  0.1547  0.7788 -1.8005
  114OSM   H14G11929   3.988   0.541   9.328 -2.2857  0.0792 -0.6951
  114OSM   C15F11930   3.971   0.318   9.324  0.8626 -0.5466  0.5595
  114OSM   H15F11931   3.995   0.236   9.394 -0.2517 -2.5108 -1.3267
  114OSM   H15G11932   4.050   0.304   9.248  1.4954  1.1419  0.8743
  114OSM   C16F11933   3.829   0.317   9.265 -0.2310  0.5404  0.0345
  114OSM   H16F11934   3.825   0.387   9.179 -0.7871 -1.8949 -2.0134
  114OSM   H16G11935   3.761   0.351   9.345 -1.1157  0.0862 -0.5185
  114OSM   C17F11936   3.785   0.178   9.222 -0.6465  0.3006  0.1808
  114OSM   H17F11937   3.685   0.199   9.177 -1.3753  0.4209  1.8142
  114OSM   H17G11938   3.779   0.107   9.306 -0.3469 -2.2643 -1.8964
  114OSM   C18F11939   3.891   0.117   9.128 -0.2778 -0.2110 -0.0614
  114OSM   H18F11940   3.842   0.035   9.071  0.7590 -0.8254 -0.0626
  114OSM   H18G11941   3.972   0.070   9.188 -0.8350 -1.1855 -0.0569
  114OSM   H18H11942   3.934   0.186   9.053  0.7467  1.8482  2.3189
  115OSM      N11943   5.349   3.723   6.026  0.3159  0.0347 -0.4082
  115OSM    C1511944   5.206   3.678   6.017 -0.2074 -0.3105 -0.0826
  115OSM   H15A11945   5.162   3.700   6.113 -1.7723  0.2369 -0.8996
  115OSM   H15B11946   5.212   3.572   5.995  1.0566 -0.1787 -0.3885
  115OSM   H15C11947   5.175   3.738   5.932  0.7616 -1.6606 -1.4105
  115OSM    C1411948   5.408   3.636   6.139 -0.3863  0.1426 -0.0006
  115OSM   H14A11949   5.358   3.643   6.235  1.0107  0.0624  0.7509
  115OSM   H14B11950   5.502   3.665   6.183 -0.9181  1.8941  0.0406
  115OSM   H14C11951   5.441   3.538   6.109  0.9152  0.7293 -0.5387
  115OSM    C1311952   5.422   3.716   5.909  0.0190 -0.1159  0.5591
  115OSM   H13A11953   5.460   3.616   5.900  0.9035  0.1276  1.5114
  115OSM   H13B11954   5.505   3.784   5.907  0.0722 -0.1649  1.1579
  115OSM   H13C11955   5.365   3.742   5.821 -0.3028 -0.1043  0.7707
  115OSM    C1211956   5.352   3.866   6.074 -0.6743  0.2317  0.1810
  115OSM   H12A11957   5.323   3.937   5.997  1.5299 -0.3776 -1.2396
  115OSM   H12B11958   5.456   3.878   6.100 -0.3671  2.4263 -1.8665
  115OSM    C1111959   5.267   3.901   6.196 -0.5689 -0.0811 -0.2013
  115OSM   H11A11960   5.299   4.004   6.225  2.0258 -0.6360 -0.9760
  115OSM   H11B11961   5.292   3.837   6.282 -1.8230 -0.1093  0.1575
  115OSM      P11962   5.028   3.988   6.222 -0.2044 -0.0471 -0.0277
  115OSM    O1311963   5.068   4.118   6.167  0.1756  0.3306  0.2231
  115OSM    O1411964   4.887   3.945   6.201 -0.0814 -0.1642  0.9081
  115OSM    O1111965   5.052   3.994   6.374  0.2590 -0.1077 -0.0582
  115OSM    O1211966   5.129   3.885   6.167  0.1552 -0.2245  0.8001
  115OSM    C1S11967   5.047   3.865   6.439 -1.0913  0.8979  0.4608
  115OSM    H1S11968   5.127   3.795   6.407 -1.2973  1.7723 -2.1105
  115OSM    H1T11969   4.945   3.824   6.426 -0.3629 -0.0533 -2.8196
  115OSM     NF11970   5.113   3.778   6.659 -0.5718  0.3664  0.4096
  115OSM    HNF11971   5.059   3.737   6.732  2.4579 -1.4842  1.7135
  115OSM    C2S11972   5.067   3.895   6.589 -0.4155 -1.0653 -0.5310
  115OSM    H2S11973   5.150   3.967   6.608 -0.9689 -0.3599 -0.7800
  115OSM    C3S11974   4.941   3.965   6.646  0.1654 -0.3672  0.1316
  115OSM    H3S11975   4.861   3.890   6.627 -0.0780  0.4284 -2.0470
  115OSM     O311976   4.900   4.080   6.574  0.7563 -0.0661  0.7701
  115OSM    HO311977   4.953   4.079   6.495  0.6886 -0.2361  0.7259
  115OSM    C4S11978   4.963   4.008   6.794  0.5284 -0.1993 -0.0137
  115OSM    H4S11979   5.054   4.062   6.822 -1.0711  1.9609  1.1776
  115OSM    C5S11980   4.870   3.964   6.887 -0.0177  0.8010  0.2327
  115OSM    H5S11981   4.777   3.919   6.850 -1.1017  1.8873  1.5722
  115OSM    C6S11982   4.887   3.974   7.037 -1.5105  0.2080 -0.6549
  115OSM    H6S11983   4.787   3.984   7.084 -1.1392  1.9118 -0.1926
  115OSM    H6T11984   4.942   4.067   7.061  0.9589 -1.7959  1.7994
  115OSM    C7S11985   4.951   3.851   7.099  0.2452  0.2003  0.3421
  115OSM    H7S11986   5.057   3.847   7.065 -0.1083 -2.2828 -0.5585
  115OSM    H7T11987   4.894   3.759   7.073  1.4573 -0.6411  0.5864
  115OSM    C8S11988   4.960   3.866   7.249 -0.7356 -0.0246 -1.2422
  115OSM    H8S11989   4.859   3.894   7.287  0.0642 -0.6269  1.4229
  115OSM    H8T11990   5.016   3.961   7.264  0.6039 -0.6631 -2.1406
  115OSM    C9S11991   5.018   3.746   7.333  0.3582  0.2888  0.0735
  115OSM    H9S11992   5.087   3.685   7.270  1.8203  1.9231  0.0674
  115OSM    H9T11993   4.931   3.678   7.344 -0.7202  1.2636 -2.0244
  115OSM   C10S11994   5.088   3.801   7.458  0.1070 -0.4600  0.2419
  115OSM   H10S11995   5.154   3.887   7.435  1.0879 -1.1901  0.3160
  115OSM   H10T11996   5.149   3.713   7.486  0.3852 -0.4530 -0.3624
  115OSM   C11S11997   4.999   3.835   7.575  0.0230  0.6639 -0.5229
  115OSM   H11S11998   4.946   3.742   7.605  1.0409  0.2221 -0.0789
  115OSM   H11T11999   4.933   3.920   7.546  0.7183  0.9853 -1.1859
  115OSM   C12S12000   5.090   3.875   7.691  0.0779  0.1351  0.3345
  115OSM   H12S12001   5.166   3.956   7.678 -1.4503  1.4446 -0.5357
  115OSM   H12T12002   5.150   3.785   7.718  2.2167  0.7113 -2.2832
  115OSM   C13S12003   5.001   3.919   7.814  0.2890 -0.5096 -0.1261
  115OSM   H13S12004   4.946   3.829   7.849 -0.7250 -0.0032 -0.4195
  115OSM   H13T12005   4.921   3.991   7.787  1.1959 -0.4500 -2.8464
  115OSM   C14S12006   5.078   3.981   7.922  0.1376 -0.3174 -0.7031
  115OSM   H14S12007   5.119   4.077   7.884 -3.0265  1.5598  0.5412
  115OSM   H14T12008   5.154   3.902   7.943 -1.5147 -1.5058  0.9409
  115OSM   C15S12009   5.016   4.011   8.056  0.5023  0.0771 -0.2644
  115OSM   H15S12010   4.974   3.917   8.098  0.2831 -0.3128 -1.3547
  115OSM   H15T12011   4.929   4.074   8.030 -0.3825 -0.9668  0.1240
  115OSM   C16S12012   5.107   4.093   8.142 -0.4023  0.0920  0.7994
  115OSM   H16S12013   5.061   4.158   8.219 -1.8233  1.6838 -1.3279
  115OSM   H16T12014   5.161   4.175   8.089 -2.8733  0.0926 -1.8213
  115OSM   C17S12015   5.219   4.015   8.210  0.4060  0.4522 -0.9550
  115OSM   H17S12016   5.267   3.932   8.154  3.9206  1.8452 -0.1385
  115OSM   H17T12017   5.167   3.972   8.298  1.9607 -1.5790 -0.9872
  115OSM   C18S12018   5.334   4.108   8.265 -0.3448 -0.2892 -0.3745
  115OSM   H18S12019   5.291   4.172   8.345  0.3025 -1.6170  1.0512
  115OSM   H18T12020   5.384   4.166   8.184 -0.1150  0.9506  0.6535
  115OSM   H18U12021   5.397   4.036   8.321  0.9487  0.0282 -1.3894
  115OSM    C1F12022   5.228   3.714   6.623  0.2072 -0.6742 -0.5784
  115OSM     OF12023   5.322   3.776   6.579 -0.6461  0.0107  0.4406
  115OSM    C2F12024   5.239   3.571   6.668 -0.4580  0.2942 -0.0984
  115OSM    H2F12025   5.134   3.536   6.654 -0.6933  0.5324  0.9734
  115OSM    H2G12026   5.261   3.557   6.777  0.2337  1.8038 -0.0398
  115OSM    C3F12027   5.339   3.493   6.589  0.1154  0.2063 -0.1308
  115OSM    H3F12028   5.439   3.541   6.589 -0.7612  2.1198 -1.5558
  115OSM    H3G12029   5.303   3.494   6.484 -2.7606  0.5537  0.7963
  115OSM    C4F12030   5.342   3.349   6.625  0.0207 -0.1899 -0.5273
  115OSM    H4F12031   5.408   3.293   6.555  2.2011  0.3843  1.0222
  115OSM    H4G12032   5.243   3.299   6.621 -0.3921  0.1154  3.4363
  115OSM    C5F12033   5.434   3.333   6.749 -0.0278  0.2867 -0.2241
  115OSM    H5F12034   5.390   3.405   6.822  1.9018  0.5387  0.7290
  115OSM    H5G12035   5.540   3.350   6.722  0.3100 -2.0288 -0.4189
  115OSM    C6F12036   5.406   3.186   6.790 -0.5187  0.0918 -0.1111
  115OSM    H6F12037   5.467   3.116   6.729 -0.1358 -0.6011  1.0518
  115OSM    H6G12038   5.299   3.157   6.799 -0.2147 -1.8531 -2.2755
  115OSM    C7F12039   5.457   3.157   6.936 -0.3143 -0.1551  0.1102
  115OSM    H7F12040   5.402   3.216   7.012  0.7277  0.9076  0.0597
  115OSM    H7G12041   5.566   3.179   6.944 -0.1621 -1.7534  3.0036
  115OSM    C8F12042   5.431   3.013   6.983  0.2624  0.6934  0.4816
  115OSM    H8F12043   5.491   2.988   7.073 -1.1030 -1.5883  0.8011
  115OSM    H8G12044   5.473   2.941   6.908 -0.7689 -0.1458  0.6980
  115OSM    C9F12045   5.283   2.976   6.990  0.2466  0.1544  0.6090
  115OSM    H9F12046   5.225   2.950   6.900 -0.4967 -2.2241  1.7328
  115OSM   C10F12047   5.215   2.973   7.108  0.4349 -0.4031 -0.2794
  115OSM   H10F12048   5.112   2.934   7.110 -0.3959  1.6129 -1.2571
  115OSM   C11F12049   5.271   2.990   7.248 -0.0747 -0.6434 -0.2602
  115OSM   H11F12050   5.375   3.029   7.252 -1.1745  2.4329  0.3459
  115OSM   H11G12051   5.269   2.887   7.290  2.9196  0.2307  2.1694
  115OSM   C12F12052   5.189   3.072   7.346 -0.3135 -0.1068 -0.3761
  115OSM   H12F12053   5.079   3.055   7.337 -0.2106 -0.6479 -0.6017
  115OSM   H12G12054   5.201   3.179   7.320 -1.9149  0.2001  0.0531
  115OSM   C13F12055   5.212   3.032   7.488 -0.2530  0.3502 -0.1896
  115OSM   H13F12056   5.320   3.021   7.512 -0.6700 -3.6954  0.2498
  115OSM   H13G12057   5.190   2.923   7.501 -2.2414  1.0004  2.2860
  115OSM   C14F12058   5.139   3.108   7.601  0.8060 -0.4885 -0.0126
  115OSM   H14F12059   5.035   3.070   7.610 -0.1888  2.4931  1.9246
  115OSM   H14G12060   5.129   3.213   7.565  3.7850 -0.7951 -1.9242
  115OSM   C15F12061   5.213   3.113   7.730  0.2742  0.2437  0.1734
  115OSM   H15F12062   5.183   3.180   7.814 -1.0896  0.5302 -0.5276
  115OSM   H15G12063   5.311   3.158   7.705  0.7535 -1.4137 -1.0332
  115OSM   C16F12064   5.245   2.974   7.787  0.2337 -1.0319  0.2067
  115OSM   H16F12065   5.297   2.920   7.704  0.0938  1.0288 -1.2746
  115OSM   H16G12066   5.154   2.924   7.825  0.9763 -0.9046  2.1862
  115OSM   C17F12067   5.346   2.986   7.901  0.1890 -0.3249 -0.2668
  115OSM   H17F12068   5.430   3.051   7.869  0.8410 -0.2371  1.6000
  115OSM   H17G12069   5.376   2.881   7.916 -1.9784 -1.0470 -0.8068
  115OSM   C18F12070   5.300   3.040   8.039  0.0370  0.7130 -0.2856
  115OSM   H18F12071   5.377   3.099   8.092 -0.1660  0.9185 -0.2190
  115OSM   H18G12072   5.249   2.964   8.104  0.9665  0.1188 -0.2414
  115OSM   H18H12073   5.213   3.108   8.024 -0.9129 -0.6102 -0.9405
  116OSM      N12074   3.878   1.324   6.347  0.9184 -0.4223 -0.5476
  116OSM    C1512075   3.895   1.190   6.398  0.1281  0.1363 -0.2519
  116OSM   H15A12076   3.851   1.179   6.496  1.9046 -0.0057  0.5507
  116OSM   H15B12077   3.997   1.157   6.410 -0.1900 -1.4034 -1.5687
  116OSM   H15C12078   3.853   1.118   6.329 -1.5061  1.4690 -0.6908
  116OSM    C1412079   3.765   1.397   6.409  0.3612  0.1736  0.0496
  116OSM   H14A12080   3.671   1.355   6.377 -1.3095  2.2833  2.0312
  116OSM   H14B12081   3.774   1.501   6.381  1.2412  0.0512 -0.1325
  116OSM   H14C12082   3.777   1.390   6.516 -0.6977 -1.2648  0.0921
  116OSM    C1312083   4.013   1.388   6.378 -0.3472  0.3339 -0.1371
  116OSM   H13A12084   4.093   1.325   6.341  1.0158  2.3166 -0.6111
  116OSM   H13B12085   4.030   1.385   6.484 -0.4906  1.6193 -0.0715
  116OSM   H13C12086   4.022   1.488   6.340 -0.3476  1.1218  1.9064
  116OSM    C1212087   3.860   1.323   6.194 -0.1485 -1.2819  0.5988
  116OSM   H12A12088   3.949   1.271   6.164  0.0624 -0.1356 -0.8152
  116OSM   H12B12089   3.873   1.426   6.162 -0.0728 -1.1414  1.0797
  116OSM    C1112090   3.722   1.270   6.137 -0.2008 -0.4967 -0.1601
  116OSM   H11A12091   3.728   1.261   6.026 -2.8922  0.6522 -0.4293
  116OSM   H11B12092   3.647   1.348   6.162  1.3570  1.2291 -0.7634
  116OSM      P12093   3.544   1.115   6.247  0.1424 -0.2842 -0.0453
  116OSM    O1312094   3.452   1.182   6.155  0.2761  0.3573  0.2952
  116OSM    O1412095   3.534   0.968   6.276  0.2389  0.1440 -0.2353
  116OSM    O1112096   3.544   1.204   6.377  0.3723  0.2148  0.4334
  116OSM    O1212097   3.689   1.146   6.206  0.4751 -0.3417  0.3825
  116OSM    C1S12098   3.558   1.127   6.498  0.4008 -0.2306 -0.8969
  116OSM    H1S12099   3.648   1.061   6.490 -1.1863 -2.5899  0.3231
  116OSM    H1T12100   3.475   1.055   6.515 -1.1042  1.6539 -0.2357
  116OSM     NF12101   3.596   1.138   6.735  0.3876 -0.2840 -0.1608
  116OSM    HNF12102   3.515   1.086   6.763 -1.4310  1.5082 -1.9331
  116OSM    C2S12103   3.571   1.217   6.624 -0.6404 -0.6196  0.3169
  116OSM    H2S12104   3.661   1.281   6.607 -1.2272 -0.1543 -1.0868
  116OSM    C3S12105   3.447   1.308   6.631  0.3789 -0.3539 -0.5627
  116OSM    H3S12106   3.353   1.250   6.642  0.6688 -0.4128  1.9978
  116OSM     O312107   3.421   1.389   6.513 -0.0576  0.1580  0.0331
  116OSM    HO312108   3.480   1.356   6.445 -0.8442  0.5893 -0.8627
  116OSM    C4S12109   3.478   1.404   6.747  0.7514 -0.3900  0.6576
  116OSM    H4S12110   3.586   1.418   6.759  0.4330  1.9149  1.1110
  116OSM    C5S12111   3.385   1.459   6.830 -0.0581  0.1366 -0.2343
  116OSM    H5S12112   3.281   1.429   6.810  0.3489 -2.1437  0.9049
  116OSM    C6S12113   3.417   1.546   6.948 -0.0741 -0.2893  0.2481
  116OSM    H6S12114   3.389   1.649   6.918  0.0539 -0.7641 -1.5821
  116OSM    H6T12115   3.527   1.542   6.968  0.5051 -0.7874 -2.7243
  116OSM    C7S12116   3.346   1.492   7.073  0.8609  0.1598  0.5681
  116OSM    H7S12117   3.357   1.382   7.088  1.1298 -0.0955 -1.3612
  116OSM    H7T12118   3.238   1.516   7.064  1.3898  2.2560 -0.3908
  116OSM    C8S12119   3.404   1.548   7.204 -0.2446 -0.0896  0.3503
  116OSM    H8S12120   3.381   1.656   7.217  1.5861  0.2214  1.1160
  116OSM    H8T12121   3.514   1.543   7.215 -0.4213 -1.9307  1.4923
  116OSM    C9S12122   3.360   1.473   7.331  0.4973  0.1782  0.2222
  116OSM    H9S12123   3.409   1.374   7.322  0.0605 -0.0131 -0.0994
  116OSM    H9T12124   3.256   1.435   7.323  0.2954  0.9931 -1.2819
  116OSM   C10S12125   3.378   1.549   7.461  0.1219  0.3145  0.1983
  116OSM   H10S12126   3.335   1.652   7.453  0.8460  0.3555 -4.5639
  116OSM   H10T12127   3.485   1.575   7.476 -0.6218  2.0495  2.8391
  116OSM   C11S12128   3.340   1.474   7.587  0.2140  0.0901 -0.5590
  116OSM   H11S12129   3.419   1.398   7.604 -0.2246 -0.2990 -0.2479
  116OSM   H11T12130   3.244   1.419   7.573  1.5057 -1.9475 -1.6679
  116OSM   C12S12131   3.326   1.558   7.717 -0.2254  0.6917  0.2639
  116OSM   H12S12132   3.253   1.641   7.711 -1.5766 -0.4314  0.7657
  116OSM   H12T12133   3.416   1.623   7.717  1.2831 -1.3184 -2.2099
  116OSM   C13S12134   3.322   1.480   7.848 -0.2019  0.0264 -0.4657
  116OSM   H13S12135   3.362   1.533   7.937 -1.7589 -1.1729  0.9887
  116OSM   H13T12136   3.388   1.390   7.849  1.0250  0.8956 -1.9857
  116OSM   C14S12137   3.180   1.445   7.892 -0.3813 -0.3885  0.1080
  116OSM   H14S12138   3.166   1.392   7.989  1.8707  0.7301  1.0830
  116OSM   H14T12139   3.126   1.384   7.816 -0.8736  2.2752 -1.7465
  116OSM   C15S12140   3.083   1.566   7.900 -0.2960  0.0693 -0.0550
  116OSM   H15S12141   3.064   1.632   7.813  2.0161 -0.3215 -0.9135
  116OSM   H15T12142   3.133   1.633   7.972 -4.3324  0.2449  2.6829
  116OSM   C16S12143   2.945   1.523   7.958 -0.1613  0.1589 -0.6268
  116OSM   H16S12144   2.886   1.614   7.980 -0.4020 -0.1155 -0.1254
  116OSM   H16T12145   2.960   1.456   8.046  1.4183  0.6291 -0.5298
  116OSM   C17S12146   2.861   1.436   7.863 -0.0124  0.1890 -0.6045
  116OSM   H17S12147   2.911   1.337   7.856 -2.2437 -1.1919  2.0275
  116OSM   H17T12148   2.868   1.473   7.758 -1.2146  0.2183 -0.6918
  116OSM   C18S12149   2.718   1.424   7.903  0.4082  0.0081  0.2768
  116OSM   H18S12150   2.710   1.376   8.003 -1.8440  1.5209  0.8384
  116OSM   H18T12151   2.652   1.370   7.832  1.4625 -1.4113  0.3286
  116OSM   H18U12152   2.680   1.527   7.918  4.2013  1.4748  0.5385
  116OSM    C1F12153   3.707   1.077   6.749  0.0085 -0.1372 -0.4417
  116OSM     OF12154   3.803   1.124   6.686 -0.1188 -0.1618 -0.3907
  116OSM    C2F12155   3.709   0.946   6.832 -0.3497 -0.3870  0.1564
  116OSM    H2F12156   3.749   0.858   6.777  0.3930  0.8372 -1.2881
  116OSM    H2G12157   3.606   0.925   6.868 -0.5605  2.5805  1.4553
  116OSM    C3F12158   3.792   0.964   6.956  0.7749 -0.1448 -0.5593
  116OSM    H3F12159   3.787   0.874   7.021 -0.6243 -0.3736 -0.9797
  116OSM    H3G12160   3.750   1.038   7.028  2.1775  1.4732 -1.3782
  116OSM    C4F12161   3.939   0.988   6.929 -0.3223 -0.4195 -0.1666
  116OSM    H4F12162   3.957   1.098   6.924 -1.3408 -0.3036 -1.6940
  116OSM    H4G12163   3.962   0.945   6.829 -4.1392 -0.5428 -1.0443
  116OSM    C5F12164   4.030   0.928   7.037  0.2943 -0.0766  0.1876
  116OSM    H5F12165   4.135   0.950   7.008  0.0080  1.0593 -0.0279
  116OSM    H5G12166   4.017   0.818   7.039 -1.3244  0.0741 -1.2688
  116OSM    C6F12167   4.017   0.980   7.179  0.5402  0.2713 -0.6772
  116OSM    H6F12168   3.913   0.969   7.219  1.2510  2.1219  1.7806
  116OSM    H6G12169   4.047   1.086   7.170  1.4616  0.1591  0.9534
  116OSM    C7F12170   4.117   0.909   7.275 -0.3371  0.3872 -0.2578
  116OSM    H7F12171   4.210   0.901   7.214 -0.1616  0.1803  0.0389
  116OSM    H7G12172   4.091   0.803   7.292  3.5723 -0.3649  1.4291
  116OSM    C8F12173   4.134   0.987   7.405  0.6386 -0.1437 -0.0823
  116OSM    H8F12174   4.040   1.003   7.462  0.0105 -0.1115 -1.1083
  116OSM    H8G12175   4.155   1.091   7.372 -0.0917 -0.5580 -1.9629
  116OSM    C9F12176   4.243   0.930   7.492  0.2830  0.4406  0.4303
  116OSM    H9F12177   4.311   0.855   7.449 -0.7918  0.1606 -0.8080
  116OSM   C10F12178   4.269   0.971   7.613 -0.6824 -0.4935  0.4679
  116OSM   H10F12179   4.337   0.911   7.675 -0.4161  1.8891  2.5532
  116OSM   C11F12180   4.206   1.081   7.691 -0.0341 -0.3441  0.0557
  116OSM   H11F12181   4.128   1.131   7.630 -1.3731 -2.2096  0.2142
  116OSM   H11G12182   4.276   1.166   7.711 -0.2554 -0.2313  0.3402
  116OSM   C12F12183   4.163   1.031   7.830  0.9055  0.1596 -0.0175
  116OSM   H12F12184   4.257   0.998   7.879 -1.1532  0.3416  4.3353
  116OSM   H12G12185   4.093   0.945   7.823 -0.2966  0.8597  2.4834
  116OSM   C13F12186   4.086   1.143   7.906  0.3851  0.2142  0.4163
  116OSM   H13F12187   4.021   1.190   7.828  2.2761 -0.3091 -1.5398
  116OSM   H13G12188   4.145   1.231   7.939  1.3653 -0.7984  1.4022
  116OSM   C14F12189   4.015   1.092   8.031  0.1031 -0.5824 -0.4699
  116OSM   H14F12190   4.098   1.045   8.088 -1.3233 -0.1830  2.0126
  116OSM   H14G12191   3.947   1.007   8.007 -0.4878 -0.1678 -0.2754
  116OSM   C15F12192   3.961   1.196   8.130  0.0970  0.4854 -0.5510
  116OSM   H15F12193   3.891   1.144   8.198 -1.0717  2.3066 -0.3150
  116OSM   H15G12194   3.911   1.280   8.076 -1.1035 -1.3290 -2.3338
  116OSM   C16F12195   4.061   1.258   8.224 -0.7693 -0.2537  0.4459
  116OSM   H16F12196   4.145   1.307   8.170  0.4260 -0.9949  1.6094
  116OSM   H16G12197   4.105   1.185   8.295 -2.4220 -0.2542  1.4938
  116OSM   C17F12198   3.997   1.372   8.305  0.4526 -0.3534 -0.2779
  116OSM   H17F12199   3.916   1.325   8.365 -1.6199  1.9883 -1.1820
  116OSM   H17G12200   3.956   1.448   8.236 -0.8937 -0.7472  0.0869
  116OSM   C18F12201   4.107   1.430   8.388 -0.4950  0.3196 -0.2372
  116OSM   H18F12202   4.192   1.463   8.325 -1.7553  1.8791 -1.1631
  116OSM   H18G12203   4.144   1.357   8.463 -3.2783 -3.0028 -1.9154
  116OSM   H18H12204   4.079   1.521   8.444  2.2807  0.4014  1.1000
  117OSM      N12205   2.509   2.873   5.963 -0.0500 -0.5056 -0.2798
  117OSM    C1512206   2.561   2.768   5.871 -0.0164 -0.5408  0.0473
  117OSM   H15A12207   2.525   2.777   5.770 -0.9232  1.3424  0.5231
  117OSM   H15B12208   2.529   2.669   5.901 -1.5926 -1.0385 -3.0464
  117OSM   H15C12209   2.668   2.757   5.867  0.2495  1.6740  0.6200
  117OSM    C1412210   2.567   3.006   5.913 -0.3576 -0.2863  0.3339
  117OSM   H14A12211   2.540   3.034   5.812 -0.9657  1.2148  0.8973
  117OSM   H14B12212   2.674   3.006   5.921 -0.3720 -0.0969  0.5207
  117OSM   H14C12213   2.538   3.092   5.972 -1.4288  0.6322 -1.4632
  117OSM    C1312214   2.366   2.884   5.937 -1.0168 -0.2621 -0.0314
  117OSM   H13A12215   2.342   2.880   5.832  0.3047  3.3147 -0.5618
  117OSM   H13B12216   2.334   2.979   5.977  2.2155  0.5105  0.8824
  117OSM   H13C12217   2.310   2.810   5.992 -0.0654 -1.0518 -0.1117
  117OSM    C1212218   2.544   2.841   6.102 -0.7018 -0.1985  0.4154
  117OSM   H12A12219   2.651   2.827   6.110 -0.4745  1.5471  0.5170
  117OSM   H12B12220   2.492   2.748   6.120 -4.2516  1.4864 -0.6611
  117OSM    C1112221   2.499   2.940   6.211 -0.1667  0.0506 -1.2125
  117OSM   H11A12222   2.503   2.887   6.308  1.1960  1.0826 -0.6910
  117OSM   H11B12223   2.394   2.970   6.191  0.5334  2.5346 -1.2621
  117OSM      P12224   2.525   3.188   6.295 -0.0105 -0.1192 -0.3989
  117OSM    O1312225   2.638   3.283   6.289  0.5417  0.3557  0.3645
  117OSM    O1412226   2.396   3.233   6.236  0.4245 -1.0823 -0.2675
  117OSM    O1112227   2.492   3.151   6.443  0.6051  0.2813  0.0759
  117OSM    O1212228   2.578   3.061   6.218 -0.3396  0.0555  0.0324
  117OSM    C1S12229   2.579   3.106   6.541  1.0301  1.1525  0.4141
  117OSM    H1S12230   2.686   3.109   6.512  0.7847 -0.2167 -0.6954
  117OSM    H1T12231   2.551   3.001   6.565  1.3845  0.7444 -0.9186
  117OSM     NF12232   2.638   3.107   6.780  0.9266 -0.5644  0.0362
  117OSM    HNF12233   2.576   3.053   6.836  1.7677 -0.4262  1.1175
  117OSM    C2S12234   2.574   3.188   6.676  0.2541  0.5422  0.1014
  117OSM    H2S12235   2.624   3.285   6.659  1.4492 -0.5145 -2.8285
  117OSM    C3S12236   2.426   3.231   6.717  0.4218 -0.1917 -0.5269
  117OSM    H3S12237   2.366   3.140   6.740 -0.7891  0.0021 -2.7583
  117OSM     O312238   2.354   3.294   6.610  0.1594 -0.3507 -0.4702
  117OSM    HO312239   2.421   3.282   6.542  0.5935  3.5275 -0.8215
  117OSM    C4S12240   2.422   3.314   6.834  0.0605 -0.0616  0.2398
  117OSM    H4S12241   2.488   3.400   6.814 -0.0889 -0.6407 -2.9680
  117OSM    C5S12242   2.357   3.299   6.952 -0.0677 -0.2912 -0.4242
  117OSM    H5S12243   2.295   3.209   6.961  1.3994 -1.4511 -1.6534
  117OSM    C6S12244   2.372   3.396   7.063  0.1700 -0.2772  0.1463
  117OSM    H6S12245   2.280   3.455   7.081 -1.3571 -1.2646 -3.8120
  117OSM    H6T12246   2.439   3.478   7.027 -0.4835 -0.0953 -0.6663
  117OSM    C7S12247   2.435   3.336   7.189 -0.6623 -0.5015 -0.1145
  117OSM    H7S12248   2.533   3.290   7.161  0.3789  1.3493  0.3851
  117OSM    H7T12249   2.355   3.265   7.216 -0.2698 -0.5001  1.0667
  117OSM    C8S12250   2.458   3.443   7.303  0.3621  0.3354  0.3300
  117OSM    H8S12251   2.373   3.514   7.298 -1.2306 -1.5641 -0.0644
  117OSM    H8T12252   2.554   3.495   7.281 -0.2055  0.4502 -2.0150
  117OSM    C9S12253   2.452   3.389   7.440 -0.0722  0.1416  0.7308
  117OSM    H9S12254   2.524   3.304   7.450  0.9170  0.9542  0.6612
  117OSM    H9T12255   2.348   3.352   7.445 -1.3952  3.3219 -1.6549
  117OSM   C10S12256   2.488   3.496   7.547  0.1184 -0.1354 -0.2092
  117OSM   H10S12257   2.427   3.587   7.533 -0.2161 -0.2220  0.6177
  117OSM   H10T12258   2.593   3.520   7.522  0.2967 -1.1777 -0.4731
  117OSM   C11S12259   2.469   3.440   7.691  0.0565  0.0001 -0.5229
  117OSM   H11S12260   2.541   3.356   7.701 -1.3432 -1.4211 -2.0376
  117OSM   H11T12261   2.374   3.383   7.701  0.3883 -0.6675 -1.1231
  117OSM   C12S12262   2.486   3.548   7.800 -0.1623 -0.9099  0.0502
  117OSM   H12S12263   2.439   3.646   7.776  1.6645  0.2198  1.0013
  117OSM   H12T12264   2.594   3.565   7.783 -0.2952  0.3725  0.4513
  117OSM   C13S12265   2.433   3.514   7.936 -0.2153  0.2305 -0.3236
  117OSM   H13S12266   2.325   3.490   7.929 -0.5582  1.4734  0.5467
  117OSM   H13T12267   2.456   3.602   8.000  1.0905 -0.6411  0.4371
  117OSM   C14S12268   2.494   3.388   8.003 -0.3747 -0.5871  0.1476
  117OSM   H14S12269   2.604   3.380   7.996 -0.3712  0.3527 -1.2208
  117OSM   H14T12270   2.454   3.302   7.947  0.3602  0.5190 -2.1269
  117OSM   C15S12271   2.436   3.382   8.152 -0.1167  0.3190 -0.2200
  117OSM   H15S12272   2.326   3.400   8.143 -0.2976 -1.3289 -1.4217
  117OSM   H15T12273   2.483   3.463   8.211  2.4762 -1.8012  0.6889
  117OSM   C16S12274   2.472   3.252   8.224  0.3991 -0.1606 -0.5598
  117OSM   H16S12275   2.578   3.249   8.256  0.2011  0.1219  0.1273
  117OSM   H16T12276   2.454   3.179   8.142  0.1912 -0.1852 -0.4934
  117OSM   C17S12277   2.384   3.217   8.340 -0.0373 -0.6603 -0.2398
  117OSM   H17S12278   2.416   3.125   8.394 -2.0694  0.2917  2.7260
  117OSM   H17T12279   2.289   3.187   8.292 -0.4404  0.5186 -0.1999
  117OSM   C18S12280   2.371   3.324   8.442  0.4223 -0.2355 -0.0295
  117OSM   H18S12281   2.469   3.353   8.487  0.7627 -1.4211 -0.0058
  117OSM   H18T12282   2.289   3.292   8.510  0.0933 -0.9286 -0.7458
  117OSM   H18U12283   2.331   3.418   8.399  0.7637 -0.8152 -1.6170
  117OSM    C1F12284   2.768   3.087   6.783 -0.3035 -0.4705  0.3043
  117OSM     OF12285   2.836   3.151   6.700  0.1434 -0.4387 -0.6628
  117OSM    C2F12286   2.831   2.985   6.879  0.2793  0.6845  0.2377
  117OSM    H2F12287   2.835   2.891   6.821  0.3078 -0.3143  1.8135
  117OSM    H2G12288   2.758   2.975   6.962  1.1638 -0.1115  0.9330
  117OSM    C3F12289   2.960   3.036   6.942 -0.1492 -0.7817 -0.0489
  117OSM    H3F12290   3.037   3.045   6.863  2.1078 -2.3361  1.8953
  117OSM    H3G12291   3.003   2.965   7.016  0.0176 -0.5728  0.0533
  117OSM    C4F12292   2.968   3.171   7.013  1.0301 -0.2868 -0.6525
  117OSM    H4F12293   2.966   3.258   6.944  0.0246  0.0188 -0.2455
  117OSM    H4G12294   3.069   3.179   7.059 -0.3114  2.1235  2.0002
  117OSM    C5F12295   2.882   3.192   7.133 -0.4224 -0.5644  0.4880
  117OSM    H5F12296   2.869   3.089   7.171  2.6053 -1.0703  0.2863
  117OSM    H5G12297   2.783   3.225   7.095  0.0952  0.8085  0.3009
  117OSM    C6F12298   2.929   3.280   7.257  0.5368 -0.1151 -0.3859
  117OSM    H6F12299   2.967   3.381   7.231  2.0613 -0.6800 -0.4084
  117OSM    H6G12300   2.989   3.201   7.307  0.1329 -2.4376 -3.4690
  117OSM    C7F12301   2.810   3.294   7.360 -0.0505 -0.0646 -0.7766
  117OSM    H7F12302   2.762   3.194   7.354 -0.0858 -0.1397  0.5630
  117OSM    H7G12303   2.737   3.366   7.317 -0.8425 -0.3341  0.1042
  117OSM    C8F12304   2.857   3.342   7.501  0.4717  0.0458  0.2435
  117OSM    H8F12305   2.947   3.280   7.523  0.8903  0.6892  0.3484
  117OSM    H8G12306   2.770   3.315   7.565 -3.2485  4.0380 -2.8521
  117OSM    C9F12307   2.877   3.486   7.522 -0.3965 -0.4590  0.3197
  117OSM    H9F12308   2.868   3.544   7.429 -1.5958  0.1300  0.7895
  117OSM   C10F12309   2.926   3.543   7.637  0.4249  0.5121  0.7797
  117OSM   H10F12310   2.941   3.652   7.635 -0.0562  0.5720 -1.2617
  117OSM   C11F12311   2.971   3.469   7.759 -0.2519  0.4620  0.4404
  117OSM   H11F12312   3.081   3.461   7.750 -0.4372  0.8422 -2.5962
  117OSM   H11G12313   2.924   3.368   7.760 -0.2925  0.4817  0.6675
  117OSM   C12F12314   2.931   3.541   7.891  0.1773 -0.6905  0.0677
  117OSM   H12F12315   2.824   3.570   7.881  0.3882 -0.4739 -1.7506
  117OSM   H12G12316   2.978   3.642   7.897  0.3154 -0.6417 -1.5555
  117OSM   C13F12317   2.968   3.457   8.015 -0.3789  0.2503 -0.2069
  117OSM   H13F12318   3.075   3.466   8.042 -0.5715 -0.5409  0.8571
  117OSM   H13G12319   2.942   3.349   8.010  2.0333 -0.3187 -1.1748
  117OSM   C14F12320   2.891   3.506   8.141 -0.1346  0.3917  0.0860
  117OSM   H14F12321   2.782   3.518   8.127  0.1493  4.4484  0.5755
  117OSM   H14G12322   2.923   3.611   8.162  0.8870  0.0947  0.0496
  117OSM   C15F12323   2.898   3.412   8.261 -0.5120 -0.4248  0.0464
  117OSM   H15F12324   2.998   3.415   8.309  0.6274 -0.5865 -2.2297
  117OSM   H15G12325   2.887   3.309   8.221 -1.1505  0.3822 -1.9463
  117OSM   C16F12326   2.792   3.452   8.365 -0.1687 -0.9831  0.3782
  117OSM   H16F12327   2.698   3.402   8.334 -1.9279  1.5420  1.4297
  117OSM   H16G12328   2.781   3.563   8.366  2.1102 -0.6970 -1.1914
  117OSM   C17F12329   2.830   3.420   8.503 -0.0760 -0.1280 -0.4138
  117OSM   H17F12330   2.875   3.318   8.497  0.0786 -0.0854  0.0159
  117OSM   H17G12331   2.916   3.485   8.530 -0.5065  1.0598 -1.8094
  117OSM   C18F12332   2.728   3.431   8.617  0.4765 -0.4996  0.3487
  117OSM   H18F12333   2.673   3.528   8.615  1.2818 -0.0124  1.2787
  117OSM   H18G12334   2.762   3.406   8.720  0.3393 -1.0649  0.2563
  117OSM   H18H12335   2.654   3.350   8.599  1.2404 -1.6197  2.1793
  118OSM      N12336   5.631   5.204   6.109  0.1545 -0.3432  0.9685
  118OSM    C1512337   5.626   5.057   6.072 -0.6433  0.7626  0.1856
  118OSM   H15A12338   5.537   5.017   6.118 -1.8149  1.1834 -1.6663
  118OSM   H15B12339   5.712   4.996   6.092 -0.1094  0.3208 -3.1474
  118OSM   H15C12340   5.614   5.045   5.965 -0.7395 -0.1643  0.2999
  118OSM    C1412341   5.744   5.270   6.046 -0.2869  0.4981 -0.8559
  118OSM   H14A12342   5.820   5.196   6.066 -2.8709 -1.9857  0.3371
  118OSM   H14B12343   5.773   5.358   6.102  0.8735 -1.3930  1.6480
  118OSM   H14C12344   5.728   5.291   5.942 -0.2094 -1.3154 -1.2544
  118OSM    C1312345   5.518   5.278   6.053  0.3480  0.7242 -0.1047
  118OSM   H13A12346   5.494   5.365   6.112 -0.7597  0.4375 -0.1241
  118OSM   H13B12347   5.436   5.210   6.040  1.0672 -0.0977 -0.4098
  118OSM   H13C12348   5.547   5.302   5.951  1.9774 -2.8542 -0.5748
  118OSM    C1212349   5.633   5.212   6.268 -0.5987 -0.4746 -0.1937
  118OSM   H12A12350   5.604   5.310   6.303  2.1693  0.9831 -1.8333
  118OSM   H12B12351   5.737   5.192   6.287 -0.9188 -0.1721  2.0729
  118OSM    C1112352   5.549   5.106   6.351 -0.6736 -0.0447  0.0342
  118OSM   H11A12353   5.567   5.134   6.457  1.3470 -0.9476 -0.0570
  118OSM   H11B12354   5.586   5.003   6.330  0.5114  0.7988 -2.1498
  118OSM      P12355   5.314   5.207   6.357  0.2901 -0.8499 -0.3461
  118OSM    O1312356   5.366   5.342   6.331 -0.2522 -0.6776 -0.7439
  118OSM    O1412357   5.181   5.178   6.298 -0.1706  0.3134  0.1999
  118OSM    O1112358   5.304   5.184   6.510  0.0595  0.3376 -0.2489
  118OSM    O1212359   5.412   5.101   6.309  0.4365  0.9775  0.2392
  118OSM    C1S12360   5.297   5.058   6.574 -0.1502  0.5749  0.2562
  118OSM    H1S12361   5.400   5.023   6.595 -0.5534 -0.8023 -0.0593
  118OSM    H1T12362   5.236   4.985   6.517  0.4362  0.2279  0.0780
  118OSM     NF12363   5.250   4.936   6.798 -0.2241  0.3190 -0.4657
  118OSM    HNF12364   5.163   4.891   6.821  1.0590 -1.2937  1.3997
  118OSM    C2S12365   5.235   5.067   6.725  0.1289 -0.7835 -0.0305
  118OSM    H2S12366   5.286   5.145   6.786 -3.9332  0.3051  2.1591
  118OSM    C3S12367   5.091   5.126   6.729  0.3311  0.0888  0.5379
  118OSM    H3S12368   5.025   5.059   6.670  0.0753  2.7693 -2.3322
  118OSM     O312369   5.101   5.256   6.672  0.3445 -0.4106  0.1590
  118OSM    HO312370   5.184   5.248   6.626 -0.5503 -1.7360 -1.2762
  118OSM    C4S12371   5.027   5.133   6.866  0.3713  0.0293 -0.5666
  118OSM    H4S12372   4.951   5.059   6.893  0.4076  0.9144  2.1529
  118OSM    C5S12373   5.056   5.217   6.968 -0.1339  0.5718  0.4245
  118OSM    H5S12374   5.128   5.297   6.945  0.5954 -1.0077 -3.0732
  118OSM    C6S12375   5.005   5.219   7.110 -0.2619 -0.1643  0.0967
  118OSM    H6S12376   4.902   5.176   7.108 -0.3598 -0.0570  2.5143
  118OSM    H6T12377   4.987   5.323   7.143 -1.3008 -0.1645 -0.4665
  118OSM    C7S12378   5.106   5.149   7.205  0.3411  1.1947 -0.2098
  118OSM    H7S12379   5.184   5.225   7.222  0.2415  1.0624  0.8224
  118OSM    H7T12380   5.142   5.057   7.153  1.0059  1.4766 -0.2560
  118OSM    C8S12381   5.052   5.114   7.347  0.2345 -0.5962  0.6819
  118OSM    H8S12382   5.035   5.004   7.350 -0.3313 -0.5568 -0.7056
  118OSM    H8T12383   4.953   5.164   7.354  0.0732 -0.8831  0.4815
  118OSM    C9S12384   5.144   5.174   7.453  0.0349 -0.1593 -0.3786
  118OSM    H9S12385   5.170   5.278   7.424 -1.1517  0.6487  1.4215
  118OSM    H9T12386   5.241   5.120   7.441 -0.0026 -0.9903  2.6604
  118OSM   C10S12387   5.105   5.155   7.606 -0.1241 -0.1860  0.1003
  118OSM   H10S12388   5.014   5.215   7.628 -1.6409 -2.2809 -0.3368
  118OSM   H10T12389   5.189   5.199   7.665 -1.5927  0.7252  1.5812
  118OSM   C11S12390   5.080   5.007   7.655  0.9819  0.3816 -0.9006
  118OSM   H11S12391   5.168   4.942   7.636 -0.1170 -1.6574  0.8060
  118OSM   H11T12392   5.001   4.952   7.601  1.7654 -3.3259  1.5737
  118OSM   C12S12393   5.046   5.001   7.804 -0.1919 -0.7871  0.3950
  118OSM   H12S12394   5.122   5.061   7.858 -0.7693  0.0523  0.2854
  118OSM   H12T12395   5.060   4.896   7.835  1.2076 -0.3224  1.3476
  118OSM   C13S12396   4.890   5.029   7.827  0.4182  0.1905 -0.1734
  118OSM   H13S12397   4.835   4.974   7.748  2.1019 -0.3854 -0.9740
  118OSM   H13T12398   4.886   5.137   7.805 -0.8832  0.4055  1.0232
  118OSM   C14S12399   4.840   4.996   7.970  0.5604  0.2100 -0.1864
  118OSM   H14S12400   4.856   4.889   7.993  1.1298  0.0384 -1.3586
  118OSM   H14T12401   4.729   4.996   7.972  0.5723 -0.6632  0.9788
  118OSM   C15S12402   4.881   5.089   8.080  0.3118  0.6419  0.2129
  118OSM   H15S12403   4.827   5.182   8.050  1.7427  1.5660  0.4469
  118OSM   H15T12404   4.990   5.102   8.093  0.1180  2.9957 -0.2558
  118OSM   C16S12405   4.832   5.044   8.220  0.4539 -0.3041  0.4449
  118OSM   H16S12406   4.899   4.958   8.242 -0.3593 -1.0445  0.0873
  118OSM   H16T12407   4.726   5.012   8.214  0.4459 -0.2016  0.0214
  118OSM   C17S12408   4.844   5.164   8.307 -0.4844  0.0483 -0.1379
  118OSM   H17S12409   4.808   5.253   8.251 -0.6810 -1.6970 -2.8779
  118OSM   H17T12410   4.952   5.184   8.321 -0.6034  0.4796  0.1513
  118OSM   C18S12411   4.777   5.155   8.440 -0.1460  0.0969  0.8286
  118OSM   H18S12412   4.806   5.242   8.504  1.7419 -0.2098  0.4139
  118OSM   H18T12413   4.813   5.059   8.482 -1.6003 -1.3549 -1.1650
  118OSM   H18U12414   4.666   5.160   8.427  0.0614  0.0187 -1.0955
  118OSM    C1F12415   5.360   4.873   6.834 -0.1570  0.0973  0.3140
  118OSM     OF12416   5.461   4.939   6.838 -0.1300  0.2891 -0.0494
  118OSM    C2F12417   5.363   4.722   6.885 -0.6392  0.0939 -0.0636
  118OSM    H2F12418   5.414   4.662   6.807  1.2960  0.8116  0.6286
  118OSM    H2G12419   5.259   4.682   6.882  0.0787 -1.7839 -0.8487
  118OSM    C3F12420   5.416   4.717   7.028  0.5884  0.4064 -0.0950
  118OSM    H3F12421   5.345   4.774   7.092  0.3834 -0.7558  0.7373
  118OSM    H3G12422   5.511   4.776   7.028  1.7777 -1.4032  1.7555
  118OSM    C4F12423   5.433   4.579   7.094 -0.2130  0.0465  1.1635
  118OSM    H4F12424   5.495   4.521   7.023 -0.3266 -0.6026  1.5905
  118OSM    H4G12425   5.337   4.526   7.110  0.5621 -1.1883  1.8059
  118OSM    C5F12426   5.522   4.587   7.223 -1.0635  0.1277 -0.0434
  118OSM    H5F12427   5.620   4.638   7.217 -0.1486 -1.6501 -0.6245
  118OSM    H5G12428   5.558   4.487   7.258 -1.4652  0.1059  0.3174
  118OSM    C6F12429   5.441   4.644   7.344 -0.1951  0.2514  0.0746
  118OSM    H6F12430   5.343   4.595   7.362 -0.3542  0.3556 -0.5197
  118OSM    H6G12431   5.422   4.753   7.336 -0.7542  0.0963 -0.7138
  118OSM    C7F12432   5.504   4.616   7.487  0.4464 -0.5126 -0.0471
  118OSM    H7F12433   5.610   4.648   7.481 -0.3900  2.7881  1.5614
  118OSM    H7G12434   5.499   4.508   7.513  0.2996  0.0794  2.5565
  118OSM    C8F12435   5.439   4.697   7.602  0.2600  0.5015  0.5666
  118OSM    H8F12436   5.333   4.664   7.605  0.4863 -0.4855 -1.4040
  118OSM    H8G12437   5.450   4.804   7.574 -1.2215  0.1760 -1.3896
  118OSM    C9F12438   5.496   4.677   7.742 -0.3224  0.5810  0.3717
  118OSM    H9F12439   5.564   4.590   7.740  0.7573  1.4439 -1.9485
  118OSM   C10F12440   5.486   4.757   7.850  0.1908 -0.0798  0.0265
  118OSM   H10F12441   5.542   4.730   7.942 -1.3449 -2.4019  0.3248
  118OSM   C11F12442   5.405   4.884   7.859  0.1222 -0.3110 -0.8494
  118OSM   H11F12443   5.297   4.859   7.863  0.5820 -2.2266  0.8575
  118OSM   H11G12444   5.432   4.946   7.771  2.7552  0.6739  0.5959
  118OSM   C12F12445   5.453   4.968   7.981 -0.4334 -0.0385  0.2861
  118OSM   H12F12446   5.393   5.061   7.975 -0.0813  0.2064  0.5360
  118OSM   H12G12447   5.563   4.985   7.978 -0.5207  0.4023 -2.1288
  118OSM   C13F12448   5.432   4.907   8.117 -0.7067  0.4348 -0.6270
  118OSM   H13F12449   5.494   4.960   8.193 -0.1097 -1.3999  0.2030
  118OSM   H13G12450   5.476   4.806   8.123 -2.3480 -0.2703  0.0954
  118OSM   C14F12451   5.285   4.898   8.164  0.3443 -0.0274 -0.7344
  118OSM   H14F12452   5.241   4.796   8.170 -2.4119  1.2237  1.1906
  118OSM   H14G12453   5.225   4.961   8.096  0.5673  0.8965 -0.0959
  118OSM   C15F12454   5.267   4.952   8.310 -0.6067  0.0625  0.1615
  118OSM   H15F12455   5.322   4.885   8.379  1.6996 -1.1414 -2.7035
  118OSM   H15G12456   5.161   4.946   8.341 -1.1476 -1.6199 -1.9008
  118OSM   C16F12457   5.315   5.098   8.317 -0.3566  0.1791  0.0995
  118OSM   H16F12458   5.280   5.136   8.218 -1.6682  0.3683  0.6368
  118OSM   H16G12459   5.425   5.100   8.334 -0.7848 -0.0314  3.1150
  118OSM   C17F12460   5.251   5.193   8.421 -0.2737 -0.1684 -0.3137
  118OSM   H17F12461   5.240   5.133   8.514  2.1855 -1.0648 -0.5470
  118OSM   H17G12462   5.147   5.222   8.399  0.0243  0.9634 -0.2684
  118OSM   C18F12463   5.340   5.302   8.473  0.1632 -0.4127  0.2457
  118OSM   H18F12464   5.367   5.381   8.400  1.0544 -1.0779 -0.1613
  118OSM   H18G12465   5.439   5.264   8.506  1.7525 -0.2152 -3.8848
  118OSM   H18H12466   5.310   5.352   8.567  1.1902  0.4905  0.1046
  119OSM      N12467   6.161   4.337   5.663 -0.0856  0.1311  0.2903
  119OSM    C1512468   6.070   4.234   5.717  0.3588 -0.2308  0.7918
  119OSM   H15A12469   5.970   4.272   5.735  0.0585 -0.3345 -0.6039
  119OSM   H15B12470   6.120   4.185   5.799  0.8474  0.2334  0.7764
  119OSM   H15C12471   6.061   4.161   5.638  0.8484 -0.5392  1.0246
  119OSM    C1412472   6.289   4.280   5.611  0.2819  0.6288  0.2343
  119OSM   H14A12473   6.334   4.216   5.684 -0.3563 -0.6295 -0.4470
  119OSM   H14B12474   6.364   4.352   5.582  1.4338 -0.3665  0.7443
  119OSM   H14C12475   6.291   4.214   5.525 -0.0816 -0.3007  0.9415
  119OSM    C1312476   6.101   4.405   5.546 -0.0556 -0.0278  0.0985
  119OSM   H13A12477   6.155   4.494   5.517 -0.4210  0.0079 -0.5034
  119OSM   H13B12478   6.005   4.439   5.582 -0.5672 -0.7066 -0.5953
  119OSM   H13C12479   6.088   4.347   5.455 -0.2609  2.2046 -1.3472
  119OSM    C1212480   6.203   4.439   5.776 -0.5846  0.3191  1.0047
  119OSM   H12A12481   6.116   4.487   5.819 -0.7631  0.2939  0.6661
  119OSM   H12B12482   6.263   4.514   5.728  0.5581 -0.7998  0.6654
  119OSM    C1112483   6.293   4.395   5.893 -0.3623  0.2719 -0.5595
  119OSM   H11A12484   6.257   4.299   5.936 -3.6181  0.9997 -1.5543
  119OSM   H11B12485   6.293   4.471   5.974 -1.0802  0.1781 -0.4727
  119OSM      P12486   6.527   4.503   5.848  0.0699 -0.4339  0.1639
  119OSM    O1312487   6.653   4.468   5.776 -0.7978  0.4424  0.1676
  119OSM    O1412488   6.458   4.617   5.779 -0.1853 -0.0515  0.1927
  119OSM    O1112489   6.553   4.529   5.998  0.3355 -0.0179 -0.0491
  119OSM    O1212490   6.429   4.379   5.849  0.1997  0.4101  0.6993
  119OSM    C1S12491   6.584   4.423   6.083 -0.8320  0.0432 -0.6007
  119OSM    H1S12492   6.688   4.388   6.069 -1.0989 -0.7837 -0.5828
  119OSM    H1T12493   6.510   4.341   6.073 -3.3509  1.9442  1.6564
  119OSM     NF12494   6.622   4.343   6.324  0.5856 -0.4520 -0.1826
  119OSM    HNF12495   6.552   4.282   6.359 -1.1151  1.7520  0.2959
  119OSM    C2S12496   6.561   4.453   6.242  0.6488  0.0380  0.3887
  119OSM    H2S12497   6.622   4.544   6.262 -0.0854  0.3156  1.3978
  119OSM    C3S12498   6.412   4.499   6.285 -0.3669 -0.5483 -0.4609
  119OSM    H3S12499   6.351   4.411   6.256 -0.9830  0.8311 -3.5837
  119OSM     O312500   6.351   4.595   6.192 -0.5891  1.0494  0.2406
  119OSM    HO312501   6.415   4.592   6.120  1.2210  1.7318  1.7951
  119OSM    C4S12502   6.401   4.543   6.421  0.6035 -0.5741 -0.0002
  119OSM    H4S12503   6.482   4.612   6.448  1.1610 -2.0987  2.4268
  119OSM    C5S12504   6.311   4.502   6.513  0.3099 -0.3307 -0.1047
  119OSM    H5S12505   6.237   4.430   6.474 -0.5495 -0.3898  1.5838
  119OSM    C6S12506   6.285   4.547   6.660 -0.0731  0.7792 -1.1591
  119OSM    H6S12507   6.318   4.459   6.719  0.3397  0.7063 -1.4982
  119OSM    H6T12508   6.184   4.568   6.700  0.5430  1.9233 -0.1825
  119OSM    C7S12509   6.377   4.663   6.704  0.1920  0.1308  0.3411
  119OSM    H7S12510   6.354   4.756   6.648  0.5193 -0.4502 -0.7782
  119OSM    H7T12511   6.483   4.637   6.684 -0.3795 -1.3096 -0.8870
  119OSM    C8S12512   6.373   4.706   6.857 -0.2141  0.1035  0.2798
  119OSM    H8S12513   6.275   4.758   6.863 -0.7871 -0.6749 -1.7760
  119OSM    H8T12514   6.457   4.767   6.896 -0.5233  0.0429  1.0402
  119OSM    C9S12515   6.366   4.586   6.953 -0.3170  0.8614  0.4710
  119OSM    H9S12516   6.460   4.528   6.939 -2.5709 -2.7572 -0.1336
  119OSM    H9T12517   6.279   4.525   6.921 -0.1891  1.3543 -0.8881
  119OSM   C10S12518   6.354   4.628   7.098 -0.0381  0.1288 -0.1967
  119OSM   H10S12519   6.270   4.700   7.105 -1.5519 -1.6836  1.0185
  119OSM   H10T12520   6.449   4.682   7.117 -0.0666 -0.6312  2.3506
  119OSM   C11S12521   6.326   4.499   7.185 -0.2382  0.0761  0.1490
  119OSM   H11S12522   6.418   4.437   7.176 -0.6215 -0.2688 -1.6316
  119OSM   H11T12523   6.243   4.438   7.141 -0.1212  1.1949 -1.6552
  119OSM   C12S12524   6.298   4.528   7.332  0.3304  0.4521  0.5918
  119OSM   H12S12525   6.202   4.582   7.342 -1.9118 -2.8529 -2.0855
  119OSM   H12T12526   6.377   4.600   7.365  0.2554  0.8964 -0.1866
  119OSM   C13S12527   6.282   4.410   7.427  0.5175 -0.4050  0.1948
  119OSM   H13S12528   6.381   4.385   7.471  0.5967 -0.2226  0.1222
  119OSM   H13T12529   6.235   4.321   7.380 -0.7368 -0.3005  1.2257
  119OSM   C14S12530   6.204   4.453   7.555  0.2941  0.9903  0.4214
  119OSM   H14S12531   6.101   4.494   7.542  0.8130  1.3352 -2.8354
  119OSM   H14T12532   6.258   4.537   7.602  0.1455  1.0136  0.5536
  119OSM   C15S12533   6.185   4.336   7.656 -0.4169  0.9349 -0.3838
  119OSM   H15S12534   6.287   4.308   7.692 -0.8486  2.1310  1.8562
  119OSM   H15T12535   6.147   4.247   7.602 -0.8835  0.8760  0.0369
  119OSM   C16S12536   6.095   4.381   7.768 -0.0651 -0.5756  0.1491
  119OSM   H16S12537   6.019   4.440   7.713  0.0669 -1.3912 -0.9230
  119OSM   H16T12538   6.150   4.451   7.834  0.2022  0.5587 -1.2533
  119OSM   C17S12539   6.043   4.275   7.864  0.5700  1.0584  0.5230
  119OSM   H17S12540   6.127   4.215   7.905  0.9271  0.9057 -0.4307
  119OSM   H17T12541   5.976   4.210   7.804  2.0727 -0.6680  0.6684
  119OSM   C18S12542   5.966   4.323   7.990  0.2997 -0.0987  0.3893
  119OSM   H18S12543   5.922   4.245   8.055  0.6300  0.2800  1.0749
  119OSM   H18T12544   5.882   4.393   7.971 -0.1330 -0.2673  1.6287
  119OSM   H18U12545   6.032   4.379   8.061 -0.5358  0.0495  1.0524
  119OSM    C1F12546   6.747   4.306   6.343 -0.6599  0.3123 -0.7395
  119OSM     OF12547   6.833   4.378   6.294  0.2266 -0.2051  0.4288
  119OSM    C2F12548   6.776   4.179   6.419  0.0700 -0.3217  0.9641
  119OSM    H2F12549   6.882   4.173   6.452  0.0111  0.0393  1.2198
  119OSM    H2G12550   6.751   4.091   6.356  0.7988  0.7576 -0.8792
  119OSM    C3F12551   6.690   4.180   6.549  0.3158 -0.5532  0.2329
  119OSM    H3F12552   6.709   4.082   6.597  1.1623 -0.0930  0.8675
  119OSM    H3G12553   6.586   4.182   6.509  0.2084 -0.1173  0.5248
  119OSM    C4F12554   6.706   4.300   6.646  0.6304 -0.1867  0.4679
  119OSM    H4F12555   6.681   4.388   6.584  1.4500 -0.4359 -0.2326
  119OSM    H4G12556   6.815   4.315   6.665  0.6052  0.7714 -0.1521
  119OSM    C5F12557   6.620   4.285   6.771 -0.1433  0.4188 -0.4538
  119OSM    H5F12558   6.519   4.258   6.733 -0.9662  2.6567  0.0636
  119OSM    H5G12559   6.608   4.384   6.820  2.3463  0.4089  0.2768
  119OSM    C6F12560   6.672   4.189   6.876  0.8094 -0.9046  0.1383
  119OSM    H6F12561   6.737   4.238   6.952  3.2787 -0.9147 -1.8714
  119OSM    H6G12562   6.746   4.122   6.827  2.7337  0.1971  1.4752
  119OSM    C7F12563   6.557   4.142   6.974 -0.6241  0.2393  0.2738
  119OSM    H7F12564   6.478   4.090   6.915  3.6986 -4.7067 -1.5078
  119OSM    H7G12565   6.508   4.236   7.006 -2.4609 -0.0932 -1.4311
  119OSM    C8F12566   6.601   4.051   7.089  0.8520  0.3191 -0.5245
  119OSM    H8F12567   6.620   3.945   7.062  0.5277  0.3727 -0.9742
  119OSM    H8G12568   6.510   4.059   7.153  1.0378  1.4510 -0.3914
  119OSM    C9F12569   6.726   4.106   7.161  0.6203 -0.7094  0.2915
  119OSM    H9F12570   6.816   4.101   7.098  0.2131 -1.7170 -0.2259
  119OSM   C10F12571   6.736   4.158   7.286  0.0010 -0.0637 -0.7237
  119OSM   H10F12572   6.837   4.195   7.308  0.7862 -2.1277 -0.7121
  119OSM   C11F12573   6.635   4.172   7.400 -0.4358  0.2882  0.4904
  119OSM   H11F12574   6.541   4.121   7.370 -0.2211 -0.4087  0.9954
  119OSM   H11G12575   6.603   4.279   7.404  3.3426  1.5297 -0.2286
  119OSM   C12F12576   6.673   4.131   7.545  0.3131  0.1391 -0.8737
  119OSM   H12F12577   6.704   4.025   7.548  2.1445  0.6184 -2.0564
  119OSM   H12G12578   6.589   4.137   7.617  0.7716 -0.2411 -0.2977
  119OSM   C13F12579   6.800   4.195   7.595 -0.2873 -0.2410  0.0032
  119OSM   H13F12580   6.774   4.303   7.606  3.3078  0.7011  0.0391
  119OSM   H13G12581   6.885   4.182   7.525 -1.1062 -0.6390 -0.9318
  119OSM   C14F12582   6.839   4.139   7.733  0.4072  0.0753  0.3625
  119OSM   H14F12583   6.853   4.029   7.722  0.7785  0.3467 -1.9187
  119OSM   H14G12584   6.754   4.145   7.805  0.4640  2.9677  0.2379
  119OSM   C15F12585   6.962   4.215   7.785 -0.0784 -0.1795 -0.0200
  119OSM   H15F12586   6.969   4.307   7.724  0.2003 -0.6474 -0.6944
  119OSM   H15G12587   7.050   4.153   7.759 -1.1828 -1.0846 -1.7728
  119OSM   C16F12588   6.957   4.237   7.936  0.6146  0.0598 -0.3595
  119OSM   H16F12589   6.919   4.150   7.993  0.9830 -0.3025 -0.6619
  119OSM   H16G12590   6.897   4.328   7.960  2.0922  0.8794  0.3218
  119OSM   C17F12591   7.093   4.254   8.010 -0.2884  0.1553  0.0970
  119OSM   H17F12592   7.171   4.181   7.979 -0.5206 -1.3913  2.9031
  119OSM   H17G12593   7.075   4.246   8.120 -1.9449  0.6090 -0.1339
  119OSM   C18F12594   7.147   4.392   7.988  0.3682 -0.3516 -0.4802
  119OSM   H18F12595   7.156   4.434   7.885 -1.4140  1.2301 -0.0241
  119OSM   H18G12596   7.240   4.413   8.046 -0.0693 -0.5549  0.2889
  119OSM   H18H12597   7.078   4.461   8.042 -0.6870 -1.0492 -0.9261
  120OSM      N12598   4.114   2.124   6.326  0.0139  0.4337  0.8073
  120OSM    C1512599   4.116   2.254   6.247 -0.3815 -0.2468 -0.4349
  120OSM   H15A12600   4.217   2.284   6.223 -0.2366 -0.7244 -0.4260
  120OSM   H15B12601   4.065   2.335   6.295 -2.0561 -0.3213 -2.0364
  120OSM   H15C12602   4.067   2.229   6.154 -1.0598 -1.0146  0.1217
  120OSM    C1412603   4.177   2.012   6.244  0.0961  0.1996 -0.5207
  120OSM   H14A12604   4.158   1.919   6.295  0.3479  1.0207  1.1256
  120OSM   H14B12605   4.281   2.039   6.251  0.0211  0.1087  1.1508
  120OSM   H14C12606   4.148   2.006   6.141  0.0341  0.4871 -0.5214
  120OSM    C1312607   4.188   2.149   6.452  0.5440 -0.0597 -0.4951
  120OSM   H13A12608   4.276   2.089   6.467 -0.4028 -1.2296  0.4409
  120OSM   H13B12609   4.119   2.140   6.534 -0.1722  1.6215 -0.8853
  120OSM   H13C12610   4.242   2.243   6.452  1.8901 -0.8162 -0.3807
  120OSM    C1212611   3.971   2.094   6.362 -0.5328 -0.9565  0.5057
  120OSM   H12A12612   3.933   2.189   6.397  0.6157 -0.7427  1.1585
  120OSM   H12B12613   3.962   2.043   6.456  0.5803  0.3536  1.3342
  120OSM    C1112614   3.867   2.026   6.267 -0.2833 -0.4475  0.4113
  120OSM   H11A12615   3.853   2.092   6.178  0.0655  0.7464  1.2294
  120OSM   H11B12616   3.774   2.028   6.328  1.6813 -0.5460  3.5259
  120OSM      P12617   3.888   1.767   6.318 -0.4842 -0.2740 -0.1064
  120OSM    O1312618   3.765   1.698   6.271  0.1503  0.3981  0.5306
  120OSM    O1412619   4.015   1.691   6.309  0.3894  0.2373 -0.3440
  120OSM    O1112620   3.857   1.813   6.461 -0.3648 -0.1145 -0.4538
  120OSM    O1212621   3.908   1.895   6.229 -0.7474 -0.1235 -0.3271
  120OSM    C1S12622   3.967   1.804   6.559  0.0900  0.4436  0.1235
  120OSM    H1S12623   4.013   1.905   6.564 -0.5885  0.8995 -2.2173
  120OSM    H1T12624   4.052   1.735   6.536  0.3585  0.9275 -0.3643
  120OSM     NF12625   4.053   1.751   6.777  0.1313  0.4134 -0.4357
  120OSM    HNF12626   4.092   1.659   6.777 -0.7249  0.0342 -1.8209
  120OSM    C2S12627   3.929   1.763   6.701  0.3703  0.1034 -0.2468
  120OSM    H2S12628   3.866   1.840   6.750  0.1757  0.4249 -0.9908
  120OSM    C3S12629   3.846   1.636   6.702 -0.0207  0.1500  0.4034
  120OSM    H3S12630   3.891   1.545   6.656  0.2781  0.7545 -0.5201
  120OSM     O312631   3.729   1.653   6.623 -0.0505 -0.6709 -0.0992
  120OSM    HO312632   3.762   1.690   6.540 -0.0300 -1.2717 -0.3674
  120OSM    C4S12633   3.798   1.606   6.845 -0.2015  0.3308  0.2138
  120OSM    H4S12634   3.710   1.658   6.884 -1.8913 -3.0681  1.1085
  120OSM    C5S12635   3.843   1.493   6.915  0.2134  0.4202 -0.5862
  120OSM    H5S12636   3.916   1.422   6.874  1.6643  1.4485  0.2033
  120OSM    C6S12637   3.801   1.461   7.059  0.5021  0.6221  0.4343
  120OSM    H6S12638   3.727   1.537   7.094  0.2841  0.2928  0.7021
  120OSM    H6T12639   3.887   1.462   7.129  0.6859 -2.6976  0.3431
  120OSM    C7S12640   3.730   1.322   7.079 -0.2337 -0.4953 -0.0743
  120OSM    H7S12641   3.797   1.242   7.041  0.7123 -0.1153  0.7627
  120OSM    H7T12642   3.629   1.325   7.033  0.2784 -0.1056 -1.1815
  120OSM    C8S12643   3.703   1.306   7.229  0.2729 -0.1144 -0.2524
  120OSM    H8S12644   3.627   1.227   7.246  1.8159 -1.6310 -0.2252
  120OSM    H8T12645   3.664   1.405   7.260 -1.0740 -0.4780 -0.7891
  120OSM    C9S12646   3.827   1.288   7.312  0.0687  0.4380 -0.5221
  120OSM    H9S12647   3.874   1.388   7.319 -1.2448  0.9314  1.8388
  120OSM    H9T12648   3.909   1.233   7.260  1.5863  0.2445  1.9565
  120OSM   C10S12649   3.806   1.218   7.446 -0.0891 -0.7718  0.0690
  120OSM   H10S12650   3.894   1.229   7.512  0.6830  3.4923 -1.5131
  120OSM   H10T12651   3.787   1.109   7.431  0.1946 -1.2109  2.6314
  120OSM   C11S12652   3.687   1.284   7.519 -0.1575 -0.3832  0.2325
  120OSM   H11S12653   3.598   1.220   7.503  0.1744 -1.2545  1.8066
  120OSM   H11T12654   3.668   1.388   7.484 -0.1379  0.6825  3.2655
  120OSM   C12S12655   3.709   1.308   7.669 -0.3362 -0.5056  0.1961
  120OSM   H12S12656   3.622   1.368   7.703  0.0532  0.8636 -1.2040
  120OSM   H12T12657   3.793   1.378   7.688  1.1448 -2.1883  0.0158
  120OSM   C13S12658   3.708   1.175   7.756  0.5755  0.2531  0.0556
  120OSM   H13S12659   3.808   1.130   7.740  0.9121 -0.1808  3.0804
  120OSM   H13T12660   3.636   1.109   7.703  1.7993  0.9748 -2.6024
  120OSM   C14S12661   3.653   1.193   7.901 -0.3482 -0.4882  0.3484
  120OSM   H14S12662   3.555   1.241   7.882  0.0590  0.4734  0.6341
  120OSM   H14T12663   3.716   1.271   7.948 -2.2183  0.9635  0.5011
  120OSM   C15S12664   3.646   1.058   7.976 -0.6759 -0.0972  0.2114
  120OSM   H15S12665   3.740   0.999   7.965  0.1410  1.1217  0.6783
  120OSM   H15T12666   3.576   0.988   7.925 -0.5741 -0.3635  0.4334
  120OSM   C16S12667   3.609   1.079   8.130 -0.4474  0.8020 -0.8570
  120OSM   H16S12668   3.703   1.115   8.177  0.1632 -2.4304  0.4973
  120OSM   H16T12669   3.585   0.976   8.162  0.5109  1.0253  0.6525
  120OSM   C17S12670   3.493   1.180   8.146  0.1723  0.2002 -0.4706
  120OSM   H17S12671   3.409   1.168   8.074  0.0910  2.4601 -0.7878
  120OSM   H17T12672   3.532   1.283   8.132  1.8375 -0.2096  0.9564
  120OSM   C18S12673   3.423   1.167   8.276 -0.5547 -0.9484  0.5847
  120OSM   H18S12674   3.338   1.238   8.289  0.1105  0.1058 -0.7239
  120OSM   H18T12675   3.498   1.165   8.358  0.9858  0.4402 -0.7707
  120OSM   H18U12676   3.378   1.066   8.289 -5.4882  0.8275 -1.4361
  120OSM    C1F12677   4.131   1.854   6.804  0.4715  0.1615 -0.4182
  120OSM     OF12678   4.093   1.970   6.782 -0.3421 -0.7427 -0.2498
  120OSM    C2F12679   4.272   1.822   6.851 -0.6226 -0.7550  0.1902
  120OSM    H2F12680   4.341   1.871   6.779 -1.5326  0.8626  0.4013
  120OSM    H2G12681   4.298   1.714   6.849 -2.8393 -1.3129 -2.5095
  120OSM    C3F12682   4.310   1.875   6.988 -0.3653  0.0568 -0.0361
  120OSM    H3F12683   4.259   1.820   7.070  1.8084 -0.4292  1.0402
  120OSM    H3G12684   4.263   1.973   7.010 -2.0352 -0.9401  0.9367
  120OSM    C4F12685   4.464   1.864   7.013 -0.0101 -0.9024  0.6385
  120OSM    H4F12686   4.510   1.918   6.927  1.6853 -1.9884  0.8534
  120OSM    H4G12687   4.492   1.759   6.995 -2.1780 -1.5938  1.0936
  120OSM    C5F12688   4.508   1.910   7.156  1.4544 -0.0183  0.0746
  120OSM    H5F12689   4.452   2.000   7.187 -0.8067 -1.4039  0.1075
  120OSM    H5G12690   4.617   1.931   7.152  1.2696  1.5675  2.3548
  120OSM    C6F12691   4.480   1.798   7.259  0.5420  0.3143  0.0082
  120OSM    H6F12692   4.547   1.709   7.251  0.8956  0.4086  1.8215
  120OSM    H6G12693   4.380   1.760   7.231  1.1694 -0.1821 -1.6595
  120OSM    C7F12694   4.457   1.855   7.398 -0.0920 -0.8814  0.3003
  120OSM    H7F12695   4.382   1.790   7.449  0.5732 -0.3325  2.0049
  120OSM    H7G12696   4.401   1.949   7.378  1.1864 -0.5055 -1.6290
  120OSM    C8F12697   4.580   1.884   7.479  0.0029  0.7721  0.2925
  120OSM    H8F12698   4.550   1.929   7.576  1.4355 -0.9535  1.5805
  120OSM    H8G12699   4.637   1.962   7.424 -0.8628  1.1929 -0.0151
  120OSM    C9F12700   4.661   1.759   7.507 -0.7609 -0.0541 -0.3785
  120OSM    H9F12701   4.687   1.700   7.418  2.0238 -0.2445  0.5078
  120OSM   C10F12702   4.696   1.717   7.630 -0.0077 -0.0496  0.2834
  120OSM   H10F12703   4.764   1.631   7.641 -0.6254 -0.4121  1.2720
  120OSM   C11F12704   4.673   1.780   7.761 -0.2963 -0.0590  0.1964
  120OSM   H11F12705   4.657   1.705   7.841  0.3050  1.6002  1.8848
  120OSM   H11G12706   4.582   1.843   7.768  1.1631  2.2172 -0.7178
  120OSM   C12F12707   4.782   1.867   7.831  0.1797  0.5464  0.5148
  120OSM   H12F12708   4.764   1.967   7.787 -3.3010 -0.9894 -1.8487
  120OSM   H12G12709   4.873   1.819   7.790 -0.5400 -0.8585  0.5277
  120OSM   C13F12710   4.788   1.869   7.977  0.0287 -0.3610 -0.4714
  120OSM   H13F12711   4.802   1.765   8.013 -2.1249 -1.0326 -1.4565
  120OSM   H13G12712   4.688   1.903   8.012 -0.4219 -0.8366 -1.2831
  120OSM   C14F12713   4.910   1.947   8.036 -0.2325 -0.2678 -0.5178
  120OSM   H14F12714   4.885   2.050   8.002  0.3183  0.0476  0.0210
  120OSM   H14G12715   5.006   1.919   7.989 -0.3529  0.6843 -1.3339
  120OSM   C15F12716   4.928   1.941   8.186  0.4755 -0.3465  0.9282
  120OSM   H15F12717   5.007   2.017   8.206 -1.2176  1.6343  0.2744
  120OSM   H15G12718   4.951   1.835   8.207 -1.4128 -0.9261  0.1810
  120OSM   C16F12719   4.799   1.983   8.253  1.0124 -0.2554  0.0891
  120OSM   H16F12720   4.736   1.894   8.229 -2.4041  1.9176  0.6038
  120OSM   H16G12721   4.750   2.071   8.205 -1.3831 -1.7855 -0.3895
  120OSM   C17F12722   4.819   2.005   8.404 -0.3588 -0.0569  0.3105
  120OSM   H17F12723   4.852   1.906   8.442 -0.1820 -1.4535 -3.2850
  120OSM   H17G12724   4.717   2.025   8.445 -1.0095  1.1777 -1.8273
  120OSM   C18F12725   4.919   2.118   8.440  0.6706 -0.1877  0.7017
  120OSM   H18F12726   4.869   2.213   8.413 -1.2228 -1.8030 -1.7438
  120OSM   H18G12727   5.015   2.099   8.387 -1.0848 -1.4739 -2.1212
  120OSM   H18H12728   4.939   2.133   8.548 -1.2753  2.3958  0.7398
  121OSM      N12729   6.515   3.402   5.849  0.2122  0.4744 -0.4177
  121OSM    C1512730   6.568   3.543   5.873 -0.6165 -0.1950  0.1595
  121OSM   H15A12731   6.491   3.617   5.853  1.9203  2.5548  0.2820
  121OSM   H15B12732   6.649   3.568   5.807  1.0119  0.7560  2.4229
  121OSM   H15C12733   6.608   3.567   5.971 -1.5403 -1.9886  0.9936
  121OSM    C1412734   6.470   3.378   5.715 -0.3437 -0.4296  0.1009
  121OSM   H14A12735   6.549   3.357   5.644 -1.9774 -0.7819 -1.6443
  121OSM   H14B12736   6.425   3.468   5.677  0.6462  0.9174  2.0540
  121OSM   H14C12737   6.402   3.294   5.710 -1.2247  0.2344  0.8982
  121OSM    C1312738   6.632   3.304   5.886 -0.3724 -0.3434 -0.5045
  121OSM   H13A12739   6.727   3.336   5.844 -0.8161 -0.5769 -1.7261
  121OSM   H13B12740   6.620   3.211   5.834  0.3422 -0.0097 -1.2962
  121OSM   H13C12741   6.640   3.298   5.993  0.5822  1.7644 -0.4090
  121OSM    C1212742   6.395   3.364   5.939  0.5081  0.1568  0.6266
  121OSM   H12A12743   6.429   3.367   6.042  1.6396  0.1000  0.2609
  121OSM   H12B12744   6.370   3.262   5.917 -2.1248  0.7278  0.7885
  121OSM    C1112745   6.263   3.441   5.925 -0.5268 -0.2566  0.2399
  121OSM   H11A12746   6.190   3.393   5.994 -1.6431  0.5726 -0.3515
  121OSM   H11B12747   6.221   3.424   5.824  1.1030 -1.1865 -0.2996
  121OSM      P12748   6.302   3.618   6.110 -0.3335  0.0996  0.0124
  121OSM    O1312749   6.388   3.733   6.119  0.3949 -0.0034  0.5428
  121OSM    O1412750   6.168   3.631   6.165  0.5297 -0.2399 -0.5320
  121OSM    O1112751   6.374   3.487   6.177 -0.2301 -0.3922  0.6370
  121OSM    O1212752   6.280   3.583   5.956  0.2302  0.0106  0.0912
  121OSM    C1S12753   6.460   3.497   6.288 -0.2557  0.1809  0.4248
  121OSM    H1S12754   6.549   3.561   6.273  0.2120 -0.6463 -0.3580
  121OSM    H1T12755   6.500   3.399   6.321 -0.4577 -0.9871 -2.6444
  121OSM     NF12756   6.455   3.559   6.530  0.4480  0.2540 -0.3802
  121OSM    HNF12757   6.455   3.494   6.605 -0.6165 -0.6612 -1.1686
  121OSM    C2S12758   6.372   3.529   6.417 -0.6931  0.1960 -0.3515
  121OSM    H2S12759   6.305   3.616   6.400 -0.5602  0.6583  1.3432
  121OSM    C3S12760   6.284   3.414   6.452  0.1314 -0.9486  0.1109
  121OSM    H3S12761   6.347   3.323   6.462  0.7293 -0.3418  2.3097
  121OSM     O312762   6.184   3.386   6.349  0.0006  0.2214  0.8907
  121OSM    HO312763   6.212   3.441   6.276 -0.0376 -0.5204  0.2988
  121OSM    C4S12764   6.207   3.448   6.578 -0.7809  0.0868  0.4793
  121OSM    H4S12765   6.132   3.527   6.562  1.6151  2.2173 -0.6863
  121OSM    C5S12766   6.209   3.383   6.699  0.2006  0.9263 -0.4945
  121OSM    H5S12767   6.255   3.284   6.710 -0.6366  0.7094  1.2068
  121OSM    C6S12768   6.110   3.407   6.817 -0.5796 -0.0946 -0.4904
  121OSM    H6S12769   6.061   3.316   6.858 -2.4792  0.5567 -1.2252
  121OSM    H6T12770   6.023   3.471   6.788 -1.5201 -0.2682  1.8178
  121OSM    C7S12771   6.177   3.483   6.942  0.7878 -0.0873 -0.2187
  121OSM    H7S12772   6.215   3.577   6.896 -0.3852  1.4594  1.9011
  121OSM    H7T12773   6.267   3.427   6.976  0.5167  0.2514  1.0865
  121OSM    C8S12774   6.081   3.508   7.052  0.1255 -0.1852 -0.2605
  121OSM    H8S12775   6.135   3.540   7.144  0.8433 -2.4805  0.1455
  121OSM    H8T12776   6.034   3.413   7.086  0.3901 -0.6574 -1.2015
  121OSM    C9S12777   5.972   3.605   7.008  0.0274  0.1646 -0.2349
  121OSM    H9S12778   5.890   3.553   6.954  0.6131 -0.6645 -0.3420
  121OSM    H9T12779   6.015   3.683   6.942  2.3780  0.9076  2.1020
  121OSM   C10S12780   5.919   3.679   7.135  0.7619 -0.4523  0.0045
  121OSM   H10S12781   5.842   3.754   7.105  1.4804  0.7665  1.1759
  121OSM   H10T12782   6.003   3.739   7.175  0.2602 -0.1798  0.6539
  121OSM   C11S12783   5.862   3.583   7.233 -0.6878  0.2973 -0.1039
  121OSM   H11S12784   5.942   3.511   7.258 -1.8509 -2.8319 -4.7789
  121OSM   H11T12785   5.788   3.524   7.175  0.6432  0.2758 -1.7945
  121OSM   C12S12786   5.799   3.645   7.360  0.4011 -0.0222  0.7201
  121OSM   H12S12787   5.742   3.569   7.416  0.1890 -0.2547  0.1932
  121OSM   H12T12788   5.718   3.709   7.318 -0.5752 -0.2523  2.2412
  121OSM   C13S12789   5.887   3.734   7.451  0.1068 -0.0527  0.1670
  121OSM   H13S12790   5.932   3.822   7.400 -0.0276 -0.4717 -0.6790
  121OSM   H13T12791   5.962   3.664   7.494  0.9770  2.7831  3.4700
  121OSM   C14S12792   5.818   3.771   7.573  1.2849  0.1007 -0.2273
  121OSM   H14S12793   5.781   3.678   7.621  2.2272 -0.6431 -0.9180
  121OSM   H14T12794   5.732   3.834   7.541 -2.9737 -3.4908  3.5003
  121OSM   C15S12795   5.905   3.845   7.682  0.1743 -0.3800  0.1403
  121OSM   H15S12796   5.834   3.902   7.744  2.7082  1.9486  0.9832
  121OSM   H15T12797   5.972   3.922   7.639  2.1600 -1.5033  1.1409
  121OSM   C16S12798   5.990   3.745   7.769  0.2980  0.1968 -0.1259
  121OSM   H16S12799   6.076   3.712   7.706 -0.8732  0.9852 -2.2039
  121OSM   H16T12800   5.923   3.662   7.798 -0.2143  0.3533 -0.8619
  121OSM   C17S12801   6.040   3.828   7.893  0.4703  0.4564  0.6968
  121OSM   H17S12802   5.963   3.905   7.915 -0.1567 -0.1738  0.7257
  121OSM   H17T12803   6.131   3.882   7.859 -0.5803  0.3009 -2.5618
  121OSM   C18S12804   6.070   3.746   8.019  0.3284  0.4571  0.5100
  121OSM   H18S12805   6.154   3.787   8.081  0.9345  0.8515 -0.5590
  121OSM   H18T12806   6.095   3.645   7.982  1.3713  1.0899 -0.5645
  121OSM   H18U12807   5.982   3.748   8.087 -0.7221  0.0766 -0.8167
  121OSM    C1F12808   6.539   3.662   6.535  0.4573 -0.4956 -0.2369
  121OSM     OF12809   6.552   3.738   6.443 -0.4693  0.3306  0.0616
  121OSM    C2F12810   6.600   3.681   6.667 -0.3351  0.4241 -0.0614
  121OSM    H2F12811   6.643   3.784   6.674 -2.5529  1.4513 -1.1238
  121OSM    H2G12812   6.691   3.618   6.676 -2.2511 -2.4535 -0.4675
  121OSM    C3F12813   6.504   3.656   6.791 -0.8557 -0.2187 -0.1279
  121OSM    H3F12814   6.477   3.549   6.803  2.1305 -1.1143 -0.8010
  121OSM    H3G12815   6.409   3.701   6.756 -1.1531 -0.3525  0.5155
  121OSM    C4F12816   6.559   3.722   6.920  0.1682 -0.4448 -0.2469
  121OSM    H4F12817   6.469   3.719   6.985 -0.2507  0.3889 -0.7907
  121OSM    H4G12818   6.581   3.830   6.909  0.6501 -0.4845  0.2713
  121OSM    C5F12819   6.673   3.635   6.979  0.3972  0.5744  0.1919
  121OSM    H5F12820   6.761   3.645   6.911  0.2483  0.6089  0.0043
  121OSM    H5G12821   6.636   3.530   6.972  1.9314  0.1084 -1.8308
  121OSM    C6F12822   6.689   3.667   7.126 -0.1886  0.2913 -0.8400
  121OSM    H6F12823   6.599   3.655   7.191 -1.6283  1.8239 -2.4830
  121OSM    H6G12824   6.722   3.772   7.139 -0.4895  0.2901 -0.0244
  121OSM    C7F12825   6.792   3.580   7.199 -0.0200 -0.3518  0.2068
  121OSM    H7F12826   6.878   3.553   7.134 -1.1052 -1.2365 -0.9022
  121OSM    H7G12827   6.746   3.484   7.230 -1.0060 -1.2693 -3.7484
  121OSM    C8F12828   6.868   3.648   7.310  0.0685 -0.3605  0.3860
  121OSM    H8F12829   6.930   3.731   7.270  1.5400 -1.2242  0.8632
  121OSM    H8G12830   6.935   3.577   7.363  0.4209  0.2746  0.7944
  121OSM    C9F12831   6.783   3.712   7.414 -0.3773 -0.1166 -0.3611
  121OSM    H9F12832   6.709   3.783   7.374 -1.1255  0.2053  1.5632
  121OSM   C10F12833   6.767   3.681   7.542  0.4877  0.5357 -0.1230
  121OSM   H10F12834   6.712   3.754   7.604  1.3670 -0.3632  1.7578
  121OSM   C11F12835   6.849   3.580   7.615 -0.0550  0.3440  0.5967
  121OSM   H11F12836   6.915   3.519   7.550  0.1156  2.1274 -0.9628
  121OSM   H11G12837   6.774   3.511   7.658 -1.1737  0.0205 -1.7769
  121OSM   C12F12838   6.961   3.647   7.701  0.0976  0.5979 -0.0566
  121OSM   H12F12839   7.006   3.734   7.649 -0.5298 -0.5387 -2.5966
  121OSM   H12G12840   7.039   3.574   7.731  0.4952  1.5976  1.3579
  121OSM   C13F12841   6.904   3.702   7.832 -0.4562  0.1446 -0.8043
  121OSM   H13F12842   6.795   3.713   7.821 -0.6325 -0.9594 -0.3026
  121OSM   H13G12843   6.957   3.798   7.848  0.1419 -0.1866 -0.7364
  121OSM   C14F12844   6.932   3.617   7.952 -0.2464 -0.2860 -0.1427
  121OSM   H14F12845   7.041   3.600   7.963 -0.1909 -0.1524 -0.5152
  121OSM   H14G12846   6.869   3.528   7.930 -1.9813  1.0703 -0.7803
  121OSM   C15F12847   6.897   3.680   8.086  0.4729 -0.1920 -0.3065
  121OSM   H15F12848   6.800   3.734   8.079  0.2961 -0.4505  0.1287
  121OSM   H15G12849   6.963   3.762   8.121 -0.4660  0.4373 -0.0046
  121OSM   C16F12850   6.869   3.574   8.196 -0.0452  0.2487  0.4902
  121OSM   H16F12851   6.787   3.505   8.167  0.5259 -0.4634  0.5262
  121OSM   H16G12852   6.842   3.626   8.291 -0.3258 -1.3008  1.2823
  121OSM   C17F12853   6.992   3.491   8.236 -0.5223 -0.3049 -0.8296
  121OSM   H17F12854   7.003   3.397   8.178  1.0403 -1.2295  0.8907
  121OSM   H17G12855   6.958   3.447   8.332 -2.7294 -0.2163 -1.5395
  121OSM   C18F12856   7.118   3.561   8.266  1.0683 -0.1627 -0.5340
  121OSM   H18F12857   7.193   3.494   8.312  1.0783 -0.3831 -0.8667
  121OSM   H18G12858   7.096   3.641   8.339  2.6577 -0.2118  0.0219
  121OSM   H18H12859   7.163   3.615   8.179 -0.2963  2.5467  0.3759
  122OSM      N12860   5.206   5.935   6.059 -0.8262 -0.2875 -0.5697
  122OSM    C1512861   5.211   5.870   6.190 -0.2267  0.1759  0.2911
  122OSM   H15A12862   5.258   5.773   6.184  1.4352  1.0893 -2.3373
  122OSM   H15B12863   5.115   5.851   6.235  0.4112 -0.9915  1.1983
  122OSM   H15C12864   5.267   5.928   6.262  1.6534 -2.1737  0.7841
  122OSM    C1412865   5.175   6.080   6.071 -0.3495 -0.7376  0.2593
  122OSM   H14A12866   5.238   6.126   6.145  2.5465 -0.2878 -2.3716
  122OSM   H14B12867   5.080   6.103   6.115  1.0342  0.8376  2.5341
  122OSM   H14C12868   5.185   6.136   5.979 -1.4492  0.7831  1.0455
  122OSM    C1312869   5.340   5.928   5.991 -0.0023  0.9834  0.0841
  122OSM   H13A12870   5.326   5.972   5.893 -3.0761 -0.8884 -0.4169
  122OSM   H13B12871   5.384   5.829   5.991 -0.3890  0.8074  1.4132
  122OSM   H13C12872   5.410   5.994   6.037 -0.6597  1.4098  0.4801
  122OSM    C1212873   5.099   5.874   5.977  0.0574  0.5862 -0.1061
  122OSM   H12A12874   5.088   5.916   5.878 -1.8096 -0.9336 -0.5632
  122OSM   H12B12875   5.001   5.888   6.020 -1.8244 -0.1914 -3.9195
  122OSM    C1112876   5.105   5.725   5.959  0.8214 -0.0603  0.6744
  122OSM   H11A12877   5.209   5.699   5.929  0.8855 -1.5739  2.1180
  122OSM   H11B12878   5.046   5.697   5.869  0.3175 -0.0001  0.9885
  122OSM      P12879   4.908   5.643   6.099 -0.0270 -0.0286  0.6644
  122OSM    O1312880   4.851   5.777   6.114  0.3235 -0.1890  0.7012
  122OSM    O1412881   4.847   5.556   5.992  0.4155 -0.3190 -0.7244
  122OSM    O1112882   4.891   5.576   6.247 -0.0475  0.6579  0.6089
  122OSM    O1212883   5.059   5.648   6.073 -0.0109  0.3160  0.3786
  122OSM    C1S12884   5.011   5.540   6.324  0.0407  0.2666 -1.4182
  122OSM    H1S12885   5.102   5.585   6.279  0.3868 -1.0538 -2.0520
  122OSM    H1T12886   5.033   5.431   6.317  1.2991  0.3260  1.0797
  122OSM     NF12887   5.113   5.540   6.546  0.1232 -0.0824 -0.3552
  122OSM    HNF12888   5.111   5.466   6.612  1.7091  1.6080  1.6731
  122OSM    C2S12889   4.988   5.567   6.476  0.0293  0.1859  0.0696
  122OSM    H2S12890   4.968   5.675   6.494 -1.7219 -0.0539 -0.3260
  122OSM    C3S12891   4.875   5.485   6.528  0.0279  0.3171 -0.2437
  122OSM    H3S12892   4.910   5.380   6.525 -3.0869 -0.7273 -2.6907
  122OSM     O312893   4.751   5.494   6.459 -0.2476  0.2265 -0.4044
  122OSM    HO312894   4.778   5.536   6.377 -0.1414  0.5159 -0.2247
  122OSM    C4S12895   4.855   5.517   6.672 -0.3027  0.0766 -0.0136
  122OSM    H4S12896   4.925   5.468   6.741 -1.4989 -1.5860  0.0572
  122OSM    C5S12897   4.772   5.607   6.727  1.2038  0.1565 -0.0486
  122OSM    H5S12898   4.714   5.672   6.660  1.1351  2.0556  1.7862
  122OSM    C6S12899   4.762   5.630   6.875 -0.7409 -0.4574 -0.6650
  122OSM    H6S12900   4.665   5.587   6.910 -0.7303 -0.6309 -0.8520
  122OSM    H6T12901   4.744   5.739   6.878 -0.0874 -0.3708  0.5577
  122OSM    C7S12902   4.872   5.595   6.976 -0.1152 -0.4116 -0.4946
  122OSM    H7S12903   4.970   5.611   6.927 -0.2839  3.5774  0.3653
  122OSM    H7T12904   4.870   5.487   7.002 -0.6135 -0.0473  1.0522
  122OSM    C8S12905   4.867   5.678   7.108 -0.0710  0.4281  0.2522
  122OSM    H8S12906   4.773   5.654   7.163 -1.6917  0.8299 -2.2244
  122OSM    H8T12907   4.858   5.787   7.091  1.0414  0.5819  0.6684
  122OSM    C9S12908   4.988   5.646   7.194 -0.3286 -0.0118  0.8221
  122OSM    H9S12909   5.066   5.725   7.198  0.3998 -0.6303 -0.7001
  122OSM    H9T12910   5.045   5.556   7.161 -0.3244  0.4667 -0.5214
  122OSM   C10S12911   4.942   5.610   7.334  0.3106  0.7689  0.6570
  122OSM   H10S12912   4.858   5.537   7.340 -1.1067  2.2677 -0.5643
  122OSM   H10T12913   4.895   5.701   7.376  0.6151  0.6628  1.2345
  122OSM   C11S12914   5.058   5.571   7.429 -0.1668  0.2612  0.3658
  122OSM   H11S12915   5.115   5.666   7.433 -1.3244  1.1245 -2.3316
  122OSM   H11T12916   5.116   5.480   7.400 -0.9226 -0.6130  1.5677
  122OSM   C12S12917   5.010   5.539   7.574  0.3478 -0.2910 -0.5715
  122OSM   H12S12918   5.097   5.496   7.629 -1.1511 -2.3495  0.2792
  122OSM   H12T12919   4.931   5.461   7.579 -2.1021  1.9312 -3.0639
  122OSM   C13S12920   4.968   5.658   7.663 -0.2602 -0.6047  0.0026
  122OSM   H13S12921   4.888   5.713   7.611  0.3390  1.3939  1.1328
  122OSM   H13T12922   5.055   5.724   7.686 -0.7902 -0.3391  1.2538
  122OSM   C14S12923   4.920   5.623   7.803 -0.5360 -0.7200  0.5547
  122OSM   H14S12924   4.827   5.562   7.803 -1.5326  0.7859 -0.1898
  122OSM   H14T12925   4.889   5.711   7.863 -1.5614 -0.2623 -0.6282
  122OSM   C15S12926   5.031   5.548   7.882  0.1247 -0.6135  0.1620
  122OSM   H15S12927   5.125   5.607   7.874  0.0264 -0.8573 -4.2286
  122OSM   H15T12928   5.047   5.448   7.835  0.6260 -1.3211  1.7943
  122OSM   C16S12929   4.990   5.522   8.028  0.6087 -0.4769  0.2450
  122OSM   H16S12930   4.902   5.454   8.026 -0.0026  0.2449 -4.1799
  122OSM   H16T12931   4.977   5.623   8.071  0.3330 -0.3152 -0.2170
  122OSM   C17S12932   5.098   5.449   8.103  0.1605  0.0718 -0.4681
  122OSM   H17S12933   5.121   5.361   8.039  0.5883  0.4317 -0.8201
  122OSM   H17T12934   5.041   5.404   8.187 -0.8966 -2.0514 -2.2731
  122OSM   C18S12935   5.214   5.533   8.155  0.4884 -1.1182  0.7601
  122OSM   H18S12936   5.274   5.462   8.216 -0.2459 -1.5191  1.0140
  122OSM   H18T12937   5.178   5.609   8.228 -0.4124 -0.9522  0.1478
  122OSM   H18U12938   5.282   5.570   8.075 -0.0905 -1.4318  0.1204
  122OSM    C1F12939   5.229   5.607   6.522  0.9468 -0.4910  0.7447
  122OSM     OF12940   5.232   5.705   6.450 -0.1270  0.0174  0.4214
  122OSM    C2F12941   5.343   5.552   6.592 -1.2688  0.2929 -0.3022
  122OSM    H2F12942   5.409   5.512   6.512 -0.0295  1.8388 -0.0853
  122OSM    H2G12943   5.311   5.462   6.649  0.4817 -1.0084 -1.3308
  122OSM    C3F12944   5.410   5.654   6.685 -0.2872 -0.1137 -0.5663
  122OSM    H3F12945   5.458   5.736   6.627  1.8065 -1.0937 -0.2930
  122OSM    H3G12946   5.494   5.588   6.718 -2.9430 -2.8360  1.0139
  122OSM    C4F12947   5.329   5.714   6.801 -0.4447  0.4044  0.4528
  122OSM    H4F12948   5.236   5.760   6.761 -0.0846  0.0020 -0.8757
  122OSM    H4G12949   5.378   5.806   6.838 -0.1767  0.0897  0.8746
  122OSM    C5F12950   5.301   5.626   6.923 -0.0048 -0.9640 -0.3434
  122OSM    H5F12951   5.352   5.529   6.908 -1.3744 -1.6082 -0.8881
  122OSM    H5G12952   5.194   5.597   6.933 -1.4483  3.6769 -1.2299
  122OSM    C6F12953   5.342   5.697   7.054 -0.0897  0.4304 -0.1359
  122OSM    H6F12954   5.277   5.785   7.068 -1.0036 -0.1951 -0.4110
  122OSM    H6G12955   5.440   5.745   7.031 -0.0465 -0.4346 -1.8948
  122OSM    C7F12956   5.344   5.606   7.178  0.2654  0.3502  0.1256
  122OSM    H7F12957   5.392   5.508   7.155 -1.2360 -0.7117  1.4964
  122OSM    H7G12958   5.241   5.586   7.214  0.1246  0.0882 -0.4193
  122OSM    C8F12959   5.434   5.666   7.285  0.0382  0.7015  0.1101
  122OSM    H8F12960   5.505   5.735   7.235  0.5454 -1.3380 -2.0842
  122OSM    H8G12961   5.495   5.595   7.344 -2.5336  0.4312  2.5132
  122OSM    C9F12962   5.355   5.756   7.375  0.1068  0.4084 -0.6124
  122OSM    H9F12963   5.255   5.787   7.340 -0.3018 -2.0879 -1.7575
  122OSM   C10F12964   5.383   5.791   7.501  0.1681 -0.1953 -0.4529
  122OSM   H10F12965   5.313   5.857   7.555 -1.2179  0.0753 -2.5372
  122OSM   C11F12966   5.501   5.751   7.584  0.7441  0.1906 -0.4077
  122OSM   H11F12967   5.583   5.826   7.584  0.7351  0.2031 -0.8492
  122OSM   H11G12968   5.548   5.660   7.543  0.0785  0.0565 -0.8903
  122OSM   C12F12969   5.462   5.732   7.735 -0.0497  0.1510 -0.9095
  122OSM   H12F12970   5.411   5.638   7.765  1.9420 -0.5277  0.4918
  122OSM   H12G12971   5.393   5.815   7.760 -3.1013 -2.7084  0.5120
  122OSM   C13F12972   5.591   5.734   7.826 -0.4204  0.0246 -0.1982
  122OSM   H13F12973   5.663   5.810   7.790 -1.3834 -0.1099 -2.5511
  122OSM   H13G12974   5.635   5.632   7.819  0.8574  0.5753 -0.2264
  122OSM   C14F12975   5.566   5.756   7.972 -0.5371 -1.0338  0.3679
  122OSM   H14F12976   5.499   5.677   8.012 -2.2154 -0.2309 -0.8309
  122OSM   H14G12977   5.501   5.844   7.989  0.7311  0.1801 -0.8765
  122OSM   C15F12978   5.700   5.755   8.061  0.0610 -0.0078 -0.3912
  122OSM   H15F12979   5.736   5.853   8.022  0.5488  0.3782  1.0164
  122OSM   H15G12980   5.768   5.677   8.019  1.4944  1.7309 -1.3675
  122OSM   C16F12981   5.677   5.733   8.217  0.3011 -0.0401 -0.1536
  122OSM   H16F12982   5.612   5.644   8.234  2.2354 -1.6896 -1.2088
  122OSM   H16G12983   5.622   5.820   8.259  0.4003 -0.2717  0.4591
  122OSM   C17F12984   5.817   5.728   8.280 -0.0594 -0.7636 -0.3555
  122OSM   H17F12985   5.859   5.831   8.270  0.3000 -0.6870  1.7468
  122OSM   H17G12986   5.876   5.656   8.220  0.9492 -1.8193  1.8471
  122OSM   C18F12987   5.830   5.678   8.431  0.4493 -0.1516  0.0881
  122OSM   H18F12988   5.936   5.677   8.464  0.1458  2.1096  1.2031
  122OSM   H18G12989   5.798   5.572   8.433 -1.5504  0.4158 -0.1940
  122OSM   H18H12990   5.761   5.738   8.495 -0.8482 -1.9828  0.4438
  123OSM      N12991   2.561   1.732   6.432  0.4957 -0.3921 -0.0400
  123OSM    C1512992   2.437   1.706   6.348  0.1009  0.6198 -0.5716
  123OSM   H15A12993   2.436   1.613   6.295 -3.5795  0.0714  0.3696
  123OSM   H15B12994   2.440   1.778   6.267  1.1904  0.7398 -0.4448
  123OSM   H15C12995   2.348   1.706   6.409  0.1630  0.1060 -0.4785
  123OSM    C1412996   2.679   1.708   6.340 -0.1494 -0.0295  0.4431
  123OSM   H14A12997   2.767   1.694   6.401  0.8290 -0.7958 -1.1243
  123OSM   H14B12998   2.692   1.790   6.272 -0.9766  0.5457  0.9593
  123OSM   H14C12999   2.673   1.609   6.297 -0.7015 -0.2979  1.1182
  123OSM    C1313000   2.561   1.873   6.466 -0.4038 -0.3414 -0.7469
  123OSM   H13A13001   2.646   1.903   6.525  0.7757 -2.9620 -1.0532
  123OSM   H13B13002   2.482   1.890   6.539  1.1938  1.8905  0.5105
  123OSM   H13C13003   2.556   1.944   6.385  1.8399  0.4923 -0.1752
  123OSM    C1213004   2.560   1.643   6.556  0.9080  0.1977  0.1841
  123OSM   H12A13005   2.554   1.538   6.531 -0.9321  0.2631  0.2849
  123OSM   H12B13006   2.478   1.666   6.621 -0.0565 -2.2023 -0.1280
  123OSM    C1113007   2.688   1.660   6.650  0.0397  0.1932 -0.1799
  123OSM   H11A13008   2.677   1.588   6.734 -0.8425  1.1697  0.5502
  123OSM   H11B13009   2.691   1.763   6.691  1.7868  0.1331 -0.1097
  123OSM      P13010   2.858   1.478   6.549  0.6522 -0.2328 -0.0499
  123OSM    O1313011   2.757   1.427   6.455 -0.1754 -0.5142 -0.2701
  123OSM    O1413012   2.998   1.474   6.505  0.3771 -0.0570 -0.3309
  123OSM    O1113013   2.846   1.396   6.685 -0.2909  0.0927  0.3448
  123OSM    O1213014   2.810   1.622   6.584 -0.4717  0.7217 -0.0082
  123OSM    C1S13015   2.918   1.436   6.799 -0.0053  0.6864 -0.2766
  123OSM    H1S13016   2.930   1.546   6.805  0.3531  0.5905  1.0166
  123OSM    H1T13017   3.015   1.382   6.808 -0.1739  0.7114  2.0995
  123OSM     NF13018   2.907   1.424   7.056 -0.3592  0.3155 -0.3931
  123OSM    HNF13019   2.954   1.349   7.103  1.7707  1.8605  0.0391
  123OSM    C2S13020   2.850   1.382   6.926 -0.4807 -0.1732  0.5510
  123OSM    H2S13021   2.746   1.420   6.927 -0.0019  1.2924 -1.5272
  123OSM    C3S13022   2.841   1.223   6.917  0.0039 -0.4765 -0.1109
  123OSM    H3S13023   2.937   1.180   6.953  1.7199  2.5093 -0.8875
  123OSM     O313024   2.827   1.165   6.786 -0.3585 -0.5198 -0.1342
  123OSM    HO313025   2.854   1.243   6.736 -0.4526  0.0303  0.6469
  123OSM    C4S13026   2.739   1.172   7.007 -0.0897 -0.3050  0.0220
  123OSM    H4S13027   2.758   1.202   7.111 -0.6583 -0.6289  0.2229
  123OSM    C5S13028   2.620   1.109   6.976 -0.0391  0.0743  0.3261
  123OSM    H5S13029   2.587   1.100   6.871 -0.6555 -0.7227  0.5887
  123OSM    C6S13030   2.520   1.066   7.078 -0.4119  0.0661 -0.1271
  123OSM    H6S13031   2.500   0.961   7.046  0.5487 -0.2569  0.3158
  123OSM    H6T13032   2.430   1.130   7.090 -0.3512  0.2126 -0.4750
  123OSM    C7S13033   2.563   1.048   7.225 -0.1341 -0.9631 -0.0539
  123OSM    H7S13034   2.589   1.150   7.262 -0.6481 -0.4393 -1.1094
  123OSM    H7T13035   2.654   0.985   7.233 -1.7764 -3.2394  1.3992
  123OSM    C8S13036   2.459   0.977   7.320 -0.3285 -0.7825  0.1327
  123OSM    H8S13037   2.437   0.874   7.285 -2.7953 -0.1549 -0.2704
  123OSM    H8T13038   2.360   1.024   7.300 -0.6142 -2.1507 -1.7572
  123OSM    C9S13039   2.503   0.993   7.465  0.2820 -0.7544  0.1495
  123OSM    H9S13040   2.524   1.102   7.468 -0.6016 -0.5698 -0.0366
  123OSM    H9T13041   2.592   0.929   7.484  1.8260  1.3542  0.1427
  123OSM   C10S13042   2.405   0.956   7.576  0.6038  0.4072 -0.3830
  123OSM   H10S13043   2.395   0.845   7.573  1.0632  0.4056 -3.6174
  123OSM   H10T13044   2.304   0.996   7.553  1.0382  0.4171 -2.3205
  123OSM   C11S13045   2.454   1.004   7.709  0.3671 -0.1082  0.2943
  123OSM   H11S13046   2.495   1.107   7.698 -0.2401  0.0043 -0.9826
  123OSM   H11T13047   2.540   0.940   7.737  0.3142 -1.0209 -1.5755
  123OSM   C12S13048   2.334   1.023   7.796 -0.2709  0.1989 -0.6291
  123OSM   H12S13049   2.280   0.926   7.799  1.8548 -1.0044  0.5909
  123OSM   H12T13050   2.270   1.108   7.766  0.2763  1.1810  0.9186
  123OSM   C13S13051   2.367   1.056   7.944 -0.5559  0.3363 -0.0278
  123OSM   H13S13052   2.264   1.071   7.983 -0.8879  0.3912 -0.9286
  123OSM   H13T13053   2.423   1.152   7.949 -0.1121  0.0857 -0.1790
  123OSM   C14S13054   2.442   0.949   8.026 -0.2435  0.6335  0.0955
  123OSM   H14S13055   2.548   0.936   7.992 -0.3669  2.0928 -0.9264
  123OSM   H14T13056   2.390   0.852   8.029 -0.3683  0.7545  3.5067
  123OSM   C15S13057   2.458   0.991   8.172  0.1785 -0.0273 -0.3066
  123OSM   H15S13058   2.509   0.912   8.231 -0.5244  0.8947  1.5959
  123OSM   H15T13059   2.361   1.028   8.212  1.0779  1.4327  0.5189
  123OSM   C16S13060   2.541   1.118   8.187  0.1392  0.3570  0.5179
  123OSM   H16S13061   2.503   1.207   8.134 -0.1012  0.6833  1.2251
  123OSM   H16T13062   2.641   1.099   8.142  0.5800 -0.6516  1.8813
  123OSM   C17S13063   2.556   1.161   8.332  0.5737  0.0466  0.0333
  123OSM   H17S13064   2.579   1.075   8.398 -0.8998 -1.0675 -0.8876
  123OSM   H17T13065   2.456   1.193   8.369  0.9156 -0.3632  1.3525
  123OSM   C18S13066   2.677   1.265   8.343 -0.2569 -0.1292 -0.6334
  123OSM   H18S13067   2.764   1.236   8.281  0.9014 -2.8411  2.1182
  123OSM   H18T13068   2.717   1.264   8.447  3.5898  2.5697 -1.9860
  123OSM   H18U13069   2.642   1.366   8.316 -1.5038 -0.1486  0.8089
  123OSM    C1F13070   2.924   1.546   7.096 -0.2891 -0.3332  0.2997
  123OSM     OF13071   2.876   1.641   7.037  0.2264  0.3194 -0.4775
  123OSM    C2F13072   3.021   1.565   7.214  0.3153 -0.2905 -0.0064
  123OSM    H2F13073   3.108   1.630   7.190  0.0853 -0.5116 -1.5315
  123OSM    H2G13074   3.064   1.470   7.251 -0.0006 -1.0124 -1.4673
  123OSM    C3F13075   2.938   1.634   7.323 -0.6154 -0.4610 -0.0590
  123OSM    H3F13076   2.876   1.563   7.382  0.6447 -0.8264  0.8353
  123OSM    H3G13077   2.877   1.720   7.288  0.9689  0.3713 -0.8247
  123OSM    C4F13078   3.026   1.691   7.439  0.2152  0.1653  0.5881
  123OSM    H4F13079   3.106   1.754   7.394 -1.2577  2.8011  1.5161
  123OSM    H4G13080   3.082   1.611   7.492  1.5404  0.6514 -0.0702
  123OSM    C5F13081   2.933   1.756   7.547 -0.7663  0.7328  0.0061
  123OSM    H5F13082   2.891   1.674   7.609  2.8077 -0.1537  1.3793
  123OSM    H5G13083   2.854   1.820   7.503 -0.8174  1.3092  0.9268
  123OSM    C6F13084   3.011   1.850   7.640  0.0128 -0.9613 -0.6996
  123OSM    H6F13085   3.015   1.936   7.571 -1.8007 -0.4098 -0.1641
  123OSM    H6G13086   3.108   1.802   7.665  0.0101 -1.7830 -2.2465
  123OSM    C7F13087   2.933   1.905   7.758  0.8851  0.5692 -0.1763
  123OSM    H7F13088   2.914   1.826   7.834  1.9322  1.7945  1.3873
  123OSM    H7G13089   2.833   1.944   7.732  1.5357  1.7725 -0.9484
  123OSM    C8F13090   3.004   2.023   7.827 -0.0975  0.1377  0.5586
  123OSM    H8F13091   3.023   2.101   7.750  3.0512 -0.1129  0.9927
  123OSM    H8G13092   3.106   1.987   7.854  0.3080  0.3417 -0.6390
  123OSM    C9F13093   2.935   2.069   7.955 -0.2697 -0.1519 -0.1918
  123OSM    H9F13094   2.856   2.144   7.943 -0.6834 -0.3923  0.8928
  123OSM   C10F13095   2.962   2.027   8.075 -0.1110 -0.4759 -0.7261
  123OSM   H10F13096   2.903   2.073   8.156 -0.0941 -3.5306  1.1398
  123OSM   C11F13097   3.060   1.923   8.121 -0.4268  0.0006 -0.2740
  123OSM   H11F13098   3.165   1.931   8.085 -1.2838 -2.6606 -3.6298
  123OSM   H11G13099   3.026   1.820   8.097  0.3665  0.1101 -1.9090
  123OSM   C12F13100   3.080   1.931   8.273 -0.1101 -0.2838 -0.4083
  123OSM   H12F13101   2.982   1.939   8.323  0.8536  0.1344  1.4666
  123OSM   H12G13102   3.129   2.029   8.292 -1.9890  0.5112  0.4025
  123OSM   C13F13103   3.142   1.806   8.335 -0.0543 -0.1870  0.3418
  123OSM   H13F13104   3.076   1.722   8.303  2.8499 -2.8974  1.2278
  123OSM   H13G13105   3.144   1.800   8.446 -0.5157  0.9015  0.4135
  123OSM   C14F13106   3.289   1.784   8.297 -0.5142 -0.1221  0.3883
  123OSM   H14F13107   3.356   1.873   8.299 -1.0515  0.2735  1.0149
  123OSM   H14G13108   3.289   1.754   8.190  2.5330 -1.2282  0.6367
  123OSM   C15F13109   3.355   1.689   8.394  0.5988  0.3677 -1.5196
  123OSM   H15F13110   3.294   1.597   8.404 -0.9757  1.6144  0.9097
  123OSM   H15G13111   3.356   1.729   8.497  0.9449 -1.7677 -0.6807
  123OSM   C16F13112   3.500   1.663   8.350 -0.7866 -0.4776 -0.7080
  123OSM   H16F13113   3.562   1.622   8.432  2.0555  1.6984 -1.6435
  123OSM   H16G13114   3.549   1.763   8.338 -3.2248  1.1339  2.0418
  123OSM   C17F13115   3.506   1.604   8.213 -0.6604  1.1190  0.3789
  123OSM   H17F13116   3.473   1.677   8.137  0.6408  0.6172 -0.6884
  123OSM   H17G13117   3.447   1.510   8.219  2.6413 -0.9129  2.8481
  123OSM   C18F13118   3.653   1.579   8.178  0.6005  0.3412  1.1007
  123OSM   H18F13119   3.704   1.676   8.158 -1.7104  1.2527 -0.5043
  123OSM   H18G13120   3.654   1.524   8.081  0.7307  3.3140 -0.6392
  123OSM   H18H13121   3.697   1.521   8.262  1.9247  2.3120  1.7933
  124OSM      N13122   3.056   4.996   6.269  0.3219 -0.2902  0.2645
  124OSM    C1513123   3.039   5.129   6.336  0.3046  0.3638 -0.0048
  124OSM   H15A13124   3.079   5.131   6.436  0.2766 -0.1831  0.0226
  124OSM   H15B13125   2.933   5.142   6.347  0.2326 -1.2065  1.3041
  124OSM   H15C13126   3.081   5.206   6.273 -1.2294  0.3955 -1.0308
  124OSM    C1413127   2.962   4.996   6.149 -0.7212 -0.0539  0.7985
  124OSM   H14A13128   2.957   4.900   6.099 -3.4773 -0.0346  0.9463
  124OSM   H14B13129   2.998   5.065   6.074 -0.7629 -0.6690  0.1972
  124OSM   H14C13130   2.865   5.032   6.180 -0.6068  1.1720 -0.2000
  124OSM    C1313131   3.205   4.982   6.228  0.4635  0.2414  0.2611
  124OSM   H13A13132   3.217   4.886   6.180  1.0202  0.8876 -0.9239
  124OSM   H13B13133   3.264   4.980   6.318 -0.3391  0.6089  0.7997
  124OSM   H13C13134   3.245   5.053   6.156  0.1179 -1.4538 -1.6494
  124OSM    C1213135   3.001   4.886   6.359 -0.5797 -0.2898 -0.4366
  124OSM   H12A13136   2.982   4.796   6.301  0.4052 -0.5310 -0.4072
  124OSM   H12B13137   2.902   4.914   6.391  0.1261  0.5527  1.0576
  124OSM    C1113138   3.095   4.849   6.473  0.0560 -0.0593  0.0631
  124OSM   H11A13139   3.038   4.788   6.546  0.0844 -0.4336 -0.2288
  124OSM   H11B13140   3.117   4.947   6.520 -2.3497 -0.0084  1.1692
  124OSM      P13141   3.201   4.635   6.374 -0.0854 -0.0927 -0.1183
  124OSM    O1313142   3.056   4.604   6.341  1.3274 -0.0715 -0.3486
  124OSM    O1413143   3.300   4.631   6.262 -1.0896 -0.2197 -0.2051
  124OSM    O1113144   3.240   4.535   6.489  0.2934  0.3323 -0.3201
  124OSM    O1213145   3.210   4.783   6.435 -0.1482 -0.2248 -0.1813
  124OSM    C1S13146   3.352   4.588   6.572 -0.0909  0.3035 -0.4442
  124OSM    H1S13147   3.316   4.685   6.611 -1.8355 -0.3681 -0.3275
  124OSM    H1T13148   3.449   4.599   6.518 -0.2420  1.3727 -0.5004
  124OSM     NF13149   3.447   4.577   6.800 -0.2983  0.3660  1.1092
  124OSM    HNF13150   3.542   4.550   6.790 -0.0512  1.2697  1.0171
  124OSM    C2S13151   3.365   4.499   6.705  0.0215 -0.0835  0.1441
  124OSM    H2S13152   3.261   4.478   6.737  0.2312 -2.8391 -0.8544
  124OSM    C3S13153   3.425   4.352   6.671  0.2828 -0.3263  0.3445
  124OSM    H3S13154   3.522   4.370   6.619  0.0387 -0.5097 -0.1867
  124OSM     O313155   3.349   4.277   6.575 -0.0401 -0.4105 -0.0637
  124OSM    HO313156   3.272   4.323   6.542  1.2709  0.8357 -1.4664
  124OSM    C4S13157   3.447   4.264   6.791  0.0226 -0.2931  0.8501
  124OSM    H4S13158   3.359   4.253   6.857 -2.3501  1.7123 -1.8319
  124OSM    C5S13159   3.562   4.210   6.830 -0.5706 -0.1548 -0.7885
  124OSM    H5S13160   3.656   4.226   6.774 -1.0157  2.0782 -0.9152
  124OSM    C6S13161   3.581   4.110   6.946  0.6540 -0.0109  0.8158
  124OSM    H6S13162   3.669   4.149   7.001  0.6486  2.0195 -0.5701
  124OSM    H6T13163   3.600   4.004   6.918 -0.6388 -0.1976  0.6227
  124OSM    C7S13164   3.471   4.102   7.059  0.2900  0.0333 -0.2766
  124OSM    H7S13165   3.372   4.067   7.023 -1.0327  2.1599  1.1618
  124OSM    H7T13166   3.452   4.207   7.091  0.3502 -0.5007  1.5464
  124OSM    C8S13167   3.523   4.030   7.178 -0.7850 -1.0356 -0.3430
  124OSM    H8S13168   3.569   3.931   7.156  1.1009  0.1361 -1.8863
  124OSM    H8T13169   3.434   4.012   7.241  1.0704 -0.7355  2.4453
  124OSM    C9S13170   3.632   4.109   7.253  0.0598 -0.1235  0.2681
  124OSM    H9S13171   3.618   4.217   7.230 -0.1690 -0.0766  0.6335
  124OSM    H9T13172   3.727   4.075   7.207  1.2747  2.4442  0.8521
  124OSM   C10S13173   3.618   4.074   7.406  0.6953  0.1554 -0.0914
  124OSM   H10S13174   3.514   4.100   7.435  0.6220  1.3244 -1.3199
  124OSM   H10T13175   3.684   4.143   7.462  0.0306  0.0903  0.7743
  124OSM   C11S13176   3.659   3.932   7.437  0.2759  0.2971  0.1962
  124OSM   H11S13177   3.766   3.930   7.407 -0.3257  1.1881 -2.1374
  124OSM   H11T13178   3.604   3.855   7.378  0.5212 -0.5397  1.0478
  124OSM   C12S13179   3.629   3.876   7.586 -0.7570 -0.1161  0.5207
  124OSM   H12S13180   3.662   3.771   7.583  0.4860  0.2989 -1.0526
  124OSM   H12T13181   3.519   3.885   7.595 -0.9932 -0.4926 -1.7151
  124OSM   C13S13182   3.686   3.956   7.694 -0.4351  0.1410  0.0507
  124OSM   H13S13183   3.638   4.055   7.677 -0.7683 -0.1571 -0.7641
  124OSM   H13T13184   3.795   3.969   7.683 -0.4631  0.0843 -0.2971
  124OSM   C14S13185   3.655   3.903   7.839  0.2644  0.3255 -0.0691
  124OSM   H14S13186   3.667   3.793   7.853  3.4152  0.4670 -1.2955
  124OSM   H14T13187   3.549   3.934   7.852  1.0238  2.7702  0.5288
  124OSM   C15S13188   3.742   3.965   7.945 -0.0597  0.7012 -0.5283
  124OSM   H15S13189   3.768   4.072   7.927  0.3110  0.9467  1.3527
  124OSM   H15T13190   3.843   3.919   7.945 -0.0613  0.6168 -2.8159
  124OSM   C16S13191   3.681   3.966   8.083  0.7340 -0.1336  0.4498
  124OSM   H16S13192   3.657   3.859   8.102 -1.7092  0.3646  0.2492
  124OSM   H16T13193   3.590   4.029   8.084 -0.5859 -1.9879  2.2169
  124OSM   C17S13194   3.779   4.021   8.188 -0.1759  0.0745  0.4630
  124OSM   H17S13195   3.785   4.128   8.162 -0.6244 -0.2675 -1.1153
  124OSM   H17T13196   3.873   3.963   8.179 -0.9025 -1.3632  1.8281
  124OSM   C18S13197   3.703   4.015   8.318 -0.2919 -0.2345 -0.3126
  124OSM   H18S13198   3.762   4.077   8.389  0.1452 -0.0263 -0.8491
  124OSM   H18T13199   3.674   3.912   8.347  2.6350 -0.6091  1.4940
  124OSM   H18U13200   3.607   4.066   8.295 -0.3083 -0.2062 -0.1808
  124OSM    C1F13201   3.411   4.681   6.876 -0.0377 -0.7040 -0.6797
  124OSM     OF13202   3.292   4.705   6.896  0.1355 -0.0153 -1.2286
  124OSM    C2F13203   3.533   4.772   6.922  0.3000  0.6695  0.4037
  124OSM    H2F13204   3.506   4.876   6.895 -1.6176 -0.5906 -2.8704
  124OSM    H2G13205   3.620   4.732   6.866  0.2252 -1.2062  1.6011
  124OSM    C3F13206   3.561   4.752   7.066 -0.2703  0.0745  0.4621
  124OSM    H3F13207   3.471   4.766   7.129 -0.8931 -2.3582  0.1455
  124OSM    H3G13208   3.644   4.820   7.099  0.1194 -0.5916  0.8663
  124OSM    C4F13209   3.619   4.611   7.093  0.1596  0.1174  0.2464
  124OSM    H4F13210   3.703   4.593   7.023 -0.5476 -0.5763 -0.4356
  124OSM    H4G13211   3.532   4.542   7.086 -0.6688  1.0729  0.8124
  124OSM    C5F13212   3.674   4.603   7.236 -0.0355  0.5922 -0.2216
  124OSM    H5F13213   3.596   4.643   7.304  0.4721  1.5607 -0.2106
  124OSM    H5G13214   3.764   4.667   7.242 -0.2826  0.7608  1.9481
  124OSM    C6F13215   3.719   4.460   7.271 -0.1244  0.0834  0.0883
  124OSM    H6F13216   3.763   4.409   7.183  0.2703 -1.4545  1.1484
  124OSM    H6G13217   3.634   4.399   7.309 -1.4756  0.9883 -1.4671
  124OSM    C7F13218   3.821   4.460   7.383  0.1384  0.0659  0.5781
  124OSM    H7F13219   3.922   4.495   7.352  0.5320 -1.1214  0.4946
  124OSM    H7G13220   3.838   4.355   7.415 -2.3576 -0.2733  0.9135
  124OSM    C8F13221   3.780   4.532   7.516 -0.3243 -0.4576  0.4353
  124OSM    H8F13222   3.758   4.638   7.493 -0.5835 -0.2413  1.6520
  124OSM    H8G13223   3.862   4.532   7.591  0.0882  1.1966 -0.0020
  124OSM    C9F13224   3.662   4.473   7.577 -0.3241  0.3177  0.6168
  124OSM    H9F13225   3.568   4.510   7.534 -0.5627  1.8964  2.3795
  124OSM   C10F13226   3.656   4.398   7.685 -0.5794  0.3193 -0.4145
  124OSM   H10F13227   3.555   4.367   7.716 -0.2598 -0.5012 -0.2058
  124OSM   C11F13228   3.766   4.346   7.771  0.3957 -1.2710  0.3685
  124OSM   H11F13229   3.865   4.373   7.729  0.3460 -0.5093  0.7140
  124OSM   H11G13230   3.767   4.235   7.766  0.1751 -1.2350 -0.4946
  124OSM   C12F13231   3.748   4.396   7.917 -0.1752 -0.2903 -0.1645
  124OSM   H12F13232   3.832   4.349   7.972  0.9696 -1.1214 -2.5549
  124OSM   H12G13233   3.657   4.349   7.961 -1.6793  2.0014 -0.7143
  124OSM   C13F13234   3.745   4.550   7.941 -0.7107 -0.0280  0.4947
  124OSM   H13F13235   3.685   4.597   7.860 -2.8054  0.6461  2.3795
  124OSM   H13G13236   3.852   4.580   7.935 -1.0077  1.0521  0.4783
  124OSM   C14F13237   3.667   4.600   8.066  0.5398  0.0365 -0.9958
  124OSM   H14F13238   3.563   4.571   8.040  0.5984  0.5266 -1.7780
  124OSM   H14G13239   3.683   4.707   8.090 -0.3552  0.1151 -0.7215
  124OSM   C15F13240   3.721   4.524   8.187 -0.1184  0.5008  0.3616
  124OSM   H15F13241   3.814   4.580   8.206  0.6850 -0.8184  0.4046
  124OSM   H15G13242   3.740   4.415   8.173  2.2054  0.7853  1.1967
  124OSM   C16F13243   3.645   4.542   8.318 -0.3417 -0.3564  0.1155
  124OSM   H16F13244   3.536   4.530   8.301 -0.2795 -0.3817 -0.2612
  124OSM   H16G13245   3.648   4.650   8.345 -1.7468  0.4658 -2.8366
  124OSM   C17F13246   3.673   4.443   8.425 -0.0252 -0.4032  0.6143
  124OSM   H17F13247   3.625   4.347   8.398  0.1425 -0.2087 -0.3821
  124OSM   H17G13248   3.617   4.477   8.515 -0.0692  1.6787 -0.1656
  124OSM   C18F13249   3.824   4.429   8.460  0.0657  0.1309 -0.2957
  124OSM   H18F13250   3.886   4.410   8.370 -0.1850 -1.9114 -0.0745
  124OSM   H18G13251   3.846   4.353   8.538  2.0438  0.8478 -0.1368
  124OSM   H18H13252   3.862   4.526   8.499 -0.1847 -0.5005  1.5891
  125OSM      N13253   0.241   3.124   6.118 -0.0478  0.1873  0.5329
  125OSM    C1513254   0.161   3.214   6.033  0.3915  0.0155 -0.0794
  125OSM   H15A13255   0.063   3.170   6.022  0.4885 -0.1839 -0.1529
  125OSM   H15B13256   0.195   3.219   5.931 -0.4039  0.4371 -0.3314
  125OSM   H15C13257   0.147   3.310   6.079 -0.8274  0.3819 -1.1623
  125OSM    C1413258   0.260   2.995   6.057  0.3693 -0.5076 -0.2968
  125OSM   H14A13259   0.306   2.992   5.959 -2.3562  1.8001 -1.7207
  125OSM   H14B13260   0.159   2.959   6.043  0.7191 -1.8158  0.4883
  125OSM   H14C13261   0.310   2.934   6.130 -2.7700 -1.2018  1.3439
  125OSM    C1313262   0.369   3.196   6.148 -0.7675 -0.0864 -0.1557
  125OSM   H13A13263   0.429   3.207   6.059 -0.3493  1.0566  0.2585
  125OSM   H13B13264   0.428   3.137   6.217 -0.5009  0.9728  0.5450
  125OSM   H13C13265   0.358   3.294   6.192 -1.1828  0.2310 -0.9628
  125OSM    C1213266   0.169   3.104   6.252 -0.5549 -0.9938 -0.0173
  125OSM   H12A13267   0.138   3.201   6.288  1.8828  0.5319 -1.8089
  125OSM   H12B13268   0.250   3.078   6.318  0.5356  1.7144 -0.1876
  125OSM    C1113269   0.055   3.005   6.269  0.4433  0.1526  0.7555
  125OSM   H11A13270   0.020   2.987   6.373  2.2544 -1.0386  1.1686
  125OSM   H11B13271   0.090   2.910   6.225 -1.0043 -0.5539  1.1119
  125OSM      P13272  -0.155   3.154   6.226 -0.1573  0.1037  0.0180
  125OSM    O1313273  -0.081   3.282   6.201  0.8665  0.3562 -0.3150
  125OSM    O1413274  -0.291   3.136   6.162  0.2909 -0.1543 -0.2172
  125OSM    O1113275  -0.174   3.139   6.378 -0.0095 -0.7493 -0.3252
  125OSM    O1213276  -0.059   3.039   6.184 -0.0381 -0.1649 -0.5154
  125OSM    C1S13277  -0.233   3.029   6.437  0.0405 -0.0325  0.4365
  125OSM    H1S13278  -0.225   2.938   6.374  3.0967  0.2533  0.3616
  125OSM    H1T13279  -0.341   3.050   6.454 -0.1490 -1.2851  0.8516
  125OSM     NF13280  -0.198   2.881   6.645  0.1791  0.2709 -0.2871
  125OSM    HNF13281  -0.270   2.864   6.712 -1.4938  1.4234 -1.7367
  125OSM    C2S13282  -0.177   3.013   6.585  0.1073 -0.0311 -0.2661
  125OSM    H2S13283  -0.067   3.026   6.579 -0.1549  2.1674 -0.7063
  125OSM    C3S13284  -0.236   3.136   6.670  0.0981 -0.7173 -1.0669
  125OSM    H3S13285  -0.343   3.118   6.696  0.0017  2.2421  0.9512
  125OSM     O313286  -0.253   3.259   6.597  0.1977 -0.1194  0.1165
  125OSM    HO313287  -0.230   3.229   6.509  0.3433 -1.0466  0.4718
  125OSM    C4S13288  -0.159   3.160   6.799  0.6256 -0.4000  0.1602
  125OSM    H4S13289  -0.051   3.147   6.787  0.7426  0.1718  0.5858
  125OSM    C5S13290  -0.210   3.183   6.921 -0.2588 -0.2742  0.7478
  125OSM    H5S13291  -0.314   3.216   6.930 -0.6970 -1.9780  2.2412
  125OSM    C6S13292  -0.124   3.201   7.051  0.5116  0.0308  0.5875
  125OSM    H6S13293  -0.100   3.306   7.078  1.0189 -0.1445  0.8149
  125OSM    H6T13294  -0.020   3.166   7.033  0.4834  0.2778 -0.0708
  125OSM    C7S13295  -0.182   3.140   7.182  0.4381  0.0149  0.5752
  125OSM    H7S13296  -0.194   3.031   7.166 -1.5869  0.5587 -1.9441
  125OSM    H7T13297  -0.279   3.193   7.193  0.5323 -0.0582  1.9034
  125OSM    C8S13298  -0.103   3.177   7.308  0.9927  0.5991  0.0521
  125OSM    H8S13299  -0.102   3.287   7.323 -2.2997  0.5833  0.6550
  125OSM    H8T13300   0.003   3.155   7.281  1.0797  0.7197  0.2966
  125OSM    C9S13301  -0.152   3.117   7.443  0.9017  0.5835  0.7536
  125OSM    H9S13302  -0.162   3.006   7.435 -3.2502  0.7634  1.9197
  125OSM    H9T13303  -0.256   3.153   7.459  0.6215  0.3614 -0.5013
  125OSM   C10S13304  -0.070   3.157   7.561 -0.4022 -0.1862 -0.0298
  125OSM   H10S13305  -0.052   3.267   7.556 -0.5531 -0.1313  0.6229
  125OSM   H10T13306   0.030   3.112   7.543 -0.6561 -0.5197 -0.6364
  125OSM   C11S13307  -0.135   3.118   7.697 -0.5399  0.6302 -0.2373
  125OSM   H11S13308  -0.173   3.015   7.709 -0.4298  0.4036 -1.7008
  125OSM   H11T13309  -0.224   3.185   7.706 -1.7195 -1.1123  1.4175
  125OSM   C12S13310  -0.034   3.159   7.808  0.4593  1.1648 -0.1406
  125OSM   H12S13311  -0.021   3.268   7.791  0.3336  1.4359  1.4380
  125OSM   H12T13312   0.064   3.107   7.803  0.8729  1.9375  0.0114
  125OSM   C13S13313  -0.102   3.152   7.950 -0.0675 -0.1142 -0.0732
  125OSM   H13S13314  -0.132   3.046   7.970 -0.0392 -0.2042 -0.5154
  125OSM   H13T13315  -0.190   3.219   7.949  0.1419  0.1520 -0.8333
  125OSM   C14S13316   0.003   3.206   8.050  0.4937  0.2937  0.4490
  125OSM   H14S13317   0.032   3.309   8.019 -0.5126  0.5334  0.2849
  125OSM   H14T13318   0.098   3.153   8.026  1.1861  1.9926 -0.6772
  125OSM   C15S13319  -0.042   3.192   8.200  0.5812 -0.4775 -0.1800
  125OSM   H15S13320  -0.123   3.267   8.216  2.4175  1.0480  2.4033
  125OSM   H15T13321   0.048   3.209   8.264 -0.1801 -3.0567  1.6988
  125OSM   C16S13322  -0.077   3.054   8.250  0.7354  0.5817 -0.8071
  125OSM   H16S13323   0.006   2.987   8.220 -0.4553 -1.6632  0.7692
  125OSM   H16T13324  -0.174   3.020   8.208  0.2418 -0.1806  0.9038
  125OSM   C17S13325  -0.081   3.040   8.405  0.4287  0.3105 -0.0099
  125OSM   H17S13326   0.017   3.054   8.456  0.6607  1.4037 -0.7472
  125OSM   H17T13327  -0.114   2.937   8.431  2.4520  0.3007  2.7091
  125OSM   C18S13328  -0.178   3.137   8.479  0.2867  0.4274 -0.1689
  125OSM   H18S13329  -0.279   3.131   8.434  0.4698  1.1759 -0.6861
  125OSM   H18T13330  -0.140   3.241   8.470 -0.5835  0.6321 -1.5530
  125OSM   H18U13331  -0.179   3.118   8.589 -2.4803  0.9019 -0.0741
  125OSM    C1F13332  -0.141   2.767   6.606  0.3075  0.0278 -0.7183
  125OSM     OF13333  -0.072   2.759   6.504 -0.3162  0.4439  0.2528
  125OSM    C2F13334  -0.167   2.647   6.695  0.3079  0.3094 -0.2705
  125OSM    H2F13335  -0.278   2.644   6.688  0.3309  0.0948 -0.5294
  125OSM    H2G13336  -0.140   2.668   6.800  1.7960  0.3139 -0.6491
  125OSM    C3F13337  -0.094   2.518   6.658  0.2713 -0.2892  0.0007
  125OSM    H3F13338   0.016   2.525   6.677  0.4865  0.0817 -1.3230
  125OSM    H3G13339  -0.096   2.488   6.551  1.2485  0.9149 -0.3667
  125OSM    C4F13340  -0.157   2.396   6.736  0.5781  0.1660  0.0429
  125OSM    H4F13341  -0.145   2.297   6.688 -0.5436 -0.6246  1.3545
  125OSM    H4G13342  -0.267   2.412   6.731  0.6933  1.1581  0.4983
  125OSM    C5F13343  -0.125   2.386   6.885  0.4419  0.2297  0.1355
  125OSM    H5F13344  -0.203   2.345   6.954 -0.1633  2.6109  0.9095
  125OSM    H5G13345  -0.107   2.489   6.922  0.3664  0.2230  0.1931
  125OSM    C6F13346  -0.003   2.299   6.896  0.0025  0.5644 -0.3296
  125OSM    H6F13347   0.061   2.332   6.811  0.1246  2.4608  0.4782
  125OSM    H6G13348  -0.036   2.194   6.885  0.7491  0.1091  1.6730
  125OSM    C7F13349   0.073   2.310   7.026 -0.3321  0.0251  0.6027
  125OSM    H7F13350   0.129   2.405   7.017 -0.4489 -0.0009 -0.4656
  125OSM    H7G13351   0.144   2.225   7.033 -1.3350 -0.8776 -0.0814
  125OSM    C8F13352  -0.026   2.322   7.141 -0.1537  0.3579  0.4916
  125OSM    H8F13353  -0.112   2.254   7.127 -1.1755  1.8178 -0.4249
  125OSM    H8G13354  -0.074   2.420   7.163  0.2411  0.6190  0.1858
  125OSM    C9F13355   0.049   2.263   7.261  0.4797 -0.4724 -0.1830
  125OSM    H9F13356   0.118   2.181   7.235 -0.7688 -2.4186  2.4586
  125OSM   C10F13357   0.037   2.296   7.389 -0.2543  0.7562  0.2168
  125OSM   H10F13358   0.101   2.249   7.465  2.1185  0.8317 -1.6483
  125OSM   C11F13359  -0.070   2.386   7.449 -0.4454  0.0878  0.2501
  125OSM   H11F13360  -0.157   2.392   7.380  0.1018  0.3849 -0.4150
  125OSM   H11G13361  -0.035   2.492   7.443  1.7558 -0.6320  0.2564
  125OSM   C12F13362  -0.117   2.346   7.591  0.6889  0.2601  0.5262
  125OSM   H12F13363  -0.163   2.245   7.583  1.0571  0.2653 -1.8933
  125OSM   H12G13364  -0.205   2.411   7.614 -1.1067 -1.8003 -0.2811
  125OSM   C13F13365  -0.022   2.362   7.704 -0.0703  0.4101  0.5265
  125OSM   H13F13366   0.034   2.456   7.689  2.0655 -1.2614 -2.5033
  125OSM   H13G13367   0.057   2.284   7.706  0.4553  0.9467  0.4817
  125OSM   C14F13368  -0.102   2.334   7.831  0.3022 -0.8442 -0.6365
  125OSM   H14F13369  -0.129   2.227   7.816  1.6785 -1.4152  0.7909
  125OSM   H14G13370  -0.198   2.389   7.837  0.5698 -0.6391  3.9012
  125OSM   C15F13371  -0.012   2.352   7.953  0.0852  0.0873  0.2688
  125OSM   H15F13372   0.008   2.461   7.955 -1.6340  0.4019  1.7976
  125OSM   H15G13373   0.079   2.292   7.931 -1.0032 -0.8164 -1.8642
  125OSM   C16F13374  -0.072   2.310   8.089  0.1419  0.0973  0.4365
  125OSM   H16F13375  -0.010   2.347   8.174  0.3209  0.1279  0.2927
  125OSM   H16G13376  -0.082   2.199   8.098  1.2614 -0.2206 -1.9560
  125OSM   C17F13377  -0.213   2.359   8.122  0.0428  0.3976  0.1960
  125OSM   H17F13378  -0.291   2.306   8.064  1.6366 -1.3413 -0.4331
  125OSM   H17G13379  -0.222   2.465   8.089  1.2017  0.1085 -1.0981
  125OSM   C18F13380  -0.248   2.338   8.272  0.4023 -0.4690  0.2676
  125OSM   H18F13381  -0.358   2.329   8.284  0.0626  1.6337 -0.8596
  125OSM   H18G13382  -0.193   2.413   8.333 -0.1198  1.2410 -1.3097
  125OSM   H18H13383  -0.206   2.241   8.303 -0.7788 -1.2822 -0.6200
  126OSM      N13384   2.942   0.892   6.565 -0.3581  0.0031 -0.4601
  126OSM    C1513385   2.844   0.791   6.514  0.0046  0.5530 -0.4138
  126OSM   H15A13386   2.746   0.830   6.535  0.9044  2.3725  0.6222
  126OSM   H15B13387   2.858   0.695   6.561 -2.6084 -0.5305 -1.7651
  126OSM   H15C13388   2.853   0.770   6.409 -1.7050  2.5224 -0.9882
  126OSM    C1413389   2.903   1.021   6.503 -0.3189 -0.6512 -0.3279
  126OSM   H14A13390   2.963   1.100   6.546 -3.4352  1.3309  0.5872
  126OSM   H14B13391   2.796   1.026   6.515 -0.0237 -0.1955  2.7008
  126OSM   H14C13392   2.930   1.015   6.399  0.7156 -2.0723  0.0085
  126OSM    C1313393   2.929   0.894   6.721  0.3800  0.6886  0.5786
  126OSM   H13A13394   2.943   0.799   6.769  1.8719 -0.0731 -1.2744
  126OSM   H13B13395   2.825   0.922   6.733 -0.5572 -1.9021 -1.0879
  126OSM   H13C13396   2.984   0.975   6.767  0.3562  0.2058  1.4513
  126OSM    C1213397   3.087   0.850   6.538 -0.1392  0.3447  0.7032
  126OSM   H12A13398   3.149   0.929   6.578 -2.8382  1.3912  3.0131
  126OSM   H12B13399   3.111   0.846   6.433 -1.6435 -3.1153  0.4138
  126OSM    C1113400   3.149   0.717   6.597  0.2101 -0.8424  0.4088
  126OSM   H11A13401   3.106   0.627   6.548  0.7949 -0.2730 -1.1814
  126OSM   H11B13402   3.124   0.709   6.705 -1.2452  2.6581  0.3963
  126OSM      P13403   3.387   0.798   6.677  0.2222 -0.0931 -0.1782
  126OSM    O1313404   3.521   0.751   6.645  0.0051  0.1007 -0.4067
  126OSM    O1413405   3.352   0.944   6.678 -0.1241  0.6539 -0.1421
  126OSM    O1113406   3.348   0.747   6.823  0.0892  0.2674  0.6209
  126OSM    O1213407   3.290   0.723   6.577  0.3478  0.0180  0.3743
  126OSM    C1S13408   3.376   0.613   6.856 -0.4705 -0.2465 -0.3632
  126OSM    H1S13409   3.484   0.588   6.852 -0.1861  0.9974 -0.7871
  126OSM    H1T13410   3.326   0.546   6.783 -0.3118  1.2600 -1.8893
  126OSM     NF13411   3.360   0.455   7.048 -0.2593 -0.6477  0.4500
  126OSM    HNF13412   3.294   0.382   7.037  1.0863 -1.7996 -0.1128
  126OSM    C2S13413   3.325   0.587   7.003 -0.5512 -0.1250  0.1075
  126OSM    H2S13414   3.386   0.657   7.065  1.2476 -1.8838  0.3709
  126OSM    C3S13415   3.174   0.620   7.017 -0.1390  0.7291  0.4284
  126OSM    H3S13416   3.120   0.543   6.960  0.7044 -0.6970  1.5255
  126OSM     O313417   3.138   0.747   6.960 -0.2226 -0.3311 -0.3965
  126OSM    HO313418   3.217   0.786   6.923 -1.9881  2.4942 -1.3984
  126OSM    C4S13419   3.136   0.621   7.166  0.6009 -0.1838  0.8423
  126OSM    H4S13420   3.078   0.534   7.200 -2.2970  1.5548  0.5242
  126OSM    C5S13421   3.166   0.722   7.257  0.4621 -0.4837  0.1728
  126OSM    H5S13422   3.209   0.815   7.217  1.9287 -1.0334  0.4651
  126OSM    C6S13423   3.131   0.722   7.404  0.0823  0.3466 -0.9517
  126OSM    H6S13424   3.022   0.725   7.422  0.6415  1.2300  2.6979
  126OSM    H6T13425   3.186   0.806   7.453 -2.1620  1.9161 -1.0869
  126OSM    C7S13426   3.178   0.598   7.475 -0.0661 -0.6719  0.5182
  126OSM    H7S13427   3.288   0.588   7.466 -0.2070 -1.5362 -0.2256
  126OSM    H7T13428   3.126   0.512   7.427  0.9734 -1.3452  0.5945
  126OSM    C8S13429   3.139   0.598   7.624 -0.3849 -0.3718  0.2268
  126OSM    H8S13430   3.035   0.633   7.640  0.3149  0.9386  2.0472
  126OSM    H8T13431   3.209   0.668   7.675 -0.9713  0.4869 -0.1327
  126OSM    C9S13432   3.161   0.465   7.690 -0.5224 -0.0842 -0.7124
  126OSM    H9S13433   3.270   0.454   7.708 -0.4306  0.2614 -1.0521
  126OSM    H9T13434   3.131   0.386   7.618 -0.0333  0.4788 -1.5406
  126OSM   C10S13435   3.091   0.474   7.824  0.5791  0.2954 -0.2111
  126OSM   H10S13436   2.989   0.513   7.804  0.9761  0.5716 -1.7657
  126OSM   H10T13437   3.138   0.556   7.882 -0.7797  1.2822 -0.4907
  126OSM   C11S13438   3.106   0.344   7.902  0.6544 -0.5903  0.1477
  126OSM   H11S13439   3.206   0.297   7.888  1.5110  1.6952 -1.8833
  126OSM   H11T13440   3.039   0.270   7.854  3.4177 -2.4463 -0.9529
  126OSM   C12S13441   3.067   0.355   8.049  0.0825 -0.0554  0.2867
  126OSM   H12S13442   3.041   0.259   8.099  2.4129 -0.3440  1.0328
  126OSM   H12T13443   2.974   0.416   8.052 -0.1315 -0.4009  0.7517
  126OSM   C13S13444   3.176   0.433   8.139 -0.1734  0.2163  0.2667
  126OSM   H13S13445   3.191   0.538   8.108 -2.9961  0.8097  0.6992
  126OSM   H13T13446   3.273   0.381   8.125  1.0272  1.9974  1.7487
  126OSM   C14S13447   3.128   0.438   8.283 -0.2680  0.3905 -0.7410
  126OSM   H14S13448   3.030   0.489   8.274 -1.3101 -1.5811 -0.7084
  126OSM   H14T13449   3.190   0.507   8.345 -0.9479  1.0295 -0.7752
  126OSM   C15S13450   3.114   0.296   8.361 -0.1450  0.6044 -0.9886
  126OSM   H15S13451   3.214   0.248   8.372  0.2498  1.8072  1.0680
  126OSM   H15T13452   3.064   0.224   8.293 -0.8530 -2.0308  2.1779
  126OSM   C16S13453   3.026   0.300   8.485 -0.3349  0.2630 -0.8053
  126OSM   H16S13454   2.976   0.204   8.508 -0.7523  0.4775 -0.8273
  126OSM   H16T13455   2.950   0.378   8.464 -0.6657  0.0229 -0.4963
  126OSM   C17S13456   3.098   0.358   8.608  0.5027 -0.3616 -0.8497
  126OSM   H17S13457   3.164   0.442   8.578 -1.4175  1.7575  0.6973
  126OSM   H17T13458   3.171   0.281   8.643  0.7806  0.1735 -0.2416
  126OSM   C18S13459   2.999   0.415   8.715  0.8228 -0.1286  0.3689
  126OSM   H18S13460   2.927   0.484   8.665 -2.1227 -2.1830  1.7080
  126OSM   H18T13461   3.054   0.475   8.791  1.4589 -0.0922 -0.1105
  126OSM   H18U13462   2.938   0.337   8.764 -1.1906  0.7656 -0.6600
  126OSM    C1F13463   3.485   0.411   7.072 -0.5923  0.1394  0.2418
  126OSM     OF13464   3.579   0.485   7.076  0.7586 -0.4986 -0.1557
  126OSM    C2F13465   3.498   0.254   7.070 -0.2432 -0.4816 -0.2031
  126OSM    H2F13466   3.590   0.235   7.011 -1.2276 -0.5550 -1.7426
  126OSM    H2G13467   3.425   0.204   7.003  0.9950 -1.3658 -0.9168
  126OSM    C3F13468   3.507   0.180   7.203  0.3715 -0.2717 -0.3396
  126OSM    H3F13469   3.404   0.168   7.242  0.0913  1.0942 -0.6448
  126OSM    H3G13470   3.570   0.242   7.270  0.7416 -1.5513  0.5181
  126OSM    C4F13471   3.561   0.038   7.192  1.0254 -0.4101  0.0382
  126OSM    H4F13472   3.669   0.038   7.165  0.9352  0.1631 -0.3247
  126OSM    H4G13473   3.510  -0.011   7.107  0.0752 -0.2642  0.5215
  126OSM    C5F13474   3.544  -0.032   7.330  0.1320  0.6206 -0.4932
  126OSM    H5F13475   3.560  -0.141   7.318 -0.3737  0.2116  2.2412
  126OSM    H5G13476   3.436  -0.018   7.352  0.4449  1.6850  0.4397
  126OSM    C6F13477   3.629   0.009   7.448  0.0002  0.0722  0.4493
  126OSM    H6F13478   3.633   0.118   7.464 -1.9690 -0.2730  3.7230
  126OSM    H6G13479   3.734  -0.027   7.437  0.2207  1.2982 -1.7301
  126OSM    C7F13480   3.577  -0.057   7.578 -0.4224  0.4625  0.5759
  126OSM    H7F13481   3.644  -0.137   7.616 -0.3055  0.5331  0.5190
  126OSM    H7G13482   3.488  -0.115   7.546  1.6547 -0.2597 -4.3336
  126OSM    C8F13483   3.568   0.039   7.693  0.3819 -0.1640 -0.1166
  126OSM    H8F13484   3.649   0.113   7.675  0.3112  0.4512  2.0376
  126OSM    H8G13485   3.585  -0.022   7.784  1.4770  0.5727  0.1761
  126OSM    C9F13486   3.433   0.103   7.700  0.4213  0.3552  0.2069
  126OSM    H9F13487   3.428   0.175   7.617 -0.1081  2.2192  1.8127
  126OSM   C10F13488   3.335   0.082   7.797 -0.5315  0.3461  0.5392
  126OSM   H10F13489   3.239   0.135   7.792  0.8663  2.9981  0.9101
  126OSM   C11F13490   3.338  -0.026   7.907  0.7043  0.1663  1.5559
  126OSM   H11F13491   3.412  -0.104   7.879  0.8120  0.0251  2.2402
  126OSM   H11G13492   3.244  -0.085   7.909  0.0534  1.1320  0.3796
  126OSM   C12F13493   3.379   0.017   8.049  0.0753  0.1360 -0.0889
  126OSM   H12F13494   3.317   0.103   8.085 -0.9293 -0.4645 -0.3534
  126OSM   H12G13495   3.486   0.046   8.054  0.0452  0.4172 -0.9396
  126OSM   C13F13496   3.358  -0.099   8.149  0.4994 -0.6103 -0.0570
  126OSM   H13F13497   3.425  -0.184   8.126  1.7973  0.8041 -1.6422
  126OSM   H13G13498   3.254  -0.137   8.146 -0.1030  1.1112 -2.4589
  126OSM   C14F13499   3.378  -0.065   8.303 -0.4828 -0.1721  0.1061
  126OSM   H14F13500   3.356  -0.147   8.374  0.4548 -0.4619  0.0711
  126OSM   H14G13501   3.310   0.018   8.331  1.5869  1.3420  0.8009
  126OSM   C15F13502   3.527  -0.027   8.344 -0.6960 -0.2181  0.0481
  126OSM   H15F13503   3.561   0.062   8.288 -2.8871 -0.4022 -1.6385
  126OSM   H15G13504   3.580  -0.122   8.321  1.2753  1.6718 -3.5755
  126OSM   C16F13505   3.546   0.002   8.491  0.0861  0.4196 -1.3403
  126OSM   H16F13506   3.654   0.018   8.514 -0.0362  0.9591 -1.1290
  126OSM   H16G13507   3.505  -0.078   8.556  3.1404  0.6716  1.0245
  126OSM   C17F13508   3.482   0.137   8.530 -0.2104  0.9511  0.7586
  126OSM   H17F13509   3.444   0.151   8.634  2.1793 -0.1860  1.8270
  126OSM   H17G13510   3.388   0.146   8.470 -0.9086 -0.5575  1.6022
  126OSM   C18F13511   3.564   0.256   8.492  0.2800 -0.2988  0.7257
  126OSM   H18F13512   3.502   0.339   8.452  1.8066  0.4326 -0.1457
  126OSM   H18G13513   3.644   0.238   8.417  0.7754 -0.1897  1.2277
  126OSM   H18H13514   3.623   0.288   8.580  2.8117  0.9975 -1.3665
  127OSM      N13515   2.175   1.720   5.933 -0.9333 -0.5565 -0.9640
  127OSM    C1513516   2.263   1.833   5.956 -0.0848 -0.9143 -0.7950
  127OSM   H15A13517   2.307   1.822   6.054 -1.6297  1.3892  0.2005
  127OSM   H15B13518   2.203   1.921   5.972 -0.1379 -1.0442 -0.2886
  127OSM   H15C13519   2.331   1.864   5.877  0.7879  0.5021  0.4798
  127OSM    C1413520   2.120   1.721   5.795  0.0890  0.5308  0.4872
  127OSM   H14A13521   2.068   1.811   5.763 -0.1491 -0.3938 -1.8556
  127OSM   H14B13522   2.051   1.639   5.779  2.0438 -0.8603 -1.0446
  127OSM   H14C13523   2.190   1.702   5.715 -0.3251  0.6991  0.0809
  127OSM    C1313524   2.251   1.585   5.951  0.0592 -0.7290 -0.1449
  127OSM   H13A13525   2.278   1.566   6.054  0.4347  0.1124 -0.0887
  127OSM   H13B13526   2.343   1.595   5.895  0.1064 -1.6483 -0.2445
  127OSM   H13C13527   2.191   1.497   5.934 -0.8337 -0.5046  1.7932
  127OSM    C1213528   2.063   1.726   6.033 -0.7966  0.9428 -0.3724
  127OSM   H12A13529   1.994   1.649   6.001  1.3218 -1.4491  0.5704
  127OSM   H12B13530   2.025   1.826   6.020 -3.1682  0.1459  0.1300
  127OSM    C1113531   2.097   1.711   6.178 -0.5022 -0.2776 -0.5871
  127OSM   H11A13532   2.167   1.626   6.190  0.1012  0.3305  0.2852
  127OSM   H11B13533   2.007   1.695   6.241 -0.9848  1.8923 -0.6680
  127OSM      P13534   2.114   1.954   6.290 -0.1710  0.2003 -0.2416
  127OSM    O1313535   2.225   2.004   6.368  0.4844 -0.3146  0.0474
  127OSM    O1413536   2.052   2.046   6.190 -0.0334  0.1948  0.4493
  127OSM    O1113537   2.004   1.907   6.390  0.1223  0.2730  0.1520
  127OSM    O1213538   2.164   1.828   6.221 -0.1031 -0.1403 -0.0563
  127OSM    C1S13539   2.035   1.806   6.490 -0.9042 -0.2959  0.0116
  127OSM    H1S13540   2.128   1.755   6.456 -0.7340 -0.7797  1.1851
  127OSM    H1T13541   1.949   1.737   6.499 -0.1018 -0.7729  5.2501
  127OSM     NF13542   2.086   1.762   6.716  0.8991 -0.6995  0.0360
  127OSM    HNF13543   2.007   1.735   6.769  0.6467  0.6107  0.3574
  127OSM    C2S13544   2.058   1.872   6.623  0.0955  0.1474 -0.3577
  127OSM    H2S13545   2.151   1.934   6.622  0.2411 -0.0801 -2.1819
  127OSM    C3S13546   1.941   1.960   6.663 -0.8984  1.0406 -0.4513
  127OSM    H3S13547   1.859   1.885   6.668 -0.3145  0.3566 -1.1925
  127OSM     O313548   1.891   2.052   6.574 -0.2229  0.5690  0.3966
  127OSM    HO313549   1.938   2.045   6.490 -2.8128 -1.2544 -0.9405
  127OSM    C4S13550   1.968   2.025   6.801  0.5488 -0.3683 -0.3491
  127OSM    H4S13551   1.970   1.955   6.886  0.8164 -2.8866 -2.3824
  127OSM    C5S13552   1.990   2.156   6.826  0.2307 -0.2300 -0.1409
  127OSM    H5S13553   1.990   2.226   6.742  4.0724 -3.2064 -2.7561
  127OSM    C6S13554   2.021   2.221   6.953  0.6081  0.3531  0.2380
  127OSM    H6S13555   2.040   2.143   7.029  0.4867 -0.5912 -0.6954
  127OSM    H6T13556   1.928   2.273   6.984  0.6870  0.1344  0.8356
  127OSM    C7S13557   2.138   2.318   6.935 -0.1007  0.3524  0.3258
  127OSM    H7S13558   2.116   2.403   6.866 -0.3110  2.2102  2.6057
  127OSM    H7T13559   2.228   2.264   6.901  1.1423  3.1585 -1.0602
  127OSM    C8S13560   2.180   2.368   7.077 -0.2515 -0.1802 -0.2175
  127OSM    H8S13561   2.166   2.285   7.150 -1.2469  0.4052  0.2625
  127OSM    H8T13562   2.097   2.434   7.109 -0.6214 -1.3297  1.2650
  127OSM    C9S13563   2.319   2.433   7.091  0.2838 -0.2167 -0.2981
  127OSM    H9S13564   2.321   2.529   7.034 -0.5863  0.3947  0.6741
  127OSM    H9T13565   2.394   2.366   7.045  1.1652 -0.4168  1.4101
  127OSM   C10S13566   2.371   2.468   7.237  0.2461  0.4270  0.3600
  127OSM   H10S13567   2.283   2.494   7.300  0.2270 -0.4012  0.6864
  127OSM   H10T13568   2.459   2.536   7.241  1.2052 -0.7984  0.4516
  127OSM   C11S13569   2.430   2.329   7.299 -0.2256  0.3725 -0.0374
  127OSM   H11S13570   2.499   2.271   7.234 -0.5546  1.7877 -1.7148
  127OSM   H11T13571   2.339   2.265   7.297 -2.5092  3.3970  2.4774
  127OSM   C12S13572   2.479   2.349   7.442 -0.3667  0.4211 -0.1677
  127OSM   H12S13573   2.394   2.402   7.490 -0.4221  0.5344 -0.3879
  127OSM   H12T13574   2.573   2.407   7.433  0.8352 -1.6899 -1.6336
  127OSM   C13S13575   2.500   2.216   7.518  0.1292 -0.7115  0.3419
  127OSM   H13S13576   2.573   2.244   7.597  1.5345 -2.8583 -0.1446
  127OSM   H13T13577   2.553   2.153   7.443 -1.8000 -3.0345  0.8631
  127OSM   C14S13578   2.375   2.145   7.573  0.8424  0.1543  0.5523
  127OSM   H14S13579   2.311   2.108   7.490  1.9718  1.6709 -1.0322
  127OSM   H14T13580   2.308   2.217   7.625  0.9152  1.6059 -1.3050
  127OSM   C15S13581   2.401   2.039   7.684  0.3739 -0.4656 -0.1514
  127OSM   H15S13582   2.306   1.997   7.724 -0.4282  2.2552  0.9243
  127OSM   H15T13583   2.451   2.095   7.765 -2.2323  2.2138 -0.2911
  127OSM   C16S13584   2.507   1.930   7.638  0.5000  0.2496  0.2073
  127OSM   H16S13585   2.607   1.976   7.626  0.6702 -0.7936 -3.0670
  127OSM   H16T13586   2.473   1.899   7.537 -0.3142 -1.5073  0.9874
  127OSM   C17S13587   2.505   1.805   7.729 -0.4929  0.2847 -1.4670
  127OSM   H17S13588   2.572   1.730   7.683  1.9808  1.8668 -0.5255
  127OSM   H17T13589   2.406   1.755   7.719  0.3309 -1.3694 -1.3754
  127OSM   C18S13590   2.550   1.831   7.876  0.3108  0.4007  0.4900
  127OSM   H18S13591   2.636   1.901   7.866  1.1195 -0.4565  1.3586
  127OSM   H18T13592   2.602   1.744   7.922  0.2383  0.1608  0.1216
  127OSM   H18U13593   2.471   1.860   7.948  0.3772  1.1237  0.2742
  127OSM    C1F13594   2.204   1.694   6.723  0.8021  0.1153 -0.5243
  127OSM     OF13595   2.283   1.687   6.630 -0.6024 -0.0074  0.0928
  127OSM    C2F13596   2.234   1.632   6.852  0.6466 -0.3158 -0.8499
  127OSM    H2F13597   2.147   1.569   6.878 -0.8938  1.1750 -2.3096
  127OSM    H2G13598   2.250   1.704   6.936  1.7113 -0.7403 -0.6687
  127OSM    C3F13599   2.369   1.553   6.849 -0.2967 -0.4214  0.1243
  127OSM    H3F13600   2.454   1.624   6.840 -0.4223  0.1556  3.0196
  127OSM    H3G13601   2.378   1.485   6.762  1.7537 -1.8664  1.4256
  127OSM    C4F13602   2.395   1.457   6.968  0.2437  0.3837 -0.0535
  127OSM    H4F13603   2.477   1.391   6.935  0.9667  1.1993  0.0777
  127OSM    H4G13604   2.300   1.400   6.972  0.7848 -0.5348 -0.2865
  127OSM    C5F13605   2.431   1.524   7.098 -0.5407 -0.4802  0.4220
  127OSM    H5F13606   2.366   1.607   7.132  0.2501 -0.2020  1.2824
  127OSM    H5G13607   2.525   1.580   7.081 -1.2778  0.1312 -1.7917
  127OSM    C6F13608   2.455   1.416   7.200 -0.3713  0.4539 -0.2575
  127OSM    H6F13609   2.535   1.349   7.163  1.4953  1.5698  1.6648
  127OSM    H6G13610   2.361   1.357   7.208 -0.0909 -0.0321 -0.5299
  127OSM    C7F13611   2.510   1.478   7.329 -0.0139 -0.2162  0.2001
  127OSM    H7F13612   2.457   1.575   7.339 -0.3761 -0.4580  0.6174
  127OSM    H7G13613   2.616   1.505   7.310  1.3600 -2.2888  4.3291
  127OSM    C8F13614   2.482   1.392   7.452  0.0387  0.6327 -0.2410
  127OSM    H8F13615   2.509   1.453   7.540 -1.4590 -0.1800  0.8059
  127OSM    H8G13616   2.552   1.306   7.448  0.8898  1.2330  1.4446
  127OSM    C9F13617   2.332   1.347   7.456 -0.3306  0.2250 -0.6237
  127OSM    H9F13618   2.313   1.248   7.413 -1.1050  0.0679  0.0600
  127OSM   C10F13619   2.229   1.416   7.510  0.4721  0.1538  0.0078
  127OSM   H10F13620   2.127   1.386   7.483  0.0649  2.2021 -0.8087
  127OSM   C11F13621   2.239   1.549   7.572 -0.7763  0.2250  0.0880
  127OSM   H11F13622   2.345   1.579   7.576 -0.5945 -0.5852  2.0447
  127OSM   H11G13623   2.216   1.527   7.679  1.2617 -0.3248  0.4259
  127OSM   C12F13624   2.141   1.642   7.493 -0.7926  0.4096  0.4131
  127OSM   H12F13625   2.039   1.622   7.532 -1.0494 -1.0177 -0.9489
  127OSM   H12G13626   2.140   1.616   7.385 -1.0399  1.0174  0.2649
  127OSM   C13F13627   2.188   1.790   7.502 -0.2139 -0.3849  0.0458
  127OSM   H13F13628   2.298   1.780   7.504 -0.3687 -2.9142 -1.5008
  127OSM   H13G13629   2.149   1.851   7.586 -0.3016  0.9808 -0.9768
  127OSM   C14F13630   2.137   1.859   7.372  0.2148  0.2429  0.6044
  127OSM   H14F13631   2.138   1.966   7.400 -2.8380  0.3989  0.2349
  127OSM   H14G13632   2.028   1.853   7.352  0.4104  1.0841 -0.7818
  127OSM   C15F13633   2.221   1.837   7.249  0.5648  0.2822 -0.7562
  127OSM   H15F13634   2.187   1.904   7.166  0.6281  0.6241 -0.5042
  127OSM   H15G13635   2.198   1.737   7.207  1.3822  0.1027 -0.7849
  127OSM   C16F13636   2.366   1.858   7.272  0.1657 -0.4297 -0.0068
  127OSM   H16F13637   2.393   1.769   7.334 -1.8463 -0.3622  1.0138
  127OSM   H16G13638   2.382   1.954   7.325 -1.8348  1.0497 -2.0355
  127OSM   C17F13639   2.458   1.876   7.150 -0.0416  0.3712  0.0806
  127OSM   H17F13640   2.437   1.800   7.072  1.7994  0.9424 -1.0247
  127OSM   H17G13641   2.564   1.857   7.179 -0.6471 -0.7674  1.5817
  127OSM   C18F13642   2.434   2.010   7.078 -0.4848 -0.4580  0.2951
  127OSM   H18F13643   2.348   2.007   7.008 -0.3624 -0.7780  0.1598
  127OSM   H18G13644   2.522   2.027   7.013 -1.0563 -0.2299 -0.4356
  127OSM   H18H13645   2.423   2.080   7.164 -2.0831 -1.6924  1.1360
  128OSM      N13646   1.789   5.397   6.098  0.3204 -0.1025 -0.1626
  128OSM    C1513647   1.914   5.434   6.022 -0.0173 -0.3564 -0.8000
  128OSM   H15A13648   1.936   5.358   5.949  3.1505 -1.3649  1.0902
  128OSM   H15B13649   1.992   5.432   6.097 -1.1284  0.7857  0.4173
  128OSM   H15C13650   1.915   5.530   5.973 -0.0965 -1.7084 -3.5360
  128OSM    C1413651   1.686   5.379   5.991  0.0690  0.7249 -0.0486
  128OSM   H14A13652   1.590   5.355   6.033  0.8373 -3.4445 -0.4256
  128OSM   H14B13653   1.703   5.306   5.913 -1.0341  1.8456 -1.3674
  128OSM   H14C13654   1.668   5.468   5.933  0.1838  2.0861  1.9568
  128OSM    C1313655   1.806   5.262   6.165  0.6226 -0.2997  0.0608
  128OSM   H13A13656   1.727   5.241   6.236  0.9933 -3.4607 -0.3876
  128OSM   H13B13657   1.897   5.264   6.222 -0.7745  0.6008  2.3401
  128OSM   H13C13658   1.815   5.183   6.092 -0.7482  0.2137 -0.6893
  128OSM    C1213659   1.756   5.505   6.205 -0.2959 -0.2033  0.7215
  128OSM   H12A13660   1.658   5.490   6.248 -0.4414 -1.3619  0.0023
  128OSM   H12B13661   1.749   5.597   6.148 -1.7936 -0.7331  0.0145
  128OSM    C1113662   1.869   5.530   6.307 -0.1418  0.4268  0.3812
  128OSM   H11A13663   1.890   5.436   6.363  0.1113  0.2273 -0.0447
  128OSM   H11B13664   1.825   5.599   6.382 -0.0985  1.8826 -0.9234
  128OSM      P13665   2.030   5.724   6.221  0.2943  0.1366  0.3240
  128OSM    O1313666   2.164   5.729   6.148  0.3826  0.4152 -0.1705
  128OSM    O1413667   1.915   5.800   6.159 -0.3792 -0.3081  0.2558
  128OSM    O1113668   2.052   5.778   6.366  0.1452  0.3282  1.2164
  128OSM    O1213669   1.990   5.572   6.245  0.8206  0.5665  0.1050
  128OSM    C1S13670   2.134   5.713   6.459  0.3167 -0.2378 -0.0058
  128OSM    H1S13671   2.233   5.702   6.410  0.6533  1.3790  0.2662
  128OSM    H1T13672   2.093   5.611   6.473  0.7848 -0.5863 -1.1053
  128OSM     NF13673   2.238   5.723   6.686 -0.8430  0.3168  0.3754
  128OSM    HNF13674   2.183   5.676   6.755  1.4908  0.5492  2.4733
  128OSM    C2S13675   2.152   5.797   6.590  1.1752  0.2404  0.6117
  128OSM    H2S13676   2.213   5.883   6.556  1.8101  0.1020  1.3884
  128OSM    C3S13677   2.017   5.833   6.652  0.2672  0.7684 -0.3361
  128OSM    H3S13678   1.967   5.741   6.688 -0.4728  2.1908  2.3942
  128OSM     O313679   1.928   5.906   6.574  0.2663  0.3623  0.0304
  128OSM    HO313680   1.971   5.909   6.488 -0.8924 -0.4721 -0.5978
  128OSM    C4S13681   2.032   5.910   6.780 -0.4396 -0.1575 -0.4546
  128OSM    H4S13682   2.096   5.999   6.776 -0.6088 -0.0021  0.2922
  128OSM    C5S13683   1.986   5.877   6.902  0.5504 -0.5465  0.3948
  128OSM    H5S13684   1.927   5.784   6.911 -0.5954 -0.1041 -1.9825
  128OSM    C6S13685   2.015   5.959   7.022  0.2676  0.1600 -0.7937
  128OSM    H6S13686   1.993   6.066   7.000 -1.8521  0.1956  1.3600
  128OSM    H6T13687   2.124   5.952   7.044 -0.2899 -2.8976  1.2127
  128OSM    C7S13688   1.939   5.910   7.146 -0.3887  0.2143  0.6357
  128OSM    H7S13689   1.959   5.801   7.157 -0.2575  0.3282  1.5766
  128OSM    H7T13690   1.830   5.926   7.131 -0.6369  0.4480  2.5496
  128OSM    C8S13691   1.985   5.988   7.273 -0.2886  0.4934 -0.5501
  128OSM    H8S13692   1.959   6.095   7.255 -0.0324  0.3487 -1.8189
  128OSM    H8T13693   2.096   5.992   7.276 -0.1771 -1.1645 -1.7128
  128OSM    C9S13694   1.937   5.916   7.400 -0.8722  0.1954  0.5224
  128OSM    H9S13695   1.980   5.814   7.394  0.4897  0.7302  0.8778
  128OSM    H9T13696   1.827   5.908   7.391 -0.9903  0.4120  1.7520
  128OSM   C10S13697   1.972   5.985   7.531  0.1306  0.2140  0.9580
  128OSM   H10S13698   1.896   6.064   7.548  0.2831  0.4555  0.5122
  128OSM   H10T13699   2.067   6.042   7.527  0.2834 -0.1212 -0.4454
  128OSM   C11S13700   1.973   5.902   7.661 -0.2152  0.0363 -0.0271
  128OSM   H11S13701   2.048   5.820   7.657  0.7033  0.9137 -1.1928
  128OSM   H11T13702   1.870   5.862   7.670 -0.5222  0.1194 -2.6848
  128OSM   C12S13703   2.000   6.005   7.773  0.0316  0.0682  0.0958
  128OSM   H12S13704   1.914   6.076   7.774  1.3624  1.7032  1.6644
  128OSM   H12T13705   2.091   6.065   7.755  0.7629 -1.4228 -1.3075
  128OSM   C13S13706   2.007   5.942   7.912  0.2632  0.2184 -0.0778
  128OSM   H13S13707   2.061   5.845   7.909 -0.2151 -0.0636  0.3828
  128OSM   H13T13708   1.905   5.921   7.947  0.1783 -1.8299 -1.4914
  128OSM   C14S13709   2.081   6.037   8.011  0.5276 -0.2747 -0.2120
  128OSM   H14S13710   2.052   6.144   8.022  1.3674  0.0904 -1.3836
  128OSM   H14T13711   2.181   6.056   7.964  0.0346  0.8107 -0.8535
  128OSM   C15S13712   2.099   5.975   8.149 -0.1972  0.3693  0.6181
  128OSM   H15S13713   2.198   6.011   8.181  0.7757 -0.2410 -1.5712
  128OSM   H15T13714   2.118   5.866   8.136 -0.2577  0.1693  2.1006
  128OSM   C16S13715   1.989   6.015   8.247  0.1526 -0.1572 -0.2098
  128OSM   H16S13716   1.891   5.984   8.206 -1.5750  1.9963  2.1680
  128OSM   H16T13717   1.989   6.125   8.259 -0.8546 -0.2358  0.5406
  128OSM   C17S13718   2.010   5.942   8.385  0.6663  0.0266 -0.4417
  128OSM   H17S13719   2.116   5.949   8.420 -0.1393  0.1776  2.1030
  128OSM   H17T13720   1.982   5.836   8.373 -1.6905  0.7186 -1.2056
  128OSM   C18S13721   1.901   5.995   8.478 -0.3083  0.1399  0.0012
  128OSM   H18S13722   1.907   5.955   8.582  1.3275 -0.9815 -0.5031
  128OSM   H18T13723   1.799   5.992   8.435  0.8402  0.8480 -2.9322
  128OSM   H18U13724   1.932   6.102   8.488 -0.6224  0.3425 -1.2084
  128OSM    C1F13725   2.365   5.695   6.677  0.9631 -0.1560 -1.0093
  128OSM     OF13726   2.423   5.723   6.572 -0.3063  0.7258  0.9927
  128OSM    C2F13727   2.414   5.612   6.788 -0.8007  0.3075 -0.5747
  128OSM    H2F13728   2.377   5.507   6.780 -1.6268  0.7883 -3.2635
  128OSM    H2G13729   2.373   5.645   6.886 -1.3491 -0.2152 -0.6291
  128OSM    C3F13730   2.573   5.617   6.795  0.0805 -0.6324  0.1929
  128OSM    H3F13731   2.602   5.724   6.804  0.0385 -0.7595  2.0954
  128OSM    H3G13732   2.613   5.574   6.701  0.0358  0.0992 -0.1628
  128OSM    C4F13733   2.624   5.539   6.906 -0.0929  0.1483  0.5139
  128OSM    H4F13734   2.734   5.532   6.909 -0.0835 -4.7905 -3.7548
  128OSM    H4G13735   2.593   5.432   6.896  1.3817 -0.2482  0.0409
  128OSM    C5F13736   2.580   5.584   7.045  0.3008 -0.2754 -1.0432
  128OSM    H5F13737   2.470   5.591   7.061  0.6306  3.1984  0.2217
  128OSM    H5G13738   2.623   5.686   7.049  0.1123 -0.2611  3.2924
  128OSM    C6F13739   2.643   5.528   7.172 -0.4306 -0.6435  0.1571
  128OSM    H6F13740   2.752   5.545   7.169 -0.4312 -0.6977 -0.1939
  128OSM    H6G13741   2.621   5.421   7.156 -1.1337 -0.7058  1.4456
  128OSM    C7F13742   2.583   5.599   7.295  0.1087  0.3205 -0.2799
  128OSM    H7F13743   2.473   5.589   7.293  0.1469 -0.3954  0.8853
  128OSM    H7G13744   2.625   5.701   7.289 -1.8375  1.0208 -2.6757
  128OSM    C8F13745   2.637   5.547   7.426  0.4136 -0.5422 -0.8764
  128OSM    H8F13746   2.602   5.611   7.510  1.1445 -1.5581  0.2117
  128OSM    H8G13747   2.748   5.554   7.426  0.4263 -0.4531  1.1140
  128OSM    C9F13748   2.607   5.401   7.450 -0.5088  0.2660 -0.2654
  128OSM    H9F13749   2.673   5.330   7.398 -0.8563 -1.5019  1.6299
  128OSM   C10F13750   2.512   5.352   7.524  0.4167 -0.3909 -1.0118
  128OSM   H10F13751   2.489   5.245   7.517  1.2160 -0.7560  1.3709
  128OSM   C11F13752   2.414   5.420   7.613  0.4516 -0.7396  0.3756
  128OSM   H11F13753   2.311   5.396   7.578  0.5192  0.6307 -0.8193
  128OSM   H11G13754   2.431   5.529   7.620  2.0349 -1.0349  1.3692
  128OSM   C12F13755   2.434   5.367   7.759 -0.4156  0.5952 -0.0858
  128OSM   H12F13756   2.543   5.359   7.775 -0.2100  4.4378  0.6966
  128OSM   H12G13757   2.386   5.266   7.762  1.2071 -0.1559  1.7279
  128OSM   C13F13758   2.370   5.451   7.868 -0.0564  0.2942 -0.3964
  128OSM   H13F13759   2.283   5.498   7.817 -0.1636  0.8094  0.2515
  128OSM   H13G13760   2.434   5.538   7.893  0.4385 -0.0839 -0.3448
  128OSM   C14F13761   2.335   5.375   8.002  0.5160 -0.0918 -0.4171
  128OSM   H14F13762   2.431   5.334   8.041  0.7625 -1.5864 -2.5024
  128OSM   H14G13763   2.273   5.289   7.970 -0.2756 -0.3409  1.7424
  128OSM   C15F13764   2.262   5.463   8.106 -0.7701  0.1612  0.1024
  128OSM   H15F13765   2.179   5.516   8.054  0.0305 -1.1296 -2.5765
  128OSM   H15G13766   2.341   5.534   8.138 -0.3857 -0.0876 -0.2951
  128OSM   C16F13767   2.202   5.378   8.222 -0.1210  0.6877 -0.4312
  128OSM   H16F13768   2.120   5.312   8.186  1.1183 -1.1938  0.1174
  128OSM   H16G13769   2.158   5.447   8.297 -0.1039  0.3805 -0.1423
  128OSM   C17F13770   2.312   5.294   8.290  0.0736 -0.0923 -0.5693
  128OSM   H17F13771   2.375   5.231   8.224  2.4352 -0.1926  1.7046
  128OSM   H17G13772   2.252   5.219   8.347 -1.5285  0.8433 -0.9916
  128OSM   C18F13773   2.393   5.389   8.391  0.6356  0.3205 -0.4367
  128OSM   H18F13774   2.361   5.382   8.498  0.5736  1.8102 -0.3363
  128OSM   H18G13775   2.380   5.495   8.361  0.1995  0.9669  1.8763
  128OSM   H18H13776   2.502   5.377   8.376  0.4225 -1.4922 -0.5744
  129OSM      N13777   6.170   0.167   6.108 -0.0133 -0.2240  0.8951
  129OSM    C1513778   6.064   0.271   6.120  0.0299  0.7406 -0.3038
  129OSM   H15A13779   6.025   0.255   6.219 -2.0844 -0.9335 -1.3689
  129OSM   H15B13780   5.994   0.272   6.038  2.1021 -1.3463 -2.1692
  129OSM   H15C13781   6.092   0.375   6.121 -1.8804  1.2761  1.6619
  129OSM    C1413782   6.105   0.036   6.097 -0.1158 -0.1708  0.2440
  129OSM   H14A13783   6.184  -0.037   6.096 -0.1250 -0.1765 -0.1002
  129OSM   H14B13784   6.047   0.023   6.007 -0.2460 -0.9399  0.4351
  129OSM   H14C13785   6.045   0.023   6.187 -0.6955  0.0046 -0.1168
  129OSM    C1313786   6.258   0.203   5.993  0.2836  0.4579 -0.7317
  129OSM   H13A13787   6.343   0.140   5.973 -0.2207 -0.6107  0.3432
  129OSM   H13B13788   6.300   0.301   6.005  1.9201 -0.1472 -1.4448
  129OSM   H13C13789   6.196   0.202   5.905 -0.1960 -0.7207 -0.3954
  129OSM    C1213790   6.249   0.170   6.234 -0.2745 -0.5497 -0.3672
  129OSM   H12A13791   6.190   0.121   6.311 -2.8620  0.0642 -1.9193
  129OSM   H12B13792   6.255   0.272   6.269  1.6325 -0.3871 -1.0913
  129OSM    C1113793   6.388   0.107   6.242  0.1646  0.1599 -0.5616
  129OSM   H11A13794   6.386   0.011   6.186  1.3150  0.4691 -1.1708
  129OSM   H11B13795   6.412   0.088   6.348 -0.6518  2.2808  0.0180
  129OSM      P13796   6.563   0.299   6.254 -0.5621  0.2857 -0.2769
  129OSM    O1313797   6.668   0.347   6.161  0.8032  0.6235 -0.4315
  129OSM    O1413798   6.464   0.396   6.308  0.2327 -1.7021 -0.1869
  129OSM    O1113799   6.628   0.217   6.372 -0.4731 -0.9044  0.5529
  129OSM    O1213800   6.488   0.192   6.182 -0.6262 -0.2734  0.0468
  129OSM    C1S13801   6.757   0.252   6.428  0.1511 -0.3663  0.4315
  129OSM    H1S13802   6.812   0.319   6.359 -1.6677  2.5184  1.6460
  129OSM    H1T13803   6.804   0.153   6.442  0.2464 -0.3771  0.0314
  129OSM     NF13804   6.880   0.344   6.632  0.2455  0.1069  0.1707
  129OSM    HNF13805   6.912   0.283   6.705  1.0788 -0.1720 -0.4238
  129OSM    C2S13806   6.749   0.316   6.572  0.4658  0.3756 -0.9881
  129OSM    H2S13807   6.704   0.417   6.562 -0.9167 -0.1695 -0.4026
  129OSM    C3S13808   6.645   0.226   6.658 -0.4335 -0.7437  0.6418
  129OSM    H3S13809   6.678   0.121   6.659  1.8731 -0.0714 -1.4782
  129OSM     O313810   6.513   0.226   6.606  0.6359  0.0366 -0.1509
  129OSM    HO313811   6.539   0.198   6.518  1.6963  0.1666  0.1095
  129OSM    C4S13812   6.627   0.288   6.799 -0.4600 -0.2769  0.5007
  129OSM    H4S13813   6.566   0.379   6.811 -0.7980 -0.7518  2.4835
  129OSM    C5S13814   6.680   0.231   6.906 -0.8161 -0.6331 -0.0735
  129OSM    H5S13815   6.738   0.139   6.884 -1.3026 -0.9003 -0.2517
  129OSM    C6S13816   6.672   0.282   7.043  0.1738 -0.4932  0.2375
  129OSM    H6S13817   6.617   0.208   7.105 -1.7881 -0.4290 -1.3581
  129OSM    H6T13818   6.608   0.372   7.055  1.4978  0.5941 -0.7463
  129OSM    C7S13819   6.809   0.313   7.109  0.3237  0.4859 -0.8923
  129OSM    H7S13820   6.857   0.216   7.130  1.1728  0.6275 -2.0926
  129OSM    H7T13821   6.796   0.368   7.205 -1.3678 -0.4859 -0.5515
  129OSM    C8S13822   6.903   0.411   7.028  0.1622 -0.2302  0.0379
  129OSM    H8S13823   6.840   0.494   6.989  1.3909  1.1449  0.9304
  129OSM    H8T13824   6.947   0.368   6.935  1.5685  1.4640 -0.1087
  129OSM    C9S13825   7.012   0.465   7.114 -0.3642 -0.3778 -0.1737
  129OSM    H9S13826   6.978   0.497   7.214 -1.6036 -1.2486 -0.3063
  129OSM    H9T13827   7.055   0.560   7.076 -0.9375  0.8822  2.2169
  129OSM   C10S13828   7.119   0.360   7.133  0.4911  0.1917 -0.5584
  129OSM   H10S13829   7.159   0.320   7.038 -0.9492 -0.9115 -0.7180
  129OSM   H10T13830   7.079   0.281   7.201  0.1376 -0.1807 -1.1943
  129OSM   C11S13831   7.245   0.411   7.216  0.2655  0.1989  0.0195
  129OSM   H11S13832   7.288   0.497   7.161 -1.9963  0.7784 -0.9105
  129OSM   H11T13833   7.326   0.339   7.235 -0.6163 -0.2995  2.1529
  129OSM   C12S13834   7.209   0.446   7.364  0.1291 -0.1206 -0.3532
  129OSM   H12S13835   7.163   0.362   7.420 -0.6500  1.6197  1.6747
  129OSM   H12T13836   7.128   0.522   7.359 -0.9311 -1.1618  0.4581
  129OSM   C13S13837   7.317   0.520   7.437 -0.5156 -0.1353  0.5630
  129OSM   H13S13838   7.337   0.619   7.389 -1.9217  0.1985  0.6409
  129OSM   H13T13839   7.413   0.465   7.435  0.3735  1.4068 -1.4793
  129OSM   C14S13840   7.275   0.547   7.588  0.2062  0.0421 -0.2442
  129OSM   H14S13841   7.355   0.618   7.619  0.4130 -0.0155 -0.6354
  129OSM   H14T13842   7.287   0.459   7.654 -1.0417 -0.9601 -1.3197
  129OSM   C15S13843   7.138   0.620   7.614 -0.2796 -0.1406 -0.2892
  129OSM   H15S13844   7.050   0.554   7.594 -1.0836  0.5161  0.9896
  129OSM   H15T13845   7.117   0.712   7.555  0.0361 -0.1542 -0.4245
  129OSM   C16S13846   7.129   0.652   7.768 -0.5528  0.3671  1.0418
  129OSM   H16S13847   7.221   0.714   7.762  0.0410 -0.6475 -0.5578
  129OSM   H16T13848   7.154   0.561   7.826  1.6721  0.0276 -0.4358
  129OSM   C17S13849   7.003   0.721   7.820  0.4491 -0.2682  0.3808
  129OSM   H17S13850   7.003   0.824   7.777 -0.1403  0.4700  2.1317
  129OSM   H17T13851   7.015   0.736   7.929  0.7397 -1.2716  0.4847
  129OSM   C18S13852   6.870   0.647   7.801  0.1113  0.3948 -0.1765
  129OSM   H18S13853   6.837   0.647   7.694  1.1310 -1.6953 -0.5082
  129OSM   H18T13854   6.792   0.690   7.867 -1.5231  0.3623 -2.0123
  129OSM   H18U13855   6.878   0.541   7.834 -1.9279  0.1943 -0.2205
  129OSM    C1F13856   6.968   0.422   6.563  0.5708  0.4782  0.1235
  129OSM     OF13857   6.940   0.491   6.467  0.1697 -0.1498  0.3053
  129OSM    C2F13858   7.112   0.418   6.617  0.0561  0.0133 -0.4780
  129OSM    H2F13859   7.167   0.367   6.535 -3.6067 -3.0900 -1.1635
  129OSM    H2G13860   7.117   0.347   6.701 -4.3855 -1.8945 -1.6897
  129OSM    C3F13861   7.158   0.555   6.654 -0.1600  0.0552 -0.4857
  129OSM    H3F13862   7.076   0.613   6.702  0.3763  0.8831 -0.5559
  129OSM    H3G13863   7.176   0.599   6.554  0.1173  1.0477 -0.0080
  129OSM    C4F13864   7.280   0.546   6.749  0.0262 -0.0754 -0.5708
  129OSM    H4F13865   7.365   0.510   6.688  0.3245 -1.6329  0.7056
  129OSM    H4G13866   7.261   0.483   6.839  2.5633 -1.4092 -0.9318
  129OSM    C5F13867   7.330   0.683   6.808  0.5683 -0.0109 -0.2086
  129OSM    H5F13868   7.252   0.721   6.878  1.1009  0.0645  0.3399
  129OSM    H5G13869   7.346   0.756   6.726 -2.9410  1.5343  0.3914
  129OSM    C6F13870   7.463   0.675   6.879 -0.6333  0.4763 -0.7990
  129OSM    H6F13871   7.458   0.604   6.965  0.0169 -0.4449 -1.5116
  129OSM    H6G13872   7.483   0.774   6.923  1.2522 -0.4312  0.4434
  129OSM    C7F13873   7.582   0.637   6.792  0.2166  0.9286 -0.2844
  129OSM    H7F13874   7.598   0.711   6.711  1.2379  0.2649 -0.7097
  129OSM    H7G13875   7.561   0.541   6.740  1.4767  0.3002  0.3270
  129OSM    C8F13876   7.711   0.604   6.863 -0.0201  0.0491 -0.7525
  129OSM    H8F13877   7.755   0.526   6.798 -0.6464 -1.8919  1.0882
  129OSM    H8G13878   7.682   0.542   6.951  0.6107 -0.5275 -0.9434
  129OSM    C9F13879   7.814   0.717   6.888 -0.8666 -0.1921  0.0287
  129OSM    H9F13880   7.834   0.768   6.793 -1.5204 -2.0387 -1.1365
  129OSM   C10F13881   7.875   0.764   6.997 -0.0572 -0.4704  0.1481
  129OSM   H10F13882   7.945   0.849   6.995 -1.0040  0.3403  0.8200
  129OSM   C11F13883   7.864   0.713   7.142  0.4473 -0.5435  0.2770
  129OSM   H11F13884   7.961   0.711   7.196  1.0088  0.4750 -0.6673
  129OSM   H11G13885   7.801   0.622   7.144 -0.0257 -0.2250  0.0111
  129OSM   C12F13886   7.778   0.813   7.226 -0.1984  0.1224  0.0049
  129OSM   H12F13887   7.675   0.822   7.184  0.7719  2.7137 -1.9661
  129OSM   H12G13888   7.825   0.913   7.210  2.3557 -1.3551 -2.1090
  129OSM   C13F13889   7.788   0.770   7.376 -0.3377 -0.4341  0.2764
  129OSM   H13F13890   7.895   0.772   7.407  0.0355 -0.1964 -1.0067
  129OSM   H13G13891   7.749   0.666   7.380  0.1811 -0.6401  0.0510
  129OSM   C14F13892   7.689   0.844   7.467 -0.7588  0.2294 -0.3177
  129OSM   H14F13893   7.590   0.819   7.425 -0.3838  0.9274 -1.6526
  129OSM   H14G13894   7.708   0.953   7.454 -0.3855  0.2855  0.6015
  129OSM   C15F13895   7.704   0.802   7.615 -0.0487  0.7224  0.1172
  129OSM   H15F13896   7.719   0.692   7.609 -1.7983  0.5913 -2.7777
  129OSM   H15G13897   7.600   0.823   7.649 -1.2877 -0.7710 -2.5981
  129OSM   C16F13898   7.809   0.876   7.686 -0.1440  0.3939 -0.3419
  129OSM   H16F13899   7.785   0.982   7.665 -3.8903  0.0014  1.6625
  129OSM   H16G13900   7.905   0.868   7.630  0.0914  0.5831  0.0359
  129OSM   C17F13901   7.837   0.852   7.838  0.6245 -0.2349  0.4589
  129OSM   H17F13902   7.873   0.747   7.834 -0.4894 -0.6140  0.2615
  129OSM   H17G13903   7.740   0.857   7.892 -0.3043 -0.4729 -1.1398
  129OSM   C18F13904   7.941   0.935   7.913 -1.0833 -0.0616 -0.4100
  129OSM   H18F13905   7.932   1.045   7.904  2.9314  0.3073 -0.9135
  129OSM   H18G13906   8.044   0.901   7.887 -0.9567 -1.0950  1.3417
  129OSM   H18H13907   7.927   0.909   8.020  0.4091  0.3925 -0.0890
  130OSM      N13908   1.266   4.137   6.156 -0.5727  0.8156  0.1726
  130OSM    C1513909   1.222   4.159   6.295  0.5473  0.3373  0.4639
  130OSM   H15A13910   1.255   4.252   6.339 -0.1107 -0.5992  2.9884
  130OSM   H15B13911   1.252   4.072   6.350  1.0257  0.4935  0.4498
  130OSM   H15C13912   1.115   4.147   6.304  0.8210 -1.4053  1.6896
  130OSM    C1413913   1.418   4.116   6.158 -0.1412  0.4844 -0.6660
  130OSM   H14A13914   1.444   4.110   6.053 -1.3224 -0.9403 -0.8900
  130OSM   H14B13915   1.450   4.023   6.202 -0.5221  0.3687 -0.6406
  130OSM   H14C13916   1.468   4.202   6.202 -1.2878  0.0363  1.5658
  130OSM    C1313917   1.204   4.003   6.104  0.5546  0.4959  0.5024
  130OSM   H13A13918   1.249   3.915   6.150  0.5744  1.2143  1.8886
  130OSM   H13B13919   1.221   3.997   5.998  1.2924 -0.4092  0.6594
  130OSM   H13C13920   1.100   4.000   6.132  0.4466  0.3462  0.0858
  130OSM    C1213921   1.243   4.252   6.062 -0.7053 -0.1225  1.0008
  130OSM   H12A13922   1.324   4.249   5.991  0.1470  0.8447  1.9096
  130OSM   H12B13923   1.266   4.346   6.110 -1.8838  0.1931  0.9828
  130OSM    C1113924   1.104   4.296   6.007  0.2363  0.6103  0.1027
  130OSM   H11A13925   1.049   4.207   5.970 -1.8895  2.0933 -0.3966
  130OSM   H11B13926   1.130   4.379   5.939 -1.9883  0.3158 -1.1447
  130OSM      P13927   1.005   4.473   6.161  0.0742 -0.1476  0.2513
  130OSM    O1313928   1.082   4.573   6.089  0.1986  0.5578  1.0784
  130OSM    O1413929   0.863   4.492   6.154  0.4960 -0.3008 -0.6039
  130OSM    O1113930   1.048   4.470   6.317  0.5707  0.4432 -0.1377
  130OSM    O1213931   1.029   4.327   6.117 -1.1214  0.4927 -0.5637
  130OSM    C1S13932   0.947   4.412   6.402 -0.2205 -0.2790  0.2045
  130OSM    H1S13933   0.913   4.311   6.368  0.8865 -0.3827 -0.6551
  130OSM    H1T13934   0.862   4.482   6.412 -0.4555 -0.5599  0.1980
  130OSM     NF13935   0.879   4.344   6.628 -0.3520  0.0308 -0.5821
  130OSM    HNF13936   0.818   4.419   6.652 -1.6029 -1.3332  0.6234
  130OSM    C2S13937   0.994   4.383   6.545 -0.3814 -0.2436  0.0919
  130OSM    H2S13938   1.065   4.299   6.564 -1.4468 -0.8368  1.5903
  130OSM    C3S13939   1.062   4.516   6.600  0.1966 -0.4443  0.6710
  130OSM    H3S13940   0.991   4.600   6.583 -2.4596 -2.6805  0.4549
  130OSM     O313941   1.189   4.536   6.533 -0.0251  0.0621 -0.5103
  130OSM    HO313942   1.176   4.495   6.447 -3.2683  3.1802 -1.6261
  130OSM    C4S13943   1.094   4.491   6.741 -0.0223  0.3577  0.1898
  130OSM    H4S13944   1.183   4.426   6.748 -0.6830 -0.9124 -2.4684
  130OSM    C5S13945   1.025   4.531   6.852 -0.2016  0.3880  0.1170
  130OSM    H5S13946   0.926   4.570   6.824 -0.3517 -1.1771 -1.6869
  130OSM    C6S13947   1.045   4.495   6.996 -0.6774 -0.0984 -0.3275
  130OSM    H6S13948   0.972   4.425   7.040  0.0280  0.7378  2.3135
  130OSM    H6T13949   1.038   4.591   7.052 -2.0197  0.3009 -1.1666
  130OSM    C7S13950   1.183   4.440   7.030  0.0823 -0.3037 -0.4236
  130OSM    H7S13951   1.256   4.524   7.021  0.0655  0.0461  2.2301
  130OSM    H7T13952   1.216   4.358   6.963  1.0476  0.1123 -0.4635
  130OSM    C8S13953   1.188   4.398   7.174  0.6646  0.0436 -0.2950
  130OSM    H8S13954   1.298   4.384   7.185  0.7417  0.0257 -1.0470
  130OSM    H8T13955   1.139   4.300   7.193  0.0593  0.5038  0.5522
  130OSM    C9S13956   1.153   4.504   7.277 -0.3093 -0.4748  1.7856
  130OSM    H9S13957   1.049   4.542   7.269  0.1468  1.0826  2.8821
  130OSM    H9T13958   1.226   4.588   7.271  1.2265 -1.7837  1.6104
  130OSM   C10S13959   1.159   4.455   7.425  0.4105 -0.0493  0.0494
  130OSM   H10S13960   1.261   4.416   7.448 -0.0364 -1.5766 -0.4809
  130OSM   H10T13961   1.087   4.374   7.450  0.8100 -0.0248  1.3039
  130OSM   C11S13962   1.141   4.567   7.523  0.5594  0.0079 -0.4059
  130OSM   H11S13963   1.037   4.606   7.519  0.8445  0.9815  1.4134
  130OSM   H11T13964   1.198   4.655   7.489  2.2209 -1.3439 -1.1973
  130OSM   C12S13965   1.162   4.505   7.663  0.7493 -1.1972 -0.1215
  130OSM   H12S13966   1.255   4.444   7.660  2.4094  1.1422  1.5617
  130OSM   H12T13967   1.068   4.447   7.665 -0.8144  1.2298 -1.2544
  130OSM   C13S13968   1.183   4.614   7.772 -0.2490  0.0573  0.2212
  130OSM   H13S13969   1.097   4.685   7.771 -0.5915 -0.3672 -1.0838
  130OSM   H13T13970   1.266   4.684   7.747 -1.5302  1.5588  0.0655
  130OSM   C14S13971   1.214   4.562   7.914 -0.0363 -0.1174 -1.0345
  130OSM   H14S13972   1.302   4.494   7.916  0.1883  0.1831 -0.6632
  130OSM   H14T13973   1.125   4.512   7.959  2.2631 -2.7114  0.7854
  130OSM   C15S13974   1.254   4.670   8.010  0.4092 -0.5905 -0.4359
  130OSM   H15S13975   1.333   4.732   7.962 -0.1926  1.7091  1.4258
  130OSM   H15T13976   1.290   4.622   8.103 -1.2598 -1.4711 -0.2213
  130OSM   C16S13977   1.144   4.771   8.047  0.2383 -0.0668  0.1904
  130OSM   H16S13978   1.062   4.702   8.076  1.3015 -1.4455 -0.0501
  130OSM   H16T13979   1.109   4.841   7.969 -0.1256  0.1985  0.5876
  130OSM   C17S13980   1.174   4.869   8.161  0.1533 -0.1174 -0.2713
  130OSM   H17S13981   1.256   4.940   8.137  0.2077 -0.1514 -0.1858
  130OSM   H17T13982   1.216   4.806   8.242  3.7597  1.0567 -1.1145
  130OSM   C18S13983   1.049   4.943   8.208  0.1678  0.1223  1.0215
  130OSM   H18S13984   0.979   4.874   8.259  0.8281 -2.1883 -1.1212
  130OSM   H18T13985   1.002   4.992   8.120  1.0865  2.4249  1.7729
  130OSM   H18U13986   1.083   5.025   8.276 -1.2778 -0.3990  2.4150
  130OSM    C1F13987   0.828   4.221   6.633 -0.2793 -0.5198 -0.2294
  130OSM     OF13988   0.895   4.129   6.581  0.3874  0.4861  0.0226
  130OSM    C2F13989   0.687   4.210   6.688 -0.0998 -0.4074  0.7781
  130OSM    H2F13990   0.619   4.181   6.604  0.8712 -0.4890  0.0068
  130OSM    H2G13991   0.655   4.308   6.730  2.1345  0.8067 -0.2227
  130OSM    C3F13992   0.672   4.092   6.790  0.2246  0.8878 -0.3116
  130OSM    H3F13993   0.721   4.001   6.748 -0.4189  0.0677  0.6891
  130OSM    H3G13994   0.565   4.067   6.810 -0.0061  3.2583  1.5819
  130OSM    C4F13995   0.729   4.113   6.926 -0.5896 -0.5177 -0.4175
  130OSM    H4F13996   0.837   4.132   6.909 -0.7592  2.0746  1.1232
  130OSM    H4G13997   0.730   4.014   6.977  2.1431  1.1859  3.0553
  130OSM    C5F13998   0.658   4.229   7.011 -0.5054  0.3845  0.4809
  130OSM    H5F13999   0.552   4.209   7.037 -0.9914 -1.3131 -2.5956
  130OSM    H5G14000   0.637   4.319   6.950 -1.0185 -0.2104 -0.2288
  130OSM    C6F14001   0.743   4.264   7.140 -0.0230  0.7218  0.7506
  130OSM    H6F14002   0.850   4.266   7.112  0.4489  1.6523  2.5457
  130OSM    H6G14003   0.729   4.176   7.207  0.8649  0.8062  1.0452
  130OSM    C7F14004   0.706   4.397   7.212 -0.1660  0.3598  0.1731
  130OSM    H7F14005   0.595   4.399   7.216 -0.1555  1.4341  0.2671
  130OSM    H7G14006   0.734   4.476   7.139  0.0584  0.0832 -0.0403
  130OSM    C8F14007   0.759   4.405   7.353 -0.6815  0.4786  0.5655
  130OSM    H8F14008   0.859   4.358   7.370 -0.9147  0.6610  2.5278
  130OSM    H8G14009   0.692   4.340   7.414 -2.0480 -0.4389 -1.8468
  130OSM    C9F14010   0.780   4.547   7.406  0.0933 -0.4789 -0.3720
  130OSM    H9F14011   0.862   4.590   7.348  0.7628  0.6463  1.3883
  130OSM   C10F14012   0.718   4.607   7.507 -0.1772 -0.1518  1.0824
  130OSM   H10F14013   0.747   4.711   7.524  2.8586 -0.9638  1.2019
  130OSM   C11F14014   0.615   4.550   7.600  0.1767  1.0655  0.0861
  130OSM   H11F14015   0.584   4.446   7.577  0.1102  1.2422 -0.6467
  130OSM   H11G14016   0.524   4.607   7.570  0.0686  0.6764 -0.3366
  130OSM   C12F14017   0.649   4.569   7.748 -0.0184  0.2953  0.0818
  130OSM   H12F14018   0.571   4.533   7.818  0.1550  0.3002  0.2771
  130OSM   H12G14019   0.654   4.679   7.761  3.2062  0.6412 -3.1656
  130OSM   C13F14020   0.779   4.511   7.793 -0.0195  0.2931 -0.5036
  130OSM   H13F14021   0.860   4.563   7.737  0.5340  0.8178  0.7652
  130OSM   H13G14022   0.793   4.403   7.770  0.7404 -0.0426  1.3968
  130OSM   C14F14023   0.822   4.557   7.936  0.3953 -0.0094 -0.4219
  130OSM   H14F14024   0.794   4.658   7.972  0.1025  0.0902 -0.9278
  130OSM   H14G14025   0.932   4.559   7.948  0.3094 -1.4162  0.8729
  130OSM   C15F14026   0.763   4.463   8.041  0.0430 -0.7421  0.2378
  130OSM   H15F14027   0.787   4.360   8.005 -2.5781 -1.7520  1.2615
  130OSM   H15G14028   0.654   4.474   8.023  0.1542 -1.9580 -1.2758
  130OSM   C16F14029   0.803   4.505   8.185  0.2422 -0.4089 -0.5391
  130OSM   H16F14030   0.755   4.601   8.215  0.6449 -0.0744 -0.9548
  130OSM   H16G14031   0.913   4.517   8.182  0.4145 -1.7000  0.2521
  130OSM   C17F14032   0.760   4.397   8.288 -0.1045  0.6432  0.0817
  130OSM   H17F14033   0.807   4.423   8.386 -1.5335  0.8342  0.7253
  130OSM   H17G14034   0.805   4.302   8.251  2.7073  1.5235  1.0852
  130OSM   C18F14035   0.613   4.379   8.321  0.7009  0.2651  0.5803
  130OSM   H18F14036   0.568   4.477   8.348 -0.4048  0.2099 -0.9874
  130OSM   H18G14037   0.608   4.316   8.412  0.0585  1.2230  1.2137
  130OSM   H18H14038   0.557   4.342   8.233 -1.9471  2.1300  1.4208
  131OSM      N14039   1.220   1.838   6.105 -0.3064  0.0489  0.2327
  131OSM    C1514040   1.339   1.758   6.143 -0.3075 -0.9500  0.0463
  131OSM   H15A14041   1.403   1.732   6.059  1.0754  0.7755  0.5353
  131OSM   H15B14042   1.310   1.667   6.194 -0.7678 -0.6031  0.4002
  131OSM   H15C14043   1.406   1.803   6.215  0.3036  0.2972 -1.2668
  131OSM    C1414044   1.266   1.975   6.053 -0.0521 -0.1078  0.0890
  131OSM   H14A14045   1.326   2.041   6.113 -0.9401 -0.5146  1.4610
  131OSM   H14B14046   1.186   2.033   6.008  0.9945  0.1083 -1.5126
  131OSM   H14C14047   1.315   1.963   5.958  1.4918  0.8471  0.7459
  131OSM    C1314048   1.134   1.773   6.002 -0.1780 -0.7287  0.7229
  131OSM   H13A14049   1.046   1.835   5.990 -0.2645 -1.0764 -0.4721
  131OSM   H13B14050   1.096   1.679   6.038  1.8956 -1.3050  1.4782
  131OSM   H13C14051   1.176   1.759   5.904 -2.2974 -1.3321 -0.1232
  131OSM    C1214052   1.139   1.869   6.227 -0.4988  0.5419 -0.5346
  131OSM   H12A14053   1.084   1.780   6.252  0.1680 -0.5015 -2.5874
  131OSM   H12B14054   1.064   1.946   6.213  0.2688  0.9654 -2.6196
  131OSM    C1114055   1.213   1.927   6.357 -0.5257  0.5381  0.0933
  131OSM   H11A14056   1.298   1.859   6.382 -1.4487 -0.1683  1.3465
  131OSM   H11B14057   1.149   1.930   6.448 -2.4076  2.2539 -1.2465
  131OSM      P14058   1.187   2.179   6.352  0.0740  0.3526  0.3312
  131OSM    O1314059   1.264   2.303   6.330 -0.2888  0.3111 -0.4995
  131OSM    O1414060   1.063   2.178   6.270  0.2613 -0.6473 -0.8133
  131OSM    O1114061   1.157   2.168   6.507  0.2985  0.8224 -0.3969
  131OSM    O1214062   1.273   2.050   6.323  0.4027  0.1178 -0.1697
  131OSM    C1S14063   1.270   2.175   6.598  0.4303 -0.5809  0.0503
  131OSM    H1S14064   1.351   2.246   6.569  0.5044 -0.4492  0.5663
  131OSM    H1T14065   1.319   2.077   6.613  1.0884 -0.1602  0.7470
  131OSM     NF14066   1.329   2.257   6.825  0.4276  0.3011  0.3279
  131OSM    HNF14067   1.359   2.189   6.892  0.3039  2.0034  2.1467
  131OSM    C2S14068   1.218   2.228   6.739  0.0700 -0.2428 -0.0035
  131OSM    H2S14069   1.153   2.315   6.716 -1.6910 -1.3713  0.6021
  131OSM    C3S14070   1.123   2.118   6.797  0.0029  0.4074  0.6518
  131OSM    H3S14071   1.184   2.025   6.798 -2.7887 -1.5868 -2.8772
  131OSM     O314072   1.007   2.087   6.725 -0.0602 -0.6304 -0.0740
  131OSM    HO314073   1.022   2.114   6.634 -1.6608 -2.1950 -0.8479
  131OSM    C4S14074   1.098   2.158   6.942 -0.2775 -0.2123  0.1607
  131OSM    H4S14075   1.179   2.131   7.012  0.7832 -0.3695 -1.1013
  131OSM    C5S14076   0.991   2.213   7.003 -0.1747 -0.0967 -0.2875
  131OSM    H5S14077   0.909   2.246   6.938  2.0763  0.8713 -2.7454
  131OSM    C6S14078   0.979   2.257   7.146  0.4131 -0.3407  0.2844
  131OSM    H6S14079   0.913   2.193   7.209  0.8999 -1.0370  0.0942
  131OSM    H6T14080   0.931   2.356   7.137 -2.8826 -1.6416  2.5334
  131OSM    C7S14081   1.116   2.273   7.211  0.2042 -1.1683  0.1256
  131OSM    H7S14082   1.186   2.341   7.158  0.5524 -1.2461  0.4871
  131OSM    H7T14083   1.168   2.176   7.199 -0.5419 -1.1868 -3.5075
  131OSM    C8S14084   1.117   2.306   7.354 -0.1365  0.4260 -0.3896
  131OSM    H8S14085   1.063   2.227   7.411 -0.6302  1.1791  0.2020
  131OSM    H8T14086   1.054   2.397   7.367 -1.0299  0.0420 -1.9455
  131OSM    C9S14087   1.254   2.325   7.416 -0.0027  0.6216 -0.1604
  131OSM    H9S14088   1.305   2.413   7.371 -1.2786 -0.2619 -3.4818
  131OSM    H9T14089   1.308   2.230   7.394 -0.5387  0.7144 -1.8963
  131OSM   C10S14090   1.243   2.336   7.570 -0.4972 -0.0335  0.6690
  131OSM   H10S14091   1.181   2.250   7.603 -2.5822  1.0747 -0.3119
  131OSM   H10T14092   1.184   2.428   7.589 -2.5282 -1.0154 -0.6568
  131OSM   C11S14093   1.384   2.344   7.630  0.2038 -0.1667 -0.2724
  131OSM   H11S14094   1.447   2.406   7.563  0.9075 -1.3567 -0.7331
  131OSM   H11T14095   1.434   2.245   7.623  1.2812  0.3051  0.6024
  131OSM   C12S14096   1.384   2.396   7.772  0.8024 -0.3579 -0.2868
  131OSM   H12S14097   1.375   2.506   7.757  0.3064 -0.5128 -1.1484
  131OSM   H12T14098   1.484   2.381   7.818  1.1384 -1.4209 -1.3477
  131OSM   C13S14099   1.274   2.349   7.870 -0.5910  0.0887 -0.7384
  131OSM   H13S14100   1.281   2.238   7.875 -0.3703  0.1371  0.0387
  131OSM   H13T14101   1.170   2.363   7.832 -0.7598 -0.9520 -0.6755
  131OSM   C14S14102   1.283   2.411   8.010  0.0467 -0.6213  0.5357
  131OSM   H14S14103   1.229   2.508   8.019 -0.4824 -0.9918  1.3853
  131OSM   H14T14104   1.386   2.438   8.040  0.6575 -2.9291  0.5496
  131OSM   C15S14105   1.210   2.327   8.115  0.2886  0.0719  0.4043
  131OSM   H15S14106   1.259   2.228   8.121  1.2139  0.4453 -0.7652
  131OSM   H15T14107   1.101   2.317   8.093  0.2347  1.1510  0.1475
  131OSM   C16S14108   1.232   2.384   8.255 -0.1668  0.2453  0.1747
  131OSM   H16S14109   1.210   2.491   8.235 -0.7446 -0.2933 -2.1676
  131OSM   H16T14110   1.338   2.388   8.286  0.6239  2.0372 -2.5644
  131OSM   C17S14111   1.140   2.329   8.364  0.3917  0.0941 -0.0318
  131OSM   H17S14112   1.068   2.259   8.317  0.9689 -1.3200  1.1575
  131OSM   H17T14113   1.077   2.412   8.402 -0.0544 -0.5557  0.6558
  131OSM   C18S14114   1.210   2.250   8.478  0.1532  0.1123 -0.3431
  131OSM   H18S14115   1.139   2.199   8.546  2.7900 -2.3083  0.6885
  131OSM   H18T14116   1.286   2.317   8.525 -0.5103  1.8756 -1.7120
  131OSM   H18U14117   1.270   2.170   8.430 -0.5938 -1.3573  1.1360
  131OSM    C1F14118   1.409   2.364   6.806 -0.6339  0.8199 -0.0988
  131OSM     OF14119   1.390   2.439   6.715 -0.0623 -0.5445  0.2548
  131OSM    C2F14120   1.532   2.374   6.888 -0.0697 -0.5960  0.5164
  131OSM    H2F14121   1.615   2.391   6.816 -1.8034 -1.9000 -1.8598
  131OSM    H2G14122   1.554   2.279   6.942 -3.5776 -1.3924  0.6684
  131OSM    C3F14123   1.529   2.502   6.973 -0.7757 -0.4719 -0.0863
  131OSM    H3F14124   1.456   2.487   7.056 -1.1417  2.2328  0.1265
  131OSM    H3G14125   1.491   2.583   6.908  0.4202  0.3197  0.1944
  131OSM    C4F14126   1.663   2.539   7.034 -0.2687 -0.4639 -0.3123
  131OSM    H4F14127   1.722   2.600   6.963  1.0807 -0.6117  0.6714
  131OSM    H4G14128   1.721   2.445   7.051  3.0915  1.7279  0.8298
  131OSM    C5F14129   1.662   2.613   7.168 -0.1489 -0.9095  0.0764
  131OSM    H5F14130   1.595   2.552   7.233 -0.9721  0.6932  0.7690
  131OSM    H5G14131   1.618   2.716   7.167 -0.1649 -0.9257 -1.6986
  131OSM    C6F14132   1.801   2.619   7.228 -0.1843 -0.6011 -0.3710
  131OSM    H6F14133   1.868   2.679   7.162  1.7688 -1.3295  0.9099
  131OSM    H6G14134   1.842   2.516   7.234 -0.8475 -0.7738  1.3699
  131OSM    C7F14135   1.804   2.691   7.358 -0.2349 -0.6202  0.1613
  131OSM    H7F14136   1.734   2.645   7.430  0.0786 -1.5470 -0.1168
  131OSM    H7G14137   1.772   2.793   7.329  0.2049 -1.1403 -2.2144
  131OSM    C8F14138   1.948   2.702   7.424  0.1974  0.7076  0.6500
  131OSM    H8F14139   2.004   2.753   7.343 -1.1298  1.8081  0.4065
  131OSM    H8G14140   2.003   2.606   7.423 -0.2826  0.4308  0.1311
  131OSM    C9F14141   1.970   2.770   7.558 -0.6394 -0.1158 -0.1105
  131OSM    H9F14142   1.923   2.870   7.556  0.3393  0.3628  0.4590
  131OSM   C10F14143   2.055   2.728   7.658 -0.6154 -0.5101 -0.1305
  131OSM   H10F14144   2.067   2.798   7.742 -0.8811 -1.5219  0.7562
  131OSM   C11F14145   2.139   2.603   7.671  0.3672 -0.0992 -0.6874
  131OSM   H11F14146   2.150   2.542   7.578  0.4805 -0.3949 -0.4791
  131OSM   H11G14147   2.083   2.545   7.748 -0.0188  1.3552  0.1496
  131OSM   C12F14148   2.281   2.636   7.737 -0.1999  0.6725 -0.2136
  131OSM   H12F14149   2.259   2.696   7.829 -2.9283  1.3872 -1.2570
  131OSM   H12G14150   2.352   2.698   7.679  2.7231 -0.2168  2.2769
  131OSM   C13F14151   2.353   2.509   7.786 -0.0141  0.4810  0.7951
  131OSM   H13F14152   2.367   2.446   7.696 -1.0050 -0.7422  1.4836
  131OSM   H13G14153   2.286   2.456   7.857  0.7115  0.8832  1.7931
  131OSM   C14F14154   2.490   2.531   7.856  0.5775 -0.0377 -0.9019
  131OSM   H14F14155   2.476   2.585   7.952  0.1690 -1.2314 -0.2947
  131OSM   H14G14156   2.555   2.593   7.790  1.4603  0.7679  0.6873
  131OSM   C15F14157   2.562   2.408   7.901 -0.7202  0.1993 -0.1124
  131OSM   H15F14158   2.655   2.449   7.946 -0.1996 -2.4356  1.3275
  131OSM   H15G14159   2.591   2.347   7.812 -2.7239  1.4390 -1.6774
  131OSM   C16F14160   2.473   2.314   7.985 -0.2436 -0.0399  0.2319
  131OSM   H16F14161   2.382   2.289   7.927 -1.8439  3.0192  1.2788
  131OSM   H16G14162   2.439   2.368   8.076  0.2660  1.2064 -0.3138
  131OSM   C17F14163   2.532   2.183   8.039 -0.6560 -0.0832  0.2496
  131OSM   H17F14164   2.629   2.208   8.087 -0.3284 -2.8909  1.1495
  131OSM   H17G14165   2.554   2.125   7.947  2.4429  0.8881  0.3293
  131OSM   C18F14166   2.447   2.104   8.135 -0.0581  0.2474 -0.4891
  131OSM   H18F14167   2.491   2.008   8.170  0.0634  1.1115  1.8046
  131OSM   H18G14168   2.346   2.083   8.094 -0.1003 -0.4252 -0.0429
  131OSM   H18H14169   2.444   2.169   8.224  0.5539  1.0861 -1.0683
  132OSM      N14170   3.444   5.627   5.872  0.6594 -0.1270  0.3931
  132OSM    C1514171   3.369   5.513   5.936  0.2905 -0.0304  0.6457
  132OSM   H15A14172   3.273   5.494   5.890 -0.3062 -0.1269  1.9096
  132OSM   H15B14173   3.339   5.537   6.037 -1.0907 -3.9039  1.2360
  132OSM   H15C14174   3.429   5.423   5.929 -0.5705 -0.5032 -0.7911
  132OSM    C1414175   3.582   5.646   5.929  0.0495 -0.7672 -0.1321
  132OSM   H14A14176   3.628   5.736   5.893 -0.4811 -0.1238  0.7813
  132OSM   H14B14177   3.653   5.570   5.897  0.3772 -0.2177 -0.7315
  132OSM   H14C14178   3.578   5.633   6.036 -0.4367  3.4852  0.4417
  132OSM    C1314179   3.462   5.590   5.735  0.3884 -0.2422  0.7167
  132OSM   H13A14180   3.507   5.492   5.727 -1.7567 -1.2906  1.1324
  132OSM   H13B14181   3.517   5.669   5.685 -2.1778  1.3534  0.3149
  132OSM   H13C14182   3.374   5.570   5.676  1.1170  0.1219 -0.5370
  132OSM    C1214183   3.367   5.760   5.883  0.2631  0.4449 -0.7197
  132OSM   H12A14184   3.284   5.756   5.814 -1.3756 -1.0524  1.2790
  132OSM   H12B14185   3.429   5.845   5.861 -0.7707  1.5916  0.7716
  132OSM    C1114186   3.293   5.784   6.016  0.2689  0.4692  0.9439
  132OSM   H11A14187   3.221   5.700   6.026  0.0399  0.8582  2.8236
  132OSM   H11B14188   3.222   5.869   6.003 -1.0109 -0.8052 -0.6011
  132OSM      P14189   3.440   5.943   6.151 -0.1513  0.2022 -0.5520
  132OSM    O1314190   3.570   5.926   6.223 -0.1809  0.1948 -0.0118
  132OSM    O1414191   3.447   6.010   6.021  1.1601 -0.0203  0.1092
  132OSM    O1114192   3.333   6.022   6.234 -0.6725 -0.4058  0.5249
  132OSM    O1214193   3.376   5.798   6.132  0.7047 -0.4561  0.0072
  132OSM    C1S14194   3.231   5.951   6.313  0.4209  0.1349  0.5590
  132OSM    H1S14195   3.231   5.841   6.298 -1.4048  0.2991 -0.8582
  132OSM    H1T14196   3.134   5.982   6.268 -0.0885  3.3967  3.7053
  132OSM     NF14197   3.120   5.912   6.524 -0.9001 -0.3780 -0.5910
  132OSM    HNF14198   3.033   5.959   6.536  0.1550  1.4201  0.2625
  132OSM    C2S14199   3.226   5.994   6.464 -0.2251  0.2190 -0.4051
  132OSM    H2S14200   3.326   5.968   6.505  0.2851 -1.0098 -2.3913
  132OSM    C3S14201   3.212   6.153   6.474  0.0330  0.8203  0.5851
  132OSM    H3S14202   3.108   6.169   6.438  0.4562  2.1385 -0.0570
  132OSM     O314203   3.298   6.238   6.394 -0.2315 -0.5496  0.6414
  132OSM    HO314204   3.313   6.181   6.318  1.0402  1.4572 -0.6345
  132OSM    C4S14205   3.216   6.185   6.624  0.6247 -0.1125  0.3262
  132OSM    H4S14206   3.116   6.195   6.670  0.9329  0.1369  0.9390
  132OSM    C5S14207   3.321   6.224   6.687 -0.7286  0.3772 -0.1288
  132OSM    H5S14208   3.415   6.234   6.630 -0.5970 -1.3917 -0.2660
  132OSM    C6S14209   3.337   6.250   6.836  1.4961 -0.1474 -0.2364
  132OSM    H6S14210   3.355   6.359   6.853 -2.3364  0.0474  3.4559
  132OSM    H6T14211   3.422   6.197   6.884 -0.7804 -1.6831  2.2444
  132OSM    C7S14212   3.221   6.208   6.932  0.8581  0.0778  0.3714
  132OSM    H7S14213   3.224   6.097   6.938  0.1776  0.0634  0.5631
  132OSM    H7T14214   3.122   6.244   6.895  1.8324  0.7287 -1.6176
  132OSM    C8S14215   3.231   6.259   7.077 -0.2350  0.2020 -0.0481
  132OSM    H8S14216   3.333   6.241   7.117 -0.3081  1.6586  0.8332
  132OSM    H8T14217   3.159   6.190   7.126  0.0118 -0.8553 -1.1483
  132OSM    C9S14218   3.191   6.398   7.102 -0.8190  0.6920  0.8304
  132OSM    H9S14219   3.105   6.421   7.035 -0.5488 -4.0253 -1.3508
  132OSM    H9T14220   3.266   6.470   7.064  1.0499 -1.9419 -0.6237
  132OSM   C10S14221   3.154   6.431   7.243  0.0521 -0.2216 -0.2188
  132OSM   H10S14222   3.063   6.373   7.271 -0.1948  0.1405 -0.2720
  132OSM   H10T14223   3.125   6.538   7.244  2.4921  0.4612  0.0168
  132OSM   C11S14224   3.267   6.412   7.354 -0.6693  0.7625 -0.1172
  132OSM   H11S14225   3.348   6.483   7.328  0.0936  0.0724  0.3529
  132OSM   H11T14226   3.315   6.312   7.357 -0.6368  0.7672 -0.5282
  132OSM   C12S14227   3.210   6.454   7.490  0.6403  0.7296  0.0593
  132OSM   H12S14228   3.129   6.380   7.506  1.5300  0.0007  1.1964
  132OSM   H12T14229   3.163   6.554   7.474  1.0017  1.0939  1.2301
  132OSM   C13S14230   3.318   6.441   7.602  0.8516 -0.0969  0.1429
  132OSM   H13S14231   3.401   6.513   7.587 -0.0689  0.5155 -2.4591
  132OSM   H13T14232   3.375   6.347   7.586  1.1512  0.2605 -0.8952
  132OSM   C14S14233   3.277   6.436   7.750  1.1158  0.4389 -0.3762
  132OSM   H14S14234   3.225   6.530   7.778  0.4472 -0.0504  0.0571
  132OSM   H14T14235   3.355   6.417   7.826  0.1095  1.2203  0.8721
  132OSM   C15S14236   3.173   6.323   7.772  0.1747 -0.5222  0.1635
  132OSM   H15S14237   3.203   6.224   7.730  1.1701 -0.7297  1.3425
  132OSM   H15T14238   3.074   6.351   7.730 -0.4157 -2.6277  0.1029
  132OSM   C16S14239   3.139   6.300   7.917 -0.1689  0.6364 -0.0910
  132OSM   H16S14240   3.103   6.397   7.957 -1.0905  0.9488 -1.6520
  132OSM   H16T14241   3.233   6.271   7.968 -0.9445  0.4493  1.2816
  132OSM   C17S14242   3.026   6.193   7.942  0.6882 -0.5765 -0.1633
  132OSM   H17S14243   2.932   6.241   7.906 -0.3399 -1.8763  0.7019
  132OSM   H17T14244   3.007   6.189   8.052 -1.7933  0.2979 -0.5283
  132OSM   C18S14245   3.055   6.050   7.894 -0.3170 -0.2881 -0.3521
  132OSM   H18S14246   3.153   6.014   7.931 -1.0749 -1.1160  0.9056
  132OSM   H18T14247   3.064   6.055   7.784  0.6237  0.8629 -0.2319
  132OSM   H18U14248   2.965   5.991   7.924  2.3093 -3.1843  2.0971
  132OSM    C1F14249   3.143   5.789   6.573 -0.4347 -0.5846  0.4714
  132OSM     OF14250   3.249   5.731   6.545  0.1507 -0.0530 -0.5408
  132OSM    C2F14251   3.031   5.724   6.650 -0.4327 -0.0451  0.0174
  132OSM    H2F14252   2.978   5.651   6.585  0.3125 -0.1945 -0.4225
  132OSM    H2G14253   2.955   5.799   6.682  0.3635  0.4071  0.8480
  132OSM    C3F14254   3.082   5.647   6.769 -0.0391  0.3376 -0.4898
  132OSM    H3F14255   3.177   5.594   6.747  0.3298  0.8118 -0.0684
  132OSM    H3G14256   3.004   5.571   6.793  0.5008 -0.2228 -0.4956
  132OSM    C4F14257   3.086   5.731   6.902 -0.1393 -0.5706  0.0978
  132OSM    H4F14258   3.165   5.809   6.902 -0.7218  0.0237 -0.3942
  132OSM    H4G14259   3.118   5.662   6.983  1.2776  2.4652  2.2338
  132OSM    C5F14260   2.961   5.801   6.944  0.3254 -0.0586  0.3585
  132OSM    H5F14261   2.879   5.726   6.943 -0.8808  1.2082 -1.7876
  132OSM    H5G14262   2.938   5.889   6.880 -1.3095 -0.1755  0.7651
  132OSM    C6F14263   2.963   5.834   7.100 -0.0437 -0.1884  0.4372
  132OSM    H6F14264   2.974   5.746   7.166  0.9965 -1.7702 -1.7989
  132OSM    H6G14265   2.857   5.863   7.116 -0.2032 -0.2653 -0.4681
  132OSM    C7F14266   3.043   5.957   7.146  0.0348  0.1478  0.2083
  132OSM    H7F14267   3.013   6.052   7.096 -1.4501  0.4887  1.7171
  132OSM    H7G14268   3.136   5.929   7.092 -0.3204 -0.2142 -0.2189
  132OSM    C8F14269   3.069   5.957   7.298  0.2760  0.3199  0.5529
  132OSM    H8F14270   3.157   6.023   7.307 -0.9903  1.7865  2.8437
  132OSM    H8G14271   3.093   5.859   7.344 -0.8595 -1.3904 -2.3958
  132OSM    C9F14272   2.962   6.035   7.376 -0.3362 -0.3611  0.0314
  132OSM    H9F14273   2.961   6.143   7.357  2.6678 -0.2073  0.4219
  132OSM   C10F14274   2.879   5.980   7.467  0.0623 -0.2383  0.0663
  132OSM   H10F14275   2.799   6.040   7.513 -0.3571  0.2122 -1.2295
  132OSM   C11F14276   2.856   5.840   7.500 -0.1520  0.6426 -0.0817
  132OSM   H11F14277   2.921   5.765   7.451  1.9160  2.6046 -0.4141
  132OSM   H11G14278   2.748   5.818   7.484  0.4272 -1.6593 -0.9899
  132OSM   C12F14279   2.894   5.824   7.643 -0.1382  0.4351 -0.3972
  132OSM   H12F14280   2.858   5.909   7.705 -2.6419 -1.5239  0.9134
  132OSM   H12G14281   3.003   5.808   7.660 -0.0978 -0.4170 -1.4261
  132OSM   C13F14282   2.827   5.706   7.702 -0.1514 -0.1889  0.4168
  132OSM   H13F14283   2.868   5.622   7.642 -1.1879 -0.7994  0.5544
  132OSM   H13G14284   2.719   5.720   7.681 -0.0204  0.4964  0.1676
  132OSM   C14F14285   2.859   5.678   7.846 -0.1176  0.2289 -0.3551
  132OSM   H14F14286   2.841   5.771   7.905 -1.8704  1.7969 -3.2132
  132OSM   H14G14287   2.966   5.647   7.849 -0.0758  0.3416 -0.6393
  132OSM   C15F14288   2.788   5.558   7.897 -0.9191 -0.2294  0.1461
  132OSM   H15F14289   2.678   5.574   7.903 -1.0335 -0.3403 -1.4458
  132OSM   H15G14290   2.826   5.527   7.997  0.4552 -1.2935 -0.6861
  132OSM   C16F14291   2.806   5.427   7.816  0.0407  0.4908  0.5745
  132OSM   H16F14292   2.759   5.435   7.715  0.2216 -2.0652  0.2330
  132OSM   H16G14293   2.755   5.342   7.867  1.5861  0.0581  1.4286
  132OSM   C17F14294   2.948   5.383   7.792  0.8147  0.1115  0.1903
  132OSM   H17F14295   3.003   5.377   7.889 -0.6877 -2.7506  0.8877
  132OSM   H17G14296   3.004   5.461   7.736 -0.6392  1.5114  0.6501
  132OSM   C18F14297   2.957   5.238   7.748  1.5026 -0.2156  0.2130
  132OSM   H18F14298   2.913   5.183   7.834 -1.2073 -0.7853 -1.4925
  132OSM   H18G14299   3.063   5.210   7.730  1.3029 -0.6515 -0.2710
  132OSM   H18H14300   2.887   5.225   7.663  0.4284 -1.4912  1.2734
  133SAPE     N14301   4.861   3.422  10.937 -0.3072  0.4080 -0.1803
  133SAPE   HN114302   4.757   3.423  10.930 -0.4484  1.4116  1.7305
  133SAPE   HN214303   4.891   3.323  10.953  2.9813  1.4171  0.2469
  133SAPE   HN314304   4.887   3.474  11.023  2.3088  0.3948 -0.9093
  133SAPE   C1214305   4.959   3.467  10.832  0.3121  0.4250 -0.1585
  133SAPE  H12A14306   4.901   3.504  10.745 -0.6048  0.4124  0.4336
  133SAPE  H12B14307   5.020   3.378  10.806 -0.7610 -0.8395  1.5281
  133SAPE   C1114308   5.068   3.572  10.880  0.2750 -0.1721  0.5969
  133SAPE  H11A14309   5.140   3.592  10.797  0.4901 -0.4429  0.7155
  133SAPE  H11B14310   5.137   3.532  10.958  0.3931  3.1616  2.2483
  133SAPE     P14311   4.913   3.789  10.890  0.1000 -0.2362 -0.0109
  133SAPE   O1314312   4.778   3.724  10.900  0.2009  0.0397  0.4593
  133SAPE   O1414313   4.931   3.925  10.956 -0.0409 -0.0822  0.8675
  133SAPE   O1214314   5.025   3.691  10.947 -0.3792  0.2009  0.4321
  133SAPE   O1114315   4.938   3.801  10.733 -0.5690 -0.4041 -0.1383
  133SAPE    C114316   5.043   3.875  10.670  0.2090  0.9983  0.3746
  133SAPE    HA14317   5.024   3.983  10.656  0.1232  0.6215 -2.8568
  133SAPE    HB14318   5.139   3.865  10.724  0.4244  1.7230  0.1307
  133SAPE    C214319   5.069   3.826  10.520 -0.2029 -0.3935 -0.4472
  133SAPE    HS14320   5.134   3.898  10.466  2.3251 -1.9568  0.3958
  133SAPE   O2114321   4.956   3.804  10.440  0.4962  0.1360 -0.3904
  133SAPE   C2114322   4.873   3.900  10.411 -0.3563 -0.2445 -0.5097
  133SAPE   O2214323   4.873   4.015  10.452  0.0278 -0.3346  0.3357
  133SAPE   C2214324   4.776   3.842  10.313 -0.2278  0.0647  0.7252
  133SAPE   H2R14325   4.800   3.734  10.297 -1.6435 -0.0669 -0.7678
  133SAPE   H2S14326   4.674   3.838  10.358 -0.5796 -1.5171 -0.1424
  133SAPE    C314327   5.138   3.682  10.526  0.2420 -0.2363 -0.0704
  133SAPE    HX14328   5.052   3.623  10.565 -0.3110  1.6428  1.6005
  133SAPE    HY14329   5.231   3.672  10.585  0.9079 -0.2642 -1.1119
  133SAPE   O3114330   5.163   3.634  10.384 -0.2798 -0.6263 -0.1592
  133SAPE   C3114331   5.280   3.675  10.337 -0.6704  0.2293  0.3615
  133SAPE   O3214332   5.347   3.760  10.402 -0.1914 -0.5368 -0.1672
  133SAPE   C3214333   5.320   3.588  10.213 -0.5872 -1.5131  0.3327
  133SAPE   H2X14334   5.277   3.648  10.129 -0.9441 -0.2681  1.3981
  133SAPE   H2Y14335   5.257   3.496  10.215 -3.0133  0.1457  2.7348
  133SAPE   C2314336   4.778   3.925  10.185  1.0430  0.4490  0.6436
  133SAPE   H3R14337   4.749   4.030  10.207 -1.4293  0.0728 -0.6114
  133SAPE   H3S14338   4.710   3.864  10.122  0.3944  0.4295  1.3423
  133SAPE   C2414339   4.914   3.922  10.120 -0.1940  0.2640  0.1268
  133SAPE   H4R14340   4.940   3.815  10.112 -1.1374  0.1305 -1.1461
  133SAPE   H4S14341   4.993   3.974  10.179  0.3234  1.2413 -1.4147
  133SAPE   C2514342   4.904   3.992   9.987 -0.0770  0.9512  0.0365
  133SAPE   H5R14343   4.900   4.102   9.981  1.7640  0.9891 -1.0791
  133SAPE   C2614344   4.855   3.931   9.877  0.1167  0.0532 -0.5130
  133SAPE   H6R14345   4.853   3.979   9.778  0.2526  0.8603 -0.1269
  133SAPE   C2714346   4.815   3.789   9.861 -0.0287 -0.2335  1.0611
  133SAPE   H7R14347   4.799   3.727   9.952 -2.0755  1.8066  2.1313
  133SAPE   H7S14348   4.891   3.737   9.799 -2.8000 -2.7700 -0.3164
  133SAPE   C2814349   4.688   3.792   9.779 -0.6528 -0.3341 -0.1385
  133SAPE   H8R14350   4.597   3.814   9.838 -1.1194 -3.7882  0.5407
  133SAPE   C2914351   4.670   3.762   9.652  0.1498  1.2972 -0.3196
  133SAPE   H9R14352   4.569   3.772   9.610 -0.4774 -3.5394 -0.2464
  133SAPE  C21014353   4.765   3.712   9.551 -0.4870  0.2864  0.7637
  133SAPE  H10R14354   4.706   3.652   9.479 -0.5696  0.0244  1.0473
  133SAPE  H10S14355   4.842   3.648   9.600 -0.9573 -0.9713 -0.1184
  133SAPE  C21114356   4.844   3.826   9.480 -0.7870 -0.2264  0.0263
  133SAPE  H11R14357   4.872   3.911   9.545  0.6150 -0.1393 -0.6944
  133SAPE  C21214358   4.889   3.839   9.354 -0.3059  0.8284 -0.2415
  133SAPE  H12R14359   4.950   3.926   9.324  1.7889 -0.9788 -1.3683
  133SAPE  C21314360   4.878   3.737   9.245  0.4254 -0.1379 -0.3764
  133SAPE  H13R14361   4.891   3.636   9.290 -3.8412 -1.0124 -0.9114
  133SAPE  H13S14362   4.969   3.740   9.180  1.9329  1.7003  1.7609
  133SAPE  C21414363   4.747   3.751   9.164 -0.2575 -0.0026 -0.3142
  133SAPE  H14R14364   4.667   3.810   9.211  1.2307  0.6944  1.4054
  133SAPE  C21514365   4.724   3.699   9.038  0.4646 -0.1898 -0.0563
  133SAPE  H15R14366   4.624   3.730   9.006  0.6765  2.3926  1.6556
  133SAPE  C21614367   4.812   3.614   8.951  0.7352 -0.8580 -0.3182
  133SAPE  H16R14368   4.904   3.578   9.002 -0.3857 -1.9029  1.0249
  133SAPE  H16S14369   4.854   3.671   8.865  1.3198 -2.0814 -0.8558
  133SAPE  C21714370   4.748   3.486   8.898 -0.3422  0.3318 -0.3771
  133SAPE  H17R14371   4.658   3.509   8.838  0.5001  3.7754 -0.3900
  133SAPE  H17S14372   4.703   3.436   8.987 -1.6122 -1.1330 -1.7943
  133SAPE  C21814373   4.834   3.400   8.809 -0.6435  0.5245 -0.3602
  133SAPE  H18R14374   4.864   3.452   8.715 -2.7090  1.0285 -0.7862
  133SAPE  H18S14375   4.760   3.328   8.766 -0.5237 -0.3734  0.9165
  133SAPE  C21914376   4.957   3.334   8.874 -0.2775  0.3123 -0.4000
  133SAPE  H19R14377   4.923   3.286   8.969 -1.9832 -1.2612 -1.7687
  133SAPE  H19S14378   5.028   3.418   8.891 -1.3341  1.2749 -0.6530
  133SAPE  C22014379   5.027   3.233   8.787 -0.8624  0.2524 -0.1768
  133SAPE  H20R14380   5.126   3.200   8.824 -0.3433 -0.7577 -2.3697
  133SAPE  H20S14381   5.057   3.271   8.687 -0.8745 -0.3206 -0.3955
  133SAPE  H20T14382   4.958   3.147   8.782 -0.4933  0.0083 -1.3506
  133SAPE   C3314383   5.473   3.579  10.207 -0.1951 -0.5766 -0.7966
  133SAPE   H3X14384   5.517   3.514  10.285  1.4511  0.6926 -0.6619
  133SAPE   H3Y14385   5.517   3.678  10.232 -1.1303 -0.3331 -0.0710
  133SAPE   C3414386   5.520   3.524  10.068  0.1199  0.2088  0.0569
  133SAPE   H4X14387   5.629   3.501  10.067 -0.2112 -1.4891  1.7489
  133SAPE   H4Y14388   5.499   3.599   9.989 -0.2262  0.9950  0.8887
  133SAPE   C3514389   5.453   3.390  10.036 -0.4783 -0.2859 -0.1472
  133SAPE   H5X14390   5.342   3.392  10.036 -0.4654  0.7057  0.2621
  133SAPE   H5Y14391   5.490   3.317  10.111  1.2616  0.6946 -0.0361
  133SAPE   C3614392   5.496   3.326   9.901  0.7873 -1.4158  0.5843
  133SAPE   H6X14393   5.443   3.230   9.885  2.7718 -2.3274 -0.6598
  133SAPE   H6Y14394   5.605   3.303   9.904  0.6590 -2.6471 -2.3492
  133SAPE   C3714395   5.483   3.416   9.776 -0.6975 -0.7481 -0.8205
  133SAPE   H7X14396   5.516   3.521   9.792  0.3815 -1.3114  0.7247
  133SAPE   H7Y14397   5.376   3.429   9.747 -1.2170  4.6014  2.7764
  133SAPE   C3814398   5.555   3.367   9.648 -0.8175 -0.0726 -0.1879
  133SAPE   H8X14399   5.534   3.260   9.626  0.3976 -0.6663  1.4128
  133SAPE   H8Y14400   5.663   3.364   9.676 -0.5452 -4.7988 -1.3503
  133SAPE   C3914401   5.529   3.456   9.528 -0.5054 -0.0752 -0.7604
  133SAPE   H9X14402   5.550   3.562   9.555 -0.5890 -0.1414 -0.4367
  133SAPE   H9Y14403   5.424   3.435   9.498 -0.6519 -0.6576  0.1368
  133SAPE  C31014404   5.609   3.418   9.402  0.3209  0.0298 -0.3255
  133SAPE  H10X14405   5.582   3.460   9.303  2.1600  0.7305 -0.5519
  133SAPE  H10Y14406   5.598   3.308   9.404  0.9619 -0.0197  0.7501
  133SAPE  C31114407   5.759   3.447   9.415 -0.2017  0.0595  0.6386
  133SAPE  H11X14408   5.799   3.421   9.516 -1.6278 -0.6831  1.0122
  133SAPE  H11Y14409   5.766   3.558   9.407 -0.6529  0.0540  0.1963
  133SAPE  C31214410   5.835   3.381   9.297  0.2063  1.2028  0.0555
  133SAPE  H12X14411   5.787   3.399   9.199 -0.2098 -0.3710 -0.0543
  133SAPE  H12Y14412   5.828   3.271   9.314  0.6183  1.1070 -0.3955
  133SAPE  C31314413   5.975   3.428   9.286  0.2391  0.0195 -0.1566
  133SAPE  H13X14414   6.021   3.429   9.387 -1.2400 -1.3101  0.5473
  133SAPE  H13Y14415   5.983   3.531   9.246  2.8828 -0.2615 -0.4546
  133SAPE  C31414416   6.063   3.344   9.191 -0.4804  0.2391 -0.2133
  133SAPE  H14X14417   6.072   3.244   9.239  1.5436 -0.0405 -1.1323
  133SAPE  H14Y14418   6.162   3.394   9.185  0.2149 -1.0836  0.1973
  133SAPE  C31514419   6.020   3.317   9.039 -0.0222  0.1291 -0.4087
  133SAPE  H15X14420   5.924   3.261   9.042  0.1688 -0.1585  0.9270
  133SAPE  H15Y14421   6.100   3.262   8.986  0.6142  0.7001 -0.0499
  133SAPE  C31614422   5.994   3.447   8.962  0.4944 -0.0885 -0.8583
  133SAPE  H16X14423   6.098   3.486   8.956  0.9474 -1.1808 -0.2576
  133SAPE  H16Y14424   5.927   3.512   9.023  0.7721 -1.3954  0.8821
  133SAPE  C31714425   5.940   3.414   8.823 -0.0617 -0.5581 -0.0586
  133SAPE  H17X14426   5.829   3.424   8.816  0.2159  2.7419 -0.4361
  133SAPE  H17Y14427   5.957   3.308   8.793  1.5517 -0.7923  1.6254
  133SAPE  C31814428   5.992   3.521   8.727  0.4189 -0.9070  0.8015
  133SAPE  H18X14429   5.930   3.518   8.634 -0.4002  0.4062  1.2916
  133SAPE  H18Y14430   6.099   3.504   8.706  0.2608  0.3101 -1.1247
  133SAPE  H18Z14431   5.980   3.626   8.760 -2.4547 -0.3114 -1.8762
  134SAPE     N14432   0.888   5.111  10.669 -0.5239 -0.3944 -0.0132
  134SAPE   HN114433   0.981   5.108  10.715  0.0798 -1.8397 -1.2939
  134SAPE   HN214434   0.905   5.147  10.573 -0.9564  1.4882  0.5954
  134SAPE   HN314435   0.841   5.185  10.725 -0.5753 -1.0512  0.8165
  134SAPE   C1214436   0.826   4.970  10.683  0.0430  0.2693 -0.0758
  134SAPE  H12A14437   0.723   4.971  10.642 -0.2753 -2.9048  0.5016
  134SAPE  H12B14438   0.822   4.950  10.792  1.2095 -0.1034 -0.0980
  134SAPE   C1114439   0.915   4.861  10.624  0.1613  0.2473  0.5695
  134SAPE  H11A14440   0.925   4.880  10.515 -1.0334 -3.3954 -0.2377
  134SAPE  H11B14441   0.853   4.769  10.631 -3.0532  2.3361  1.0932
  134SAPE     P14442   1.135   4.730  10.674  0.4872  0.3472  0.2510
  134SAPE   O1314443   1.242   4.734  10.780  0.2321  0.3538  0.1436
  134SAPE   O1414444   1.064   4.608  10.653 -0.0443 -0.1784 -0.4167
  134SAPE   O1214445   1.033   4.849  10.696  0.5728 -0.2365  0.0031
  134SAPE   O1114446   1.192   4.772  10.535  0.0036 -0.1632  0.0726
  134SAPE    C114447   1.255   4.891  10.500  1.1971  1.6205 -0.1882
  134SAPE    HA14448   1.183   4.948  10.438 -3.7930 -0.3881  3.4620
  134SAPE    HB14449   1.279   4.948  10.591  0.4350  1.1615  0.3061
  134SAPE    C214450   1.383   4.883  10.423  0.1120  0.8862 -0.3685
  134SAPE    HS14451   1.437   4.978  10.402  4.5059 -1.8723 -2.2744
  134SAPE   O2114452   1.365   4.797  10.308 -0.7658  0.1842  0.2686
  134SAPE   C2114453   1.304   4.857  10.204  0.2340 -0.4272  0.5296
  134SAPE   O2214454   1.264   4.972  10.200 -0.2954  0.0265 -0.8303
  134SAPE   C2214455   1.332   4.764  10.084 -0.1315  0.7219 -1.1158
  134SAPE   H2R14456   1.437   4.731  10.071  0.3734  2.0797 -0.6116
  134SAPE   H2S14457   1.280   4.669  10.108  1.8896 -0.5071 -1.4673
  134SAPE    C314458   1.496   4.823  10.511  0.6074 -0.2773  0.3770
  134SAPE    HX14459   1.453   4.724  10.537  1.6094 -0.2198  2.2991
  134SAPE    HY14460   1.498   4.880  10.606 -1.0105 -0.0100  0.2618
  134SAPE   O3114461   1.622   4.831  10.451  0.4149 -0.2542  0.4270
  134SAPE   C3114462   1.667   4.721  10.388 -0.4446 -0.6281 -0.0240
  134SAPE   O3214463   1.606   4.616  10.371  0.0815 -0.7973 -0.3693
  134SAPE   C3214464   1.813   4.750  10.341  0.3768  0.0246 -0.6259
  134SAPE   H2X14465   1.867   4.790  10.430  0.4263 -0.2356 -0.5402
  134SAPE   H2Y14466   1.819   4.812  10.249  3.1962 -2.4923 -2.2510
  134SAPE   C2314467   1.276   4.820   9.952 -0.3618 -0.2341  0.0859
  134SAPE   H3R14468   1.306   4.919   9.911 -0.5066  0.7559  2.2978
  134SAPE   H3S14469   1.166   4.808   9.944 -0.5376  1.0526  0.5092
  134SAPE   C2414470   1.320   4.723   9.832  0.2039  0.2250  0.0431
  134SAPE   H4R14471   1.431   4.717   9.825  0.0706 -0.4793 -1.7888
  134SAPE   H4S14472   1.296   4.780   9.740 -0.5371 -1.3230 -0.7482
  134SAPE   C2514473   1.254   4.581   9.831 -0.2302 -0.3581 -0.3627
  134SAPE   H5R14474   1.222   4.543   9.930  0.2274 -0.9841 -0.4523
  134SAPE   C2614475   1.238   4.506   9.721  0.0332 -0.4685 -0.0953
  134SAPE   H6R14476   1.182   4.413   9.741 -0.4551  0.0595  1.0397
  134SAPE   C2714477   1.273   4.549   9.583 -1.3842  0.1379 -0.6729
  134SAPE   H7R14478   1.255   4.658   9.574  0.1277  0.3581 -1.1209
  134SAPE   H7S14479   1.204   4.490   9.519 -0.8043  1.6143 -2.6719
  134SAPE   C2814480   1.421   4.520   9.548 -0.9941 -0.3504  0.4522
  134SAPE   H8R14481   1.498   4.567   9.611 -1.6133  0.1410  0.8405
  134SAPE   C2914482   1.451   4.437   9.451 -0.3059  0.3476  0.1973
  134SAPE   H9R14483   1.558   4.429   9.426 -0.7552 -2.5442 -1.0011
  134SAPE  C21014484   1.351   4.354   9.363 -0.8717  0.1094 -0.5301
  134SAPE  H10R14485   1.277   4.427   9.322 -1.5450 -0.6106 -0.6023
  134SAPE  H10S14486   1.291   4.282   9.423 -2.5607  2.1793  0.3426
  134SAPE  C21114487   1.422   4.295   9.246  0.2096 -0.4446 -0.1434
  134SAPE  H11R14488   1.378   4.322   9.148  1.0839  0.6059 -0.2494
  134SAPE  C21214489   1.510   4.189   9.247  0.0134  0.3808 -0.3358
  134SAPE  H12R14490   1.547   4.165   9.146 -1.2926  3.4894 -1.6514
  134SAPE  C21314491   1.561   4.121   9.369 -0.0697  0.1681  0.5502
  134SAPE  H13R14492   1.577   4.196   9.450  0.0227  0.2025  0.4993
  134SAPE  H13S14493   1.664   4.087   9.345 -0.5292  0.2354 -1.6334
  134SAPE  C21414494   1.467   4.006   9.406 -0.4631  0.2789 -0.2669
  134SAPE  H14R14495   1.466   3.923   9.333  1.8539 -0.8285  0.9047
  134SAPE  C21514496   1.393   4.007   9.523  0.0678  0.5324 -0.8710
  134SAPE  H15R14497   1.313   3.931   9.527 -0.3009  0.8842 -1.5155
  134SAPE  C21614498   1.382   4.108   9.626  0.2934  0.1450 -0.0287
  134SAPE  H16R14499   1.289   4.093   9.684 -0.3515 -0.5114 -1.2232
  134SAPE  H16S14500   1.389   4.213   9.590  1.1007 -0.0303 -0.4047
  134SAPE  C21714501   1.507   4.100   9.717 -0.6518 -1.0304 -0.2871
  134SAPE  H17R14502   1.596   4.126   9.656 -1.6974  1.1915 -0.8929
  134SAPE  H17S14503   1.516   4.001   9.767  1.2384 -0.0751  1.2993
  134SAPE  C21814504   1.506   4.200   9.827  0.3488  0.5965  0.0828
  134SAPE  H18R14505   1.490   4.297   9.775 -1.1870  2.3264  3.6586
  134SAPE  H18S14506   1.604   4.201   9.879  0.0543 -0.9925  0.7121
  134SAPE  C21914507   1.393   4.171   9.925  0.8684  0.1014  0.2409
  134SAPE  H19R14508   1.391   4.069   9.968 -1.3646 -0.0566 -0.1792
  134SAPE  H19S14509   1.293   4.190   9.881  0.7578 -0.8323  0.0805
  134SAPE  C22014510   1.403   4.269  10.043  0.2911 -0.4509 -0.5145
  134SAPE  H20R14511   1.407   4.373  10.006  1.5121  0.1769  1.3338
  134SAPE  H20S14512   1.493   4.246  10.104 -0.8059  0.4683  1.4858
  134SAPE  H20T14513   1.333   4.241  10.125  0.5424 -3.3517 -1.2141
  134SAPE   C3314514   1.887   4.622  10.295 -0.2073 -0.7495 -0.3635
  134SAPE   H3X14515   1.861   4.531  10.354  0.5209  0.3323  1.6651
  134SAPE   H3Y14516   1.997   4.629  10.305 -0.2710  0.2839 -0.3393
  134SAPE   C3414517   1.863   4.596  10.148 -0.0256  0.1250  0.1866
  134SAPE   H4X14518   1.883   4.679  10.077  0.6621  1.6137  2.0878
  134SAPE   H4Y14519   1.756   4.569  10.133 -0.0791  0.8834 -0.8253
  134SAPE   C3514520   1.948   4.479  10.088  0.1912  0.0931 -0.3264
  134SAPE   H5X14521   1.951   4.400  10.166  1.3207  1.7535  1.3677
  134SAPE   H5Y14522   2.056   4.502  10.077  0.5420  0.1053  2.7558
  134SAPE   C3614523   1.900   4.403   9.965 -0.5249 -0.3169 -0.0802
  134SAPE   H6X14524   1.793   4.375   9.975 -0.5459  0.0766  0.8604
  134SAPE   H6Y14525   1.956   4.309   9.946 -2.2815 -1.5853  0.8885
  134SAPE   C3714526   1.911   4.473   9.832 -0.6556 -0.3730 -0.1840
  134SAPE   H7X14527   2.019   4.500   9.828 -0.6623 -0.6110 -2.3567
  134SAPE   H7Y14528   1.854   4.569   9.831  0.8894  0.6058  2.0608
  134SAPE   C3814529   1.869   4.381   9.718 -0.9962 -0.7404  0.0919
  134SAPE   H8X14530   1.758   4.371   9.711 -1.0817 -0.7424  1.3534
  134SAPE   H8Y14531   1.919   4.283   9.719  1.8967  0.6979  2.1564
  134SAPE   C3914532   1.910   4.442   9.579  0.3989 -0.0604  0.2673
  134SAPE   H9X14533   2.020   4.453   9.581  0.4666 -0.7811  0.8697
  134SAPE   H9Y14534   1.870   4.546   9.579  1.0905  0.2543 -3.5256
  134SAPE  C31014535   1.855   4.366   9.465  0.8853  0.3415  0.3342
  134SAPE  H10X14536   1.745   4.351   9.471  0.7888  0.5176 -0.8506
  134SAPE  H10Y14537   1.899   4.264   9.461  0.9484  0.4595 -3.7418
  134SAPE  C31114538   1.890   4.431   9.329 -0.0165 -0.0548  0.0938
  134SAPE  H11X14539   1.979   4.494   9.345  3.6854 -5.0489  0.2720
  134SAPE  H11Y14540   1.805   4.496   9.298  1.0051  0.9539 -0.6078
  134SAPE  C31214541   1.902   4.329   9.219  0.4317 -0.2094  0.2347
  134SAPE  H12X14542   1.810   4.272   9.194  0.0833  0.5149 -0.1543
  134SAPE  H12Y14543   1.974   4.249   9.246  0.6217 -0.0381  0.2447
  134SAPE  C31314544   1.936   4.400   9.090 -0.0491 -0.4011  0.2475
  134SAPE  H13X14545   2.020   4.468   9.116  0.5435 -0.8606 -0.4609
  134SAPE  H13Y14546   1.844   4.459   9.072 -0.0903  0.0916  1.9009
  134SAPE  C31414547   1.984   4.306   8.983 -0.4020 -0.5340 -0.1700
  134SAPE  H14X14548   2.073   4.247   9.015  0.5169  1.1433  0.4356
  134SAPE  H14Y14549   2.027   4.362   8.897  1.7825  0.0131  1.2105
  134SAPE  C31514550   1.879   4.207   8.923  0.2484  0.4484  1.0042
  134SAPE  H15X14551   1.796   4.193   8.996  0.1526 -1.8670  0.5031
  134SAPE  H15Y14552   1.921   4.109   8.893 -0.0996  0.1919  1.3541
  134SAPE  C31614553   1.802   4.268   8.799 -0.2548  0.8377 -0.4027
  134SAPE  H16X14554   1.751   4.359   8.836  1.1480  1.8551 -0.9020
  134SAPE  H16Y14555   1.730   4.197   8.753 -0.3888  0.5104  0.3056
  134SAPE  C31714556   1.892   4.299   8.683  0.0750 -0.8463 -0.2024
  134SAPE  H17X14557   1.965   4.223   8.647  0.7095 -0.6698  0.6709
  134SAPE  H17Y14558   1.965   4.378   8.709 -2.8486  1.3944  1.4540
  134SAPE  C31814559   1.818   4.346   8.560 -0.1508 -0.0320  0.1625
  134SAPE  H18X14560   1.736   4.282   8.521 -0.2481  0.7974 -1.0513
  134SAPE  H18Y14561   1.880   4.382   8.474 -0.3688  3.7667  1.5065
  134SAPE  H18Z14562   1.764   4.443   8.571 -2.9373 -1.6902  1.6026
  135SAPE     N14563   0.794   3.181  10.286  0.6518  0.1302 -0.0426
  135SAPE   HN114564   0.827   3.276  10.257 -1.4163  0.3114 -1.9609
  135SAPE   HN214565   0.865   3.106  10.284  0.1486 -0.3602  0.6709
  135SAPE   HN314566   0.718   3.152  10.220  0.7378 -2.4438  0.9464
  135SAPE   C1214567   0.716   3.181  10.410 -0.5049  0.2330 -0.7635
  135SAPE  H12A14568   0.660   3.085  10.421 -0.0513  0.0222 -0.2856
  135SAPE  H12B14569   0.646   3.267  10.413 -0.8571 -0.1024  1.0784
  135SAPE   C1114570   0.815   3.197  10.530 -0.4931  0.7582 -0.1596
  135SAPE  H11A14571   0.764   3.192  10.629 -2.0733  1.5055 -0.9300
  135SAPE  H11B14572   0.849   3.302  10.520  1.4085  0.4409  2.2079
  135SAPE     P14573   0.917   2.949  10.563  0.2065  0.1316 -0.0942
  135SAPE   O1314574   1.057   2.894  10.554  0.3355 -0.1152  0.4746
  135SAPE   O1414575   0.832   2.919  10.679  0.0961  0.1966  0.2306
  135SAPE   O1214576   0.923   3.106  10.533 -0.2877  0.4927 -0.6687
  135SAPE   O1114577   0.845   2.904  10.428  0.2429  0.9453 -0.0873
  135SAPE    C114578   0.898   2.776  10.375  0.0989 -0.5796  0.4446
  135SAPE    HA14579   0.996   2.791  10.325  1.0699  1.2101  2.7674
  135SAPE    HB14580   0.914   2.701  10.455 -0.5536 -3.0600 -1.6881
  135SAPE    C214581   0.800   2.710  10.272  0.0582  0.2897 -0.2765
  135SAPE    HS14582   0.707   2.678  10.323  0.5520  0.0499  0.4676
  135SAPE   O2114583   0.866   2.595  10.216 -0.2070  0.4522 -0.3064
  135SAPE   C2114584   0.861   2.487  10.291  0.1172  0.6814  0.0652
  135SAPE   O2214585   0.817   2.476  10.409  0.1933  0.2366 -0.3271
  135SAPE   C2214586   0.924   2.373  10.207 -0.3382 -0.9662  0.0672
  135SAPE   H2R14587   1.007   2.419  10.150  0.7991 -2.8124  0.1802
  135SAPE   H2S14588   0.983   2.306  10.273  2.8693  1.9972  0.3589
  135SAPE    C314589   0.745   2.809  10.168  0.3234  1.2513  0.6903
  135SAPE    HX14590   0.833   2.865  10.127  1.5402 -2.4158 -2.0337
  135SAPE    HY14591   0.680   2.879  10.224  0.0423  2.1889 -0.7676
  135SAPE   O3114592   0.679   2.730  10.070  0.1902  0.1486 -0.0415
  135SAPE   C3114593   0.631   2.787   9.958 -0.2142  0.3739  0.3535
  135SAPE   O3214594   0.658   2.900   9.921 -0.3277  0.2288  0.3831
  135SAPE   C3214595   0.543   2.689   9.884  0.6650  0.0503 -0.5404
  135SAPE   H2X14596   0.435   2.704   9.906 -0.1885 -1.8819 -3.1611
  135SAPE   H2Y14597   0.571   2.588   9.922 -1.1400  0.0583  0.8450
  135SAPE   C2314598   0.830   2.314  10.114 -0.1480  0.6089 -0.2594
  135SAPE   H3R14599   0.778   2.396  10.060 -0.4213  0.1091 -0.7527
  135SAPE   H3S14600   0.749   2.262  10.169 -0.3804 -1.8915 -2.8657
  135SAPE   C2414601   0.890   2.211  10.012  0.6670  0.4879 -0.6193
  135SAPE   H4R14602   0.804   2.160   9.964 -0.2479  0.3676  1.0966
  135SAPE   H4S14603   0.948   2.134  10.067  1.0030  1.2851  0.1668
  135SAPE   C2514604   0.977   2.272   9.913  0.3083 -0.5683 -0.5416
  135SAPE   H5R14605   1.068   2.315   9.958 -2.7656  2.7219  2.8235
  135SAPE   C2614606   0.962   2.272   9.782 -0.2387 -0.1287 -0.0712
  135SAPE   H6R14607   1.026   2.328   9.713 -0.3669 -0.6321 -0.6148
  135SAPE   C2714608   0.852   2.209   9.702  0.1227  0.2055  0.3144
  135SAPE   H7R14609   0.839   2.261   9.604  1.5989  0.6256  0.3283
  135SAPE   H7S14610   0.754   2.223   9.753 -1.3295 -2.8744 -1.4507
  135SAPE   C2814611   0.873   2.060   9.677 -0.2212 -0.4301 -0.3202
  135SAPE   H8R14612   0.876   2.005   9.773 -0.2918 -1.2546 -0.7926
  135SAPE   C2914613   0.882   1.988   9.569 -0.8115  0.2130  0.3637
  135SAPE   H9R14614   0.901   1.881   9.584 -1.5500 -0.4208 -2.7554
  135SAPE  C21014615   0.884   2.030   9.424 -0.1653 -0.2076  0.0189
  135SAPE  H10R14616   0.993   2.022   9.401 -0.4103 -2.1151 -0.5662
  135SAPE  H10S14617   0.853   2.135   9.405 -1.6264 -0.9588 -1.8972
  135SAPE  C21114618   0.808   1.935   9.334 -0.3273 -0.7958 -0.5639
  135SAPE  H11R14619   0.736   1.867   9.383  0.5541 -0.0519  1.7925
  135SAPE  C21214620   0.825   1.926   9.196  0.7338  0.6433 -0.1962
  135SAPE  H12R14621   0.765   1.856   9.136  0.1311  0.6358  0.4080
  135SAPE  C21314622   0.903   2.012   9.103 -1.2762  0.2618  0.0693
  135SAPE  H13R14623   0.942   2.096   9.165  0.0755 -0.5505  0.3369
  135SAPE  H13S14624   0.843   2.048   9.017 -0.4928  1.3297 -0.0372
  135SAPE  C21414625   1.020   1.932   9.045  0.7918 -0.2898 -0.2908
  135SAPE  H14R14626   1.118   1.959   9.089  1.2085  0.5387 -1.7122
  135SAPE  C21514627   1.010   1.842   8.950 -0.6477  0.0678 -0.1441
  135SAPE  H15R14628   1.105   1.806   8.907 -0.0383 -0.8735  1.9300
  135SAPE  C21614629   0.883   1.801   8.875  0.2173 -0.4309  0.3136
  135SAPE  H16R14630   0.815   1.887   8.859  0.4396 -0.3165 -0.0097
  135SAPE  H16S14631   0.818   1.728   8.929 -0.9438  0.2895 -0.0913
  135SAPE  C21714632   0.927   1.762   8.736  0.0954 -0.0495  0.0503
  135SAPE  H17R14633   1.023   1.811   8.710  1.3749 -2.5549 -0.0729
  135SAPE  H17S14634   0.846   1.793   8.667  0.6456  2.0075  0.3028
  135SAPE  C21814635   0.930   1.608   8.730  0.2140 -0.8198  0.8015
  135SAPE  H18R14636   0.830   1.563   8.749  0.4132 -2.4706 -1.7392
  135SAPE  H18S14637   0.994   1.580   8.816  1.5472 -1.9324 -0.5310
  135SAPE  C21914638   0.987   1.546   8.601 -0.1833 -0.1317  0.4898
  135SAPE  H19R14639   0.970   1.436   8.607  2.2495 -0.5564 -0.0865
  135SAPE  H19S14640   1.098   1.553   8.603 -0.2489  0.7018  1.7617
  135SAPE  C22014641   0.924   1.600   8.477 -0.8953  0.3014  0.0910
  135SAPE  H20R14642   0.969   1.551   8.389 -2.7327  0.7719 -1.1400
  135SAPE  H20S14643   0.944   1.709   8.468  3.3450 -0.2315  1.8915
  135SAPE  H20T14644   0.813   1.594   8.472 -0.9633 -0.5572  2.2705
  135SAPE   C3314645   0.539   2.698   9.731 -0.6531  0.0434 -0.3890
  135SAPE   H3X14646   0.501   2.801   9.711 -0.7776  0.4354  1.7968
  135SAPE   H3Y14647   0.463   2.627   9.690  0.8954 -1.0233 -1.4741
  135SAPE   C3414648   0.664   2.650   9.669 -0.0966 -0.8799 -0.1591
  135SAPE   H4X14649   0.669   2.539   9.662  0.4491 -0.9564  1.2126
  135SAPE   H4Y14650   0.747   2.678   9.737 -1.0826  1.0017  0.3023
  135SAPE   C3514651   0.679   2.694   9.525 -0.0237 -0.1360  0.2028
  135SAPE   H5X14652   0.684   2.804   9.540  1.2276 -0.1912  0.2666
  135SAPE   H5Y14653   0.585   2.674   9.470 -1.4604  2.6841  1.5307
  135SAPE   C3614654   0.799   2.650   9.454  0.4547  0.4226 -0.6194
  135SAPE   H6X14655   0.802   2.539   9.463 -1.4017  0.4221  0.0989
  135SAPE   H6Y14656   0.884   2.689   9.515  1.5408 -1.3133 -0.9621
  135SAPE   C3714657   0.800   2.681   9.298  0.1459  0.1451  0.2328
  135SAPE   H7X14658   0.825   2.787   9.274 -1.3879  0.3196 -0.5914
  135SAPE   H7Y14659   0.703   2.657   9.251  0.1330 -1.9146  1.2848
  135SAPE   C3814660   0.904   2.601   9.220  0.3287 -0.1447  0.1094
  135SAPE   H8X14661   0.889   2.495   9.250  0.3085 -0.1376  0.1235
  135SAPE   H8Y14662   1.007   2.624   9.254  0.4002  0.2958 -0.3937
  135SAPE   C3914663   0.890   2.615   9.066  0.1664  0.4747 -0.3547
  135SAPE   H9X14664   0.895   2.722   9.039 -4.5736  1.2152  1.1470
  135SAPE   H9Y14665   0.795   2.571   9.029 -0.5369 -0.8094  2.7837
  135SAPE  C31014666   1.009   2.539   9.005 -0.6121 -0.0402  1.0942
  135SAPE  H10X14667   1.015   2.432   9.033  1.7769 -0.4221 -0.6611
  135SAPE  H10Y14668   1.104   2.571   9.053  1.3088  0.3368 -2.7199
  135SAPE  C31114669   1.014   2.548   8.849 -0.2575 -0.0055 -0.2746
  135SAPE  H11X14670   0.922   2.506   8.804 -0.7659 -1.1089  1.7630
  135SAPE  H11Y14671   1.090   2.471   8.822 -0.8919 -0.9223  0.5314
  135SAPE  C31214672   1.060   2.690   8.788  0.2374  0.7520 -0.5947
  135SAPE  H12X14673   1.148   2.739   8.835  1.3181 -2.3086  0.6445
  135SAPE  H12Y14674   0.978   2.757   8.821  1.2765  2.0167 -0.5485
  135SAPE  C31314675   1.091   2.692   8.637  0.4497  0.0061 -0.0465
  135SAPE  H13X14676   1.101   2.801   8.615 -1.9994  0.1181 -0.7355
  135SAPE  H13Y14677   1.014   2.650   8.570  1.1252 -0.6788 -0.3957
  135SAPE  C31414678   1.210   2.611   8.609 -0.3376 -0.0713  0.0964
  135SAPE  H14X14679   1.246   2.613   8.503 -0.8352  0.1856 -0.0666
  135SAPE  H14Y14680   1.190   2.503   8.625 -0.6302 -0.0537 -0.1457
  135SAPE  C31514681   1.345   2.647   8.700  0.2816  0.0072  0.4539
  135SAPE  H15X14682   1.315   2.620   8.804  1.2347  1.7515  1.2012
  135SAPE  H15Y14683   1.373   2.754   8.696  0.1145  0.0646  0.7804
  135SAPE  C31614684   1.466   2.551   8.674  0.8106 -0.6480 -0.5808
  135SAPE  H16X14685   1.434   2.445   8.662  0.9913 -0.9833  1.6363
  135SAPE  H16Y14686   1.538   2.547   8.759  0.4490  1.3305 -0.1696
  135SAPE  C31714687   1.554   2.585   8.555 -0.6202 -0.2308  0.2553
  135SAPE  H17X14688   1.528   2.687   8.519  0.7372  0.1600  0.3540
  135SAPE  H17Y14689   1.530   2.517   8.470 -1.1588 -0.5701  0.6739
  135SAPE  C31814690   1.699   2.587   8.581  0.8260  0.1140  0.1394
  135SAPE  H18X14691   1.759   2.649   8.511  1.8735 -1.0835 -0.0414
  135SAPE  H18Y14692   1.753   2.490   8.581  0.0867 -0.3048 -0.1457
  135SAPE  H18Z14693   1.714   2.624   8.684 -0.9138 -3.0399  1.6090
  136SAPE     N14694   3.494   3.123  10.754  0.0490  0.6719  0.4008
  136SAPE   HN114695   3.577   3.134  10.815  1.0298  0.3654 -0.8607
  136SAPE   HN214696   3.513   3.142  10.654 -3.0083  1.7170 -0.0205
  136SAPE   HN314697   3.428   3.193  10.793 -0.4844 -1.0854  2.7924
  136SAPE   C1214698   3.430   2.990  10.771  0.8143 -0.2510 -0.4062
  136SAPE  H12A14699   3.335   2.992  10.713  0.6562 -1.9507 -0.2329
  136SAPE  H12B14700   3.402   2.979  10.878 -1.4018 -2.9453 -1.2092
  136SAPE   C1114701   3.516   2.878  10.710  0.3785 -0.0416  0.4751
  136SAPE  H11A14702   3.510   2.905  10.603  1.1147  0.2246  0.4959
  136SAPE  H11B14703   3.464   2.780  10.718 -1.0022  0.7661  1.6947
  136SAPE     P14704   3.691   2.798  10.888  0.1725  0.3066 -0.1028
  136SAPE   O1314705   3.833   2.806  10.907 -0.8784 -0.4633 -0.1362
  136SAPE   O1414706   3.606   2.845  11.003  0.1333 -0.1925  0.1137
  136SAPE   O1214707   3.649   2.877  10.759  0.0904 -0.0485 -0.4658
  136SAPE   O1114708   3.651   2.648  10.860  0.7431  0.0601 -0.2269
  136SAPE    C114709   3.741   2.573  10.775 -0.7345 -0.9639  0.9553
  136SAPE    HA14710   3.833   2.625  10.741 -0.6842  0.9195  3.7980
  136SAPE    HB14711   3.784   2.489  10.834  0.6120 -0.1523  1.1662
  136SAPE    C214712   3.671   2.521  10.653  0.0727  0.0041 -0.7343
  136SAPE    HS14713   3.749   2.452  10.614 -0.7010 -0.6500 -1.1403
  136SAPE   O2114714   3.636   2.627  10.565 -0.1562  0.6856  0.4789
  136SAPE   C2114715   3.733   2.678  10.491  0.3138  0.4929  0.4552
  136SAPE   O2214716   3.852   2.644  10.496  1.0533  0.2423  0.2668
  136SAPE   C2214717   3.679   2.782  10.397  0.2447  0.3033  0.3088
  136SAPE   H2R14718   3.579   2.745  10.365  0.8829  0.3260 -1.7817
  136SAPE   H2S14719   3.664   2.872  10.460 -1.0128 -0.0719  0.5490
  136SAPE    C314720   3.546   2.434  10.691  0.2524 -0.5814  0.1213
  136SAPE    HX14721   3.459   2.487  10.735  0.3442 -0.9362  0.7332
  136SAPE    HY14722   3.569   2.352  10.763 -2.1064 -1.3294  0.0708
  136SAPE   O3114723   3.497   2.361  10.572  0.0882  0.1162 -0.0726
  136SAPE   C3114724   3.435   2.435  10.477 -0.5636  0.6628  0.2685
  136SAPE   O3214725   3.392   2.548  10.487 -0.2843 -0.0923 -0.1324
  136SAPE   C3214726   3.424   2.342  10.355 -0.1507  0.4043 -0.6011
  136SAPE   H2X14727   3.359   2.394  10.282 -1.0107  2.2352  1.4201
  136SAPE   H2Y14728   3.377   2.245  10.383  1.3811 -0.0526  0.4778
  136SAPE   C2314729   3.770   2.825  10.279  0.1978 -0.9169  0.4750
  136SAPE   H3R14730   3.870   2.859  10.313  0.9508 -1.8325 -0.7670
  136SAPE   H3S14731   3.721   2.915  10.236  0.3388 -0.6089  0.9545
  136SAPE   C2414732   3.786   2.717  10.173  0.0785 -0.2631  0.3285
  136SAPE   H4R14733   3.835   2.626  10.214 -2.8517 -2.6961 -1.3299
  136SAPE   H4S14734   3.861   2.758  10.102 -1.8932  1.2365 -0.9365
  136SAPE   C2514735   3.664   2.674  10.094 -0.3991 -0.5091  0.2839
  136SAPE   H5R14736   3.581   2.646  10.161  0.0215  0.2593  1.1360
  136SAPE   C2614737   3.654   2.668   9.959 -0.2903 -0.5018  0.0897
  136SAPE   H6R14738   3.566   2.616   9.917  0.0191  0.0248 -1.2506
  136SAPE   C2714739   3.757   2.707   9.852  0.0988 -0.4687  0.1116
  136SAPE   H7R14740   3.810   2.801   9.878 -1.3383 -0.0757  1.7185
  136SAPE   H7S14741   3.709   2.737   9.756  2.5609  0.6306 -0.8405
  136SAPE   C2814742   3.846   2.592   9.800  0.2534 -0.0106  0.6859
  136SAPE   H8R14743   3.878   2.522   9.878 -1.8401 -0.7399  0.9342
  136SAPE   C2914744   3.879   2.558   9.676 -0.5645  0.8074 -0.0055
  136SAPE   H9R14745   3.940   2.468   9.662  0.0798  1.2230  0.1145
  136SAPE  C21014746   3.835   2.619   9.545  0.2536 -0.9190  0.2426
  136SAPE  H10R14747   3.917   2.660   9.482 -0.1421 -1.3357 -0.5413
  136SAPE  H10S14748   3.771   2.707   9.565  0.6358 -0.6939  0.4863
  136SAPE  C21114749   3.752   2.522   9.460 -0.4940 -0.0170 -0.3026
  136SAPE  H11R14750   3.743   2.420   9.499  0.9767  0.2437  0.7707
  136SAPE  C21214751   3.704   2.546   9.334 -0.0372  0.0797  0.5382
  136SAPE  H12R14752   3.649   2.463   9.287 -2.8217  0.6381  2.6726
  136SAPE  C21314753   3.725   2.668   9.248 -0.4176  0.3062  0.3687
  136SAPE  H13R14754   3.743   2.757   9.312  0.9394  1.1956 -1.2157
  136SAPE  H13S14755   3.628   2.694   9.200 -1.2906 -1.5677  1.0699
  136SAPE  C21414756   3.834   2.665   9.138 -0.3043  0.4738 -0.2149
  136SAPE  H14R14757   3.929   2.623   9.175 -1.1719 -0.4423  0.9769
  136SAPE  C21514758   3.828   2.714   9.012  0.6986  0.4862 -0.2443
  136SAPE  H15R14759   3.922   2.724   8.955  0.2540  1.2987 -0.8509
  136SAPE  C21614760   3.708   2.761   8.935 -0.1521 -0.2679  0.5012
  136SAPE  H16R14761   3.728   2.856   8.882 -0.0064 -0.7262 -0.2757
  136SAPE  H16S14762   3.623   2.784   9.003  0.5794  0.2815  1.2298
  136SAPE  C21714763   3.652   2.652   8.845 -0.1122 -0.2583 -0.7730
  136SAPE  H17R14764   3.658   2.554   8.897  1.3627 -1.6539 -3.4499
  136SAPE  H17S14765   3.723   2.654   8.760  1.3430  3.2409  0.4075
  136SAPE  C21814766   3.517   2.680   8.787  0.6110 -0.0444  0.5381
  136SAPE  H18R14767   3.511   2.776   8.731  0.0326 -0.1579  0.3993
  136SAPE  H18S14768   3.438   2.691   8.864 -0.3662 -1.4881 -0.2379
  136SAPE  C21914769   3.470   2.560   8.702  0.7557  0.0875 -0.0082
  136SAPE  H19R14770   3.452   2.472   8.768  1.0831 -0.9214 -1.2377
  136SAPE  H19S14771   3.554   2.541   8.632  0.3751 -1.3717 -0.0803
  136SAPE  C22014772   3.340   2.589   8.620 -0.6164  0.1207 -0.1724
  136SAPE  H20R14773   3.257   2.646   8.667 -1.4633 -1.1057 -0.1615
  136SAPE  H20S14774   3.288   2.497   8.584 -0.3539 -0.1377  0.1050
  136SAPE  H20T14775   3.373   2.636   8.525 -0.3892  0.3236  0.0069
  136SAPE   C3314776   3.560   2.289  10.295 -0.1060 -0.1575 -0.6588
  136SAPE   H3X14777   3.617   2.232  10.372  0.5727 -0.0592 -1.0867
  136SAPE   H3Y14778   3.624   2.374  10.265 -0.4200  0.6826  0.9895
  136SAPE   C3414779   3.538   2.193  10.172  0.4291 -0.1616 -0.0466
  136SAPE   H4X14780   3.481   2.102  10.202  1.1142 -0.5783 -0.0193
  136SAPE   H4Y14781   3.640   2.167  10.139  0.9868  0.3788  1.2170
  136SAPE   C3514782   3.455   2.260  10.063  0.1791 -0.5011 -0.3562
  136SAPE   H5X14783   3.502   2.357  10.034  2.4905 -1.1343  1.1210
  136SAPE   H5Y14784   3.352   2.286  10.093 -0.2421 -0.6490 -1.6256
  136SAPE   C3614785   3.446   2.178   9.937  0.5938 -0.1063  0.1086
  136SAPE   H6X14786   3.379   2.229   9.864 -2.4502 -1.6491  1.7438
  136SAPE   H6Y14787   3.419   2.072   9.959 -2.4530  0.8263  1.0962
  136SAPE   C3714788   3.568   2.175   9.846 -0.0657  0.0973  0.3913
  136SAPE   H7X14789   3.665   2.150   9.893  0.1704  1.8927  0.8592
  136SAPE   H7Y14790   3.578   2.279   9.808 -1.4380  0.3565  0.6922
  136SAPE   C3814791   3.545   2.085   9.729  0.3810  0.0465  0.1217
  136SAPE   H8X14792   3.442   2.101   9.691 -0.4273 -2.0466  1.3438
  136SAPE   H8Y14793   3.558   1.980   9.762 -1.0470  0.1666  1.0894
  136SAPE   C3914794   3.638   2.116   9.609  0.0044 -0.1670  0.1792
  136SAPE   H9X14795   3.736   2.070   9.631  0.5313  0.1425 -1.4451
  136SAPE   H9Y14796   3.644   2.227   9.609 -0.2126 -0.1555  0.4665
  136SAPE  C31014797   3.579   2.079   9.471  0.9801  0.1791 -0.0375
  136SAPE  H10X14798   3.481   2.123   9.445  2.0734  2.6802 -0.0171
  136SAPE  H10Y14799   3.563   1.969   9.475  1.6754  0.1158  1.3196
  136SAPE  C31114800   3.663   2.113   9.349 -0.1956  0.5484  0.3226
  136SAPE  H11X14801   3.762   2.062   9.349  0.6914  2.2341  0.7341
  136SAPE  H11Y14802   3.684   2.222   9.341  2.4916 -0.0502 -1.8310
  136SAPE  C31214803   3.582   2.089   9.215  0.4250  0.4134  0.1666
  136SAPE  H12X14804   3.486   2.146   9.212  0.2085 -0.0008 -1.7019
  136SAPE  H12Y14805   3.559   1.981   9.212 -0.6183  0.6481 -1.2990
  136SAPE  C31314806   3.670   2.115   9.094 -0.2964 -0.1363 -0.5053
  136SAPE  H13X14807   3.769   2.066   9.113 -0.4151  0.0784  0.7211
  136SAPE  H13Y14808   3.692   2.224   9.102  2.4235 -0.7015  0.4747
  136SAPE  C31414809   3.610   2.083   8.956  0.2954  0.1572  0.4301
  136SAPE  H14X14810   3.587   1.974   8.949 -2.6006  0.7651  0.0243
  136SAPE  H14Y14811   3.688   2.097   8.878 -0.2143 -0.7875 -0.2612
  136SAPE  C31514812   3.486   2.162   8.929  0.5328  0.1151  0.5208
  136SAPE  H15X14813   3.515   2.267   8.950 -1.1346  0.8342 -0.6508
  136SAPE  H15Y14814   3.403   2.135   8.998  1.8384 -1.1886  1.5908
  136SAPE  C31614815   3.431   2.166   8.786 -0.1273 -0.3493  0.0834
  136SAPE  H16X14816   3.517   2.184   8.718  2.1668  0.8909  3.1870
  136SAPE  H16Y14817   3.359   2.249   8.769 -0.6506 -0.4471  1.6906
  136SAPE  C31714818   3.364   2.039   8.740 -0.6870  0.9043  0.2078
  136SAPE  H17X14819   3.277   2.007   8.801 -1.3673 -1.8025 -2.1029
  136SAPE  H17Y14820   3.442   1.962   8.757  0.1754  1.4730 -1.1429
  136SAPE  C31814821   3.311   2.026   8.593  0.1156  0.1438 -0.2977
  136SAPE  H18X14822   3.390   2.048   8.518  1.5153 -0.0864  1.0724
  136SAPE  H18Y14823   3.238   2.108   8.581 -0.7942 -0.4873  0.8294
  136SAPE  H18Z14824   3.261   1.928   8.581  0.4930  0.2083 -2.5817
  137SAPE     N14825   2.036   6.123  10.930  0.3691  0.3563 -1.2404
  137SAPE   HN114826   2.113   6.193  10.939  0.7108 -0.0992 -0.4960
  137SAPE   HN214827   2.035   6.095  10.830  1.3141 -0.1344 -1.1187
  137SAPE   HN314828   1.943   6.156  10.960  0.3695 -2.1509  1.8210
  137SAPE   C1214829   2.047   5.988  11.001 -0.4179  0.2182  0.0099
  137SAPE  H12A14830   2.063   6.005  11.110  1.7179  0.8269 -0.3854
  137SAPE  H12B14831   2.126   5.926  10.954  0.1197  0.3123  0.7628
  137SAPE   C1114832   1.912   5.917  10.981 -0.6628  0.0007  0.1264
  137SAPE  H11A14833   1.903   5.835  11.056  2.5665 -0.6371 -0.1197
  137SAPE  H11B14834   1.912   5.870  10.881 -0.4348 -1.0047  0.5942
  137SAPE     P14835   1.650   5.944  10.988  0.2513  0.5901 -0.1485
  137SAPE   O1314836   1.632   5.811  11.046  0.4061 -0.5221  0.3548
  137SAPE   O1414837   1.559   6.046  11.039 -0.2486  0.8263  0.1315
  137SAPE   O1214838   1.799   6.004  11.009 -0.0493 -0.3811  0.0694
  137SAPE   O1114839   1.637   5.935  10.836 -0.2487 -0.4915  0.1511
  137SAPE    C114840   1.713   6.018  10.748  0.3009 -0.0153 -0.3326
  137SAPE    HA14841   1.785   6.088  10.794 -0.4758 -0.1393  1.0763
  137SAPE    HB14842   1.782   5.953  10.691  1.6110  2.5822 -1.8138
  137SAPE    C214843   1.625   6.116  10.650  0.3007  0.4457 -0.2792
  137SAPE    HS14844   1.550   6.159  10.720  0.3178  0.6709 -0.4011
  137SAPE   O2114845   1.576   6.019  10.556  0.3406 -1.3040  0.5170
  137SAPE   C2114846   1.479   6.062  10.474 -0.7259 -0.0422  0.0752
  137SAPE   O2214847   1.416   6.166  10.494 -0.5258  0.3190  0.3271
  137SAPE   C2214848   1.464   5.972  10.347  0.3981 -0.3410  0.3215
  137SAPE   H2R14849   1.568   5.955  10.312 -0.0471 -1.5613 -0.4234
  137SAPE   H2S14850   1.427   5.874  10.382 -0.5292  0.0101  0.3310
  137SAPE    C314851   1.702   6.243  10.595 -0.1681 -0.0431  0.7065
  137SAPE    HX14852   1.754   6.300  10.675 -1.0739  0.4601  0.9460
  137SAPE    HY14853   1.631   6.324  10.568 -0.5170  0.2727  2.5173
  137SAPE   O3114854   1.794   6.200  10.487  0.0743  0.1630 -0.6263
  137SAPE   C3114855   1.915   6.167  10.531 -0.3725 -0.2274 -0.5698
  137SAPE   O3214856   1.961   6.183  10.642  0.3309 -0.3011  0.2342
  137SAPE   C3214857   1.995   6.106  10.418 -0.2197 -0.0399  0.1220
  137SAPE   H2X14858   2.095   6.082  10.459  0.4577  3.6628  0.8129
  137SAPE   H2Y14859   2.007   6.178  10.334  2.1962 -0.3007  0.2302
  137SAPE   C2314860   1.375   6.030  10.235 -0.4640 -0.1841 -0.5808
  137SAPE   H3R14861   1.429   6.116  10.190  0.6296 -1.1375 -1.1163
  137SAPE   H3S14862   1.280   6.069  10.277 -1.1310 -0.1044 -2.1268
  137SAPE   C2414863   1.345   5.920  10.129  0.4908 -0.3722  0.2906
  137SAPE   H4R14864   1.441   5.865  10.124  1.7511  1.8334 -0.1704
  137SAPE   H4S14865   1.333   5.991  10.045  1.5129  1.7082  1.8857
  137SAPE   C2514866   1.231   5.832  10.160 -0.1794  0.6497  0.1545
  137SAPE   H5R14867   1.222   5.804  10.266 -1.0486  0.1577 -0.0348
  137SAPE   C2614868   1.128   5.810  10.077  0.2425  0.7745  1.0919
  137SAPE   H6R14869   1.050   5.741  10.113 -1.2775  1.1379 -1.3604
  137SAPE   C2714870   1.116   5.861   9.934 -0.1394 -0.8109  0.9821
  137SAPE   H7R14871   1.115   5.762   9.882 -1.0636 -1.2709  1.8432
  137SAPE   H7S14872   1.210   5.911   9.907  0.9161 -3.9982 -1.6023
  137SAPE   C2814873   1.000   5.948   9.906  0.1648 -0.4545  0.0092
  137SAPE   H8R14874   0.928   5.967   9.987 -2.8541  1.5010 -2.9565
  137SAPE   C2914875   0.956   5.972   9.776 -0.0518  0.6316 -0.2172
  137SAPE   H9R14876   0.863   6.027   9.758 -0.4137  0.5135  1.2132
  137SAPE  C21014877   1.021   5.924   9.651 -0.1822 -0.2078  0.2260
  137SAPE  H10R14878   1.130   5.903   9.661 -0.1164  0.6745  1.4903
  137SAPE  H10S14879   1.015   6.003   9.574 -1.2638  0.5548  1.0778
  137SAPE  C21114880   0.963   5.788   9.593  0.6918 -0.9990  0.7941
  137SAPE  H11R14881   0.878   5.750   9.651  0.2374  0.4891  1.1333
  137SAPE  C21214882   1.003   5.730   9.479 -0.0936 -0.2625 -0.2239
  137SAPE  H12R14883   0.947   5.643   9.442  3.0677 -1.8001 -1.5643
  137SAPE  C21314884   1.122   5.769   9.389  0.1886 -0.7006 -0.6021
  137SAPE  H13R14885   1.176   5.850   9.443  0.8137 -2.1964  1.0963
  137SAPE  H13S14886   1.091   5.801   9.287  1.2750  0.0473 -0.7013
  137SAPE  C21414887   1.226   5.660   9.383 -0.3108  0.1568  0.5407
  137SAPE  H14R14888   1.299   5.653   9.465  1.8009 -0.4759 -1.3568
  137SAPE  C21514889   1.242   5.571   9.279 -0.1775 -0.0817 -0.6600
  137SAPE  H15R14890   1.330   5.504   9.287 -0.8025 -0.7984  0.3372
  137SAPE  C21614891   1.170   5.570   9.148  0.2663  0.4784 -0.5579
  137SAPE  H16R14892   1.225   5.636   9.077  1.7597  0.4671  0.5739
  137SAPE  H16S14893   1.067   5.611   9.155 -1.0657 -2.5515 -1.4117
  137SAPE  C21714894   1.139   5.425   9.092 -0.1350 -0.0357  0.2121
  137SAPE  H17R14895   1.082   5.442   8.998 -0.0155 -0.5101  0.0540
  137SAPE  H17S14896   1.068   5.370   9.157  0.2820 -1.6386 -0.6546
  137SAPE  C21814897   1.262   5.345   9.054  1.1023  0.4838 -0.4645
  137SAPE  H18R14898   1.304   5.318   9.154 -1.5288 -0.8064  0.3519
  137SAPE  H18S14899   1.334   5.412   9.004 -0.0178  2.6056  0.6712
  137SAPE  C21914900   1.234   5.229   8.954 -0.3910  0.4782  0.2437
  137SAPE  H19R14901   1.337   5.196   8.927 -0.4967  0.9842 -0.7941
  137SAPE  H19S14902   1.200   5.272   8.858 -0.2508 -0.7006 -0.3487
  137SAPE  C22014903   1.150   5.110   9.006  0.1528 -0.3007  0.2496
  137SAPE  H20R14904   1.169   5.018   8.947  1.1860 -1.1723  1.8963
  137SAPE  H20S14905   1.042   5.135   8.995 -0.0350 -1.5614 -0.8130
  137SAPE  H20T14906   1.164   5.090   9.115  2.9034  3.0520  0.5848
  137SAPE   C3314907   1.931   5.983  10.356 -0.4012 -0.0536  0.7456
  137SAPE   H3X14908   1.825   6.013  10.340 -0.4683  0.2305  1.6700
  137SAPE   H3Y14909   1.933   5.896  10.425 -0.7009  0.0188  0.8467
  137SAPE   C3414910   1.985   5.950  10.218 -0.2384  0.1058 -0.0141
  137SAPE   H4X14911   2.084   5.900  10.228 -1.4873 -2.8248 -1.5412
  137SAPE   H4Y14912   2.000   6.041  10.156 -3.2981  1.9768  1.8397
  137SAPE   C3514913   1.894   5.846  10.145 -0.8253 -0.0300  1.2640
  137SAPE   H5X14914   1.799   5.904  10.149 -1.5244 -1.1820  1.7118
  137SAPE   H5Y14915   1.879   5.750  10.199  2.4160 -1.5044 -0.3394
  137SAPE   C3614916   1.949   5.816  10.005 -0.2461  0.0184 -0.5194
  137SAPE   H6X14917   1.984   5.915   9.968 -0.5636  0.2372 -0.2372
  137SAPE   H6Y14918   1.855   5.795   9.949 -0.9651 -1.2305  1.1253
  137SAPE   C3714919   2.058   5.705   9.993  0.1524  0.0051  0.6057
  137SAPE   H7X14920   2.014   5.609  10.029  0.4281  0.3483  1.8769
  137SAPE   H7Y14921   2.144   5.745  10.051  1.1292  2.1251 -2.2214
  137SAPE   C3814922   2.120   5.683   9.853 -0.3452  0.5979  0.3503
  137SAPE   H8X14923   2.213   5.622   9.860 -0.6059 -0.2290 -2.7270
  137SAPE   H8Y14924   2.148   5.784   9.816  0.2187  0.2194 -0.2688
  137SAPE   C3914925   2.014   5.622   9.755 -0.0562  0.0993  0.0778
  137SAPE   H9X14926   1.921   5.682   9.750  0.5550  0.9845 -0.8714
  137SAPE   H9Y14927   1.978   5.524   9.795 -0.1607  0.5990  1.2309
  137SAPE  C31014928   2.058   5.611   9.600  0.0438 -0.5008  0.7018
  137SAPE  H10X14929   2.141   5.537   9.593  0.2416 -0.0149 -3.1657
  137SAPE  H10Y14930   2.084   5.707   9.552 -1.4290  1.4288  3.5832
  137SAPE  C31114931   1.944   5.561   9.507  0.5246 -0.1469  1.1681
  137SAPE  H11X14932   1.868   5.641   9.506 -1.1706 -1.6821 -2.1240
  137SAPE  H11Y14933   1.913   5.461   9.544  3.3690 -1.4575  0.1848
  137SAPE  C31214934   1.978   5.536   9.356 -0.2796 -0.4481  0.6395
  137SAPE  H12X14935   2.073   5.481   9.342  0.8590  1.3260  1.3442
  137SAPE  H12Y14936   1.999   5.633   9.307 -1.3063 -0.6769 -0.2919
  137SAPE  C31314937   1.858   5.471   9.283  0.0884 -0.2671 -0.1043
  137SAPE  H13X14938   1.770   5.539   9.285  1.2072  1.1804  1.7959
  137SAPE  H13Y14939   1.816   5.386   9.342 -1.4295  1.5526  1.5141
  137SAPE  C31414940   1.894   5.440   9.139  0.3149  0.2574 -0.4567
  137SAPE  H14X14941   1.952   5.345   9.144  1.3399  0.8468 -0.9211
  137SAPE  H14Y14942   1.953   5.523   9.094  0.2489  0.9484  0.7016
  137SAPE  C31514943   1.780   5.417   9.030  0.1403  0.6219 -0.5858
  137SAPE  H15X14944   1.821   5.436   8.928 -0.2978  0.0495 -0.8723
  137SAPE  H15Y14945   1.701   5.494   9.033  0.0978  0.5543 -0.0559
  137SAPE  C31614946   1.723   5.273   9.028  0.1672  0.5192 -0.5031
  137SAPE  H16X14947   1.668   5.257   9.124  0.6833 -0.2675 -0.3366
  137SAPE  H16Y14948   1.812   5.212   9.004 -1.2167 -0.8750 -2.2523
  137SAPE  C31714949   1.621   5.248   8.916 -0.2362 -0.0468 -0.0581
  137SAPE  H17X14950   1.664   5.290   8.822  1.3618 -0.5425  0.4288
  137SAPE  H17Y14951   1.523   5.293   8.940 -0.6706 -0.0276 -1.7583
  137SAPE  C31814952   1.598   5.095   8.907 -0.4836  0.1436 -0.3174
  137SAPE  H18X14953   1.694   5.041   8.895 -0.2798  0.3872  0.1889
  137SAPE  H18Y14954   1.527   5.066   8.827 -1.6767  0.5310  0.5757
  137SAPE  H18Z14955   1.561   5.057   9.005  1.2337  0.8236  0.6210
  138SAPE     N14956   5.229   5.898  10.823  0.4067  0.7259 -0.4111
  138SAPE   HN114957   5.288   5.892  10.738 -0.7363 -3.3378 -1.0489
  138SAPE   HN214958   5.206   5.797  10.839 -0.2696  1.0489  0.7559
  138SAPE   HN314959   5.131   5.929  10.808 -0.2897 -0.0923  2.2130
  138SAPE   C1214960   5.301   5.963  10.935 -0.0673  0.2760 -1.0364
  138SAPE  H12A14961   5.409   5.937  10.927  0.8069  3.1300  0.8747
  138SAPE  H12B14962   5.255   5.911  11.022 -0.3170  2.1163 -0.0540
  138SAPE   C1114963   5.287   6.118  10.928  0.4953  0.2352 -0.1492
  138SAPE  H11A14964   5.361   6.148  11.005 -0.5436  1.4457  0.3976
  138SAPE  H11B14965   5.185   6.147  10.961  1.2829  0.4814  2.1163
  138SAPE     P14966   5.330   6.337  10.785 -0.1705 -0.0441 -0.4408
  138SAPE   O1314967   5.321   6.405  10.912 -0.2686 -0.4734 -0.3482
  138SAPE   O1414968   5.449   6.374  10.706 -0.0271 -0.1860 -0.7927
  138SAPE   O1214969   5.321   6.175  10.797  0.0291 -0.2545 -0.1185
  138SAPE   O1114970   5.201   6.376  10.708 -0.7043  0.0629  0.4312
  138SAPE    C114971   5.093   6.291  10.662  0.0371 -0.3239  0.0129
  138SAPE    HA14972   5.084   6.195  10.718 -1.6236 -1.7814 -2.6468
  138SAPE    HB14973   5.000   6.349  10.677 -0.1734 -0.5348 -0.4808
  138SAPE    C214974   5.112   6.249  10.511  0.4519 -0.0747  0.0682
  138SAPE    HS14975   5.208   6.193  10.513  0.7386  0.4198  0.0770
  138SAPE   O2114976   5.116   6.368  10.427  0.0594  0.3542 -0.2886
  138SAPE   C2114977   5.206   6.363  10.334 -0.3983  0.6197  0.1833
  138SAPE   O2214978   5.286   6.269  10.313 -0.6003 -0.5353 -0.0134
  138SAPE   C2214979   5.176   6.483  10.244 -0.3428  0.6101 -0.3362
  138SAPE   H2R14980   5.086   6.458  10.185  0.4829 -1.0518 -0.9248
  138SAPE   H2S14981   5.139   6.566  10.308  0.2906  0.3617  0.3588
  138SAPE    C314982   5.005   6.160  10.456 -0.1374  0.5881  0.4284
  138SAPE    HX14983   4.904   6.205  10.466 -1.1477 -0.2058 -4.7801
  138SAPE    HY14984   4.996   6.065  10.512 -0.3758 -0.0657 -0.7018
  138SAPE   O3114985   5.029   6.126  10.308 -0.0536 -0.0568 -0.2629
  138SAPE   C3114986   5.103   6.016  10.303 -0.0127  0.1559  0.0696
  138SAPE   O3214987   5.168   5.959  10.385 -0.1686 -0.6068  0.0065
  138SAPE   C3214988   5.095   5.966  10.159 -0.3186 -0.5241  0.2141
  138SAPE   H2X14989   5.003   6.007  10.111 -2.0137 -0.6401  3.2453
  138SAPE   H2Y14990   5.091   5.855  10.162 -0.3005 -0.6948 -3.5852
  138SAPE   C2314991   5.295   6.519  10.149  0.0032 -0.0120  0.4998
  138SAPE   H3R14992   5.386   6.522  10.213  1.6343  2.3552 -1.8534
  138SAPE   H3S14993   5.277   6.620  10.107 -0.3374  0.5754  2.0264
  138SAPE   C2414994   5.300   6.443  10.018 -0.0358  0.6848  0.0809
  138SAPE   H4R14995   5.330   6.341  10.049  4.4233  2.4594  2.0404
  138SAPE   H4S14996   5.383   6.492   9.962  0.6834  0.5692  1.0476
  138SAPE   C2514997   5.177   6.447   9.936 -0.1401  0.2155 -0.3488
  138SAPE   H5R14998   5.088   6.391   9.968 -1.7250  2.9522  0.0761
  138SAPE   C2614999   5.158   6.503   9.814  0.2092 -0.6941 -0.3488
  138SAPE   H6R15000   5.061   6.491   9.763 -0.3337  0.4673  0.3640
  138SAPE   C2715001   5.263   6.573   9.728 -1.2207 -0.2991  0.1598
  138SAPE   H7R15002   5.330   6.628   9.797 -2.3349 -0.4111  1.3504
  138SAPE   H7S15003   5.207   6.660   9.685  1.7277  0.8596 -1.4949
  138SAPE   C2815004   5.331   6.492   9.618  0.0125 -0.1713 -1.0644
  138SAPE   H8R15005   5.421   6.440   9.655 -1.0926 -1.6401 -0.4021
  138SAPE   C2915006   5.297   6.478   9.485 -0.6054 -0.2706 -0.1540
  138SAPE   H9R15007   5.360   6.426   9.411  1.4437  0.4132  1.0584
  138SAPE  C21015008   5.182   6.559   9.424  0.0079  0.5986  0.1356
  138SAPE  H10R15009   5.214   6.664   9.406 -1.0377  0.5311 -2.2001
  138SAPE  H10S15010   5.093   6.578   9.489  1.2249 -0.3739  2.1407
  138SAPE  C21115011   5.137   6.505   9.290  0.2677  0.2778 -0.3273
  138SAPE  H11R15012   5.222   6.472   9.229  0.4731 -0.3048  0.2750
  138SAPE  C21215013   5.010   6.492   9.246 -0.5219  0.0196 -0.2968
  138SAPE  H12R15014   5.006   6.448   9.145 -1.1663  2.0668 -1.2058
  138SAPE  C21315015   4.874   6.526   9.305 -0.2095 -0.5305 -0.8676
  138SAPE  H13R15016   4.878   6.553   9.412 -1.6243  2.3308 -1.4883
  138SAPE  H13S15017   4.803   6.443   9.286 -2.9106  1.1653  1.3261
  138SAPE  C21415018   4.804   6.648   9.242 -0.5925  0.6951 -0.3622
  138SAPE  H14R15019   4.816   6.736   9.307 -0.0571  0.2327  0.1654
  138SAPE  C21515020   4.741   6.646   9.123  0.4941 -0.6214 -0.7435
  138SAPE  H15R15021   4.709   6.745   9.089 -1.4759 -0.8181  0.4726
  138SAPE  C21615022   4.716   6.522   9.038 -0.3942 -0.4163 -0.7514
  138SAPE  H16R15023   4.802   6.452   9.037 -0.8939 -1.0890  1.3789
  138SAPE  H16S15024   4.702   6.553   8.932 -0.5498 -1.6436 -1.0960
  138SAPE  C21715025   4.578   6.458   9.073 -0.1216 -0.9210 -0.3196
  138SAPE  H17R15026   4.496   6.522   9.111  2.3247  2.0129  0.2514
  138SAPE  H17S15027   4.587   6.398   9.167 -0.8281  0.1342  0.4344
  138SAPE  C21815028   4.517   6.383   8.964  0.0223  0.5880  0.0298
  138SAPE  H18R15029   4.429   6.331   9.007  0.4822 -0.2390 -0.0026
  138SAPE  H18S15030   4.593   6.309   8.930  0.1298  0.2868  0.9218
  138SAPE  C21915031   4.461   6.465   8.855  0.4869 -0.3271 -0.2629
  138SAPE  H19R15032   4.470   6.574   8.875  0.7707 -0.1450 -1.3431
  138SAPE  H19S15033   4.354   6.438   8.843  0.4092  0.0173 -0.3511
  138SAPE  C22015034   4.534   6.451   8.716 -0.7938 -0.0331  0.0346
  138SAPE  H20R15035   4.642   6.464   8.737 -1.1173  1.4500  0.9169
  138SAPE  H20S15036   4.487   6.519   8.642  0.0437  1.4392  0.8101
  138SAPE  H20T15037   4.528   6.344   8.690  1.0412 -0.6725  2.0589
  138SAPE   C3315038   5.207   6.019  10.079 -0.2543 -1.0679  0.1862
  138SAPE   H3X15039   5.304   5.975  10.109  1.1864 -0.7310 -3.7775
  138SAPE   H3Y15040   5.216   6.130  10.090 -0.1101 -1.1234  0.6612
  138SAPE   C3415041   5.188   6.008   9.926 -0.1070 -0.0034 -0.1969
  138SAPE   H4X15042   5.257   6.081   9.880  0.9229  0.5202  2.1204
  138SAPE   H4Y15043   5.085   6.041   9.902 -0.7650 -1.7559  0.1291
  138SAPE   C3515044   5.213   5.875   9.863  0.3648  0.5699  0.3477
  138SAPE   H5X15045   5.146   5.795   9.900 -0.4189  1.3564  0.6606
  138SAPE   H5Y15046   5.316   5.843   9.888 -0.3506 -0.7480  1.7058
  138SAPE   C3615047   5.188   5.872   9.711 -0.2558 -0.4424 -0.1532
  138SAPE   H6X15048   5.204   5.975   9.672  1.9910 -0.3885  0.8062
  138SAPE   H6Y15049   5.080   5.852   9.698 -0.4842  1.6051 -1.7862
  138SAPE   C3715050   5.269   5.771   9.630  0.1431  0.2711 -0.3152
  138SAPE   H7X15051   5.374   5.758   9.662 -0.2895 -0.6398  0.7814
  138SAPE   H7Y15052   5.264   5.808   9.525 -2.0422 -1.1710 -0.7678
  138SAPE   C3815053   5.221   5.626   9.622 -0.1169  0.6394 -0.0214
  138SAPE   H8X15054   5.120   5.642   9.579  0.5999  2.9099 -0.9289
  138SAPE   H8Y15055   5.209   5.582   9.723 -1.5031  3.7486  1.2244
  138SAPE   C3915056   5.316   5.540   9.537 -0.0827 -0.1492 -0.1038
  138SAPE   H9X15057   5.414   5.533   9.587  0.4673  1.7177 -0.8717
  138SAPE   H9Y15058   5.340   5.593   9.442 -0.3425  1.3579  0.6498
  138SAPE  C31015059   5.254   5.405   9.513  0.9834  0.1625  0.0805
  138SAPE  H10X15060   5.149   5.422   9.483  1.2628 -1.2033 -1.7116
  138SAPE  H10Y15061   5.264   5.345   9.606 -1.4063 -0.2476  0.1065
  138SAPE  C31115062   5.321   5.322   9.397  0.6614  0.4670  0.0936
  138SAPE  H11X15063   5.428   5.316   9.427  1.0902 -0.2926 -1.5069
  138SAPE  H11Y15064   5.297   5.378   9.304  1.2114  0.2831 -0.1645
  138SAPE  C31215065   5.273   5.172   9.383  0.0381 -0.7082  0.1713
  138SAPE  H12X15066   5.294   5.125   9.482  1.3747  1.1359  0.7925
  138SAPE  H12Y15067   5.333   5.115   9.309 -1.4699 -1.3137 -0.6030
  138SAPE  C31315068   5.122   5.160   9.355 -1.2142 -0.1268 -0.8354
  138SAPE  H13X15069   5.095   5.215   9.262 -0.1442 -0.5935 -1.4412
  138SAPE  H13Y15070   5.066   5.204   9.440 -0.6720 -2.1724  0.6186
  138SAPE  C31415071   5.070   5.014   9.354 -0.4739  0.2949 -0.4225
  138SAPE  H14X15072   4.960   5.010   9.342 -0.6725  0.6933  1.1858
  138SAPE  H14Y15073   5.092   4.962   9.450  2.8004  1.0043 -0.7239
  138SAPE  C31515074   5.140   4.928   9.249 -0.3319  0.2633  0.0052
  138SAPE  H15X15075   5.248   4.936   9.270 -0.8216  0.8240  2.4040
  138SAPE  H15Y15076   5.124   4.981   9.152  3.7821 -0.7831 -1.3288
  138SAPE  C31615077   5.081   4.785   9.246 -1.2789 -0.0073  0.4422
  138SAPE  H16X15078   4.971   4.792   9.230 -0.9426  0.9066 -1.7606
  138SAPE  H16Y15079   5.102   4.730   9.340 -0.6524 -1.9862 -0.8232
  138SAPE  C31715080   5.150   4.697   9.142  0.0494  0.2389  0.4240
  138SAPE  H17X15081   5.259   4.687   9.164 -0.0406 -1.9065 -0.0255
  138SAPE  H17Y15082   5.146   4.753   9.046  1.4305 -2.6873 -1.4292
  138SAPE  C31815083   5.094   4.551   9.129 -0.0491 -0.2998  0.6541
  138SAPE  H18X15084   5.140   4.487   9.050 -1.7479 -1.9817  0.9719
  138SAPE  H18Y15085   4.985   4.547   9.109  0.4227 -1.0799 -1.9550
  138SAPE  H18Z15086   5.129   4.498   9.220  0.7004  2.0719  1.7798
  139SAPE     N15087   4.466   4.596  10.614  0.4568 -0.2330 -0.0482
  139SAPE   HN115088   4.512   4.514  10.658 -0.6582 -1.4185 -1.0604
  139SAPE   HN215089   4.409   4.561  10.534 -0.2516  2.3743 -0.7634
  139SAPE   HN315090   4.543   4.659  10.585  0.2801  0.2011  0.3967
  139SAPE   C1215091   4.385   4.664  10.724 -0.3187  0.3054  0.5467
  139SAPE  H12A15092   4.452   4.695  10.807 -3.0641  0.7574  2.6406
  139SAPE  H12B15093   4.322   4.586  10.772  2.6278 -4.1708 -2.4866
  139SAPE   C1115094   4.314   4.782  10.662 -0.3152 -0.7482  0.2118
  139SAPE  H11A15095   4.243   4.831  10.732 -2.1816  0.5518 -2.4711
  139SAPE  H11B15096   4.257   4.743  10.575  1.5398 -2.7259 -0.1592
  139SAPE     P15097   4.388   5.007  10.535  0.2070 -0.3107 -0.0224
  139SAPE   O1315098   4.271   5.074  10.589  0.1899  0.2121 -1.0812
  139SAPE   O1415099   4.518   5.080  10.529 -0.4722  0.6092 -0.1705
  139SAPE   O1215100   4.414   4.868  10.611  0.3196 -0.1401  0.0019
  139SAPE   O1115101   4.352   4.969  10.388 -0.0047  0.1429  0.3474
  139SAPE    C115102   4.427   4.867  10.317 -0.4167 -0.2314 -0.4055
  139SAPE    HA15103   4.459   4.790  10.390  0.2288  0.6539  0.2491
  139SAPE    HB15104   4.356   4.811  10.252 -1.1663 -3.5913  3.1086
  139SAPE    C215105   4.556   4.919  10.250  0.9722  0.2594  0.3424
  139SAPE    HS15106   4.627   4.933  10.334  1.4313  0.2688 -0.0454
  139SAPE   O2115107   4.533   5.041  10.184  0.6303  0.0150 -0.0717
  139SAPE   C2115108   4.640   5.112  10.163  0.6034  0.0160 -0.0195
  139SAPE   O2215109   4.752   5.093  10.210  0.1685 -0.3546 -0.5172
  139SAPE   C2215110   4.593   5.242  10.099 -0.2027 -0.3521  0.1540
  139SAPE   H2R15111   4.539   5.224  10.003  1.4144  2.9636 -1.4632
  139SAPE   H2S15112   4.533   5.293  10.177  0.3629 -0.5571  0.7336
  139SAPE    C315113   4.604   4.817  10.145  0.0179 -0.0937  0.5830
  139SAPE    HX15114   4.704   4.850  10.110  0.0911 -0.3703  0.5254
  139SAPE    HY15115   4.529   4.841  10.067  1.8752 -0.1821 -1.2712
  139SAPE   O3115116   4.598   4.674  10.185  0.0437  0.5339  0.0102
  139SAPE   C3115117   4.711   4.627  10.241 -0.4257  0.1465 -0.1144
  139SAPE   O3215118   4.820   4.680  10.247  0.1659  0.8198  0.1662
  139SAPE   C3215119   4.680   4.488  10.291 -0.2960  0.5883 -0.1151
  139SAPE   H2X15120   4.571   4.469  10.303  0.2774 -4.0149 -1.3388
  139SAPE   H2Y15121   4.735   4.474  10.386 -3.5265  2.4307  2.1296
  139SAPE   C2315122   4.716   5.327  10.064  0.3790 -0.2080  0.0151
  139SAPE   H3R15123   4.793   5.322  10.144  1.5987 -0.5368 -1.1610
  139SAPE   H3S15124   4.678   5.431  10.056  0.3034 -0.2340  0.0339
  139SAPE   C2415125   4.782   5.278   9.936 -0.4146 -0.2654 -0.4356
  139SAPE   H4R15126   4.721   5.294   9.845 -0.8396  1.3854  0.1195
  139SAPE   H4S15127   4.801   5.169   9.944 -2.8124 -0.6292  0.5673
  139SAPE   C2515128   4.914   5.349   9.934  0.2737 -0.2365  0.0357
  139SAPE   H5R15129   4.995   5.306   9.995  2.5998  0.7072 -2.2838
  139SAPE   C2615130   4.946   5.448   9.851 -0.8599  0.4086 -0.6101
  139SAPE   H6R15131   5.048   5.488   9.864 -0.0805 -1.5940 -0.3869
  139SAPE   C2715132   4.856   5.508   9.753  0.5935 -0.4434 -0.8533
  139SAPE   H7R15133   4.870   5.618   9.751  0.3801 -0.3791  0.6851
  139SAPE   H7S15134   4.758   5.485   9.798  0.2918  1.3898 -0.5262
  139SAPE   C2815135   4.872   5.445   9.618 -0.1750 -0.2522  0.3482
  139SAPE   H8R15136   4.888   5.336   9.617 -1.4643 -0.4531 -0.7700
  139SAPE   C2915137   4.853   5.496   9.497 -0.4053  0.1627 -1.0939
  139SAPE   H9R15138   4.874   5.427   9.415  1.8439 -0.9400  0.3558
  139SAPE  C21015139   4.808   5.643   9.461 -0.5546 -0.2136 -0.4904
  139SAPE  H10R15140   4.886   5.715   9.429  1.3167 -0.1783  3.7919
  139SAPE  H10S15141   4.766   5.691   9.552  0.2627 -0.4785  0.0359
  139SAPE  C21115142   4.705   5.652   9.354  0.0541 -0.3904 -1.1360
  139SAPE  H11R15143   4.603   5.674   9.389 -0.3005 -1.1157 -1.7009
  139SAPE  C21215144   4.729   5.629   9.227 -0.3222 -0.1473  0.0990
  139SAPE  H12R15145   4.650   5.645   9.152  2.1682  3.0021 -2.0387
  139SAPE  C21315146   4.861   5.603   9.158  0.1726 -0.0281 -0.7181
  139SAPE  H13R15147   4.941   5.632   9.229  1.4808  1.3469 -2.7100
  139SAPE  H13S15148   4.875   5.671   9.071 -0.0323 -0.5287 -1.1411
  139SAPE  C21415149   4.861   5.456   9.119 -0.4093 -0.3114  0.1147
  139SAPE  H14R15150   4.882   5.392   9.205  1.4537 -0.5326 -0.4940
  139SAPE  C21515151   4.856   5.404   8.996  0.2315 -0.1853 -0.8770
  139SAPE  H15R15152   4.861   5.295   8.991 -3.9576 -0.6953  2.5596
  139SAPE  C21615153   4.834   5.478   8.870  0.8678 -0.6411  0.1969
  139SAPE  H16R15154   4.863   5.585   8.881 -0.3228 -0.2109 -0.7371
  139SAPE  H16S15155   4.730   5.482   8.831  1.0035  2.7133  0.0089
  139SAPE  C21715156   4.922   5.423   8.760  0.1113  1.0322  0.1715
  139SAPE  H17R15157   4.865   5.341   8.711  1.1004  0.4672 -0.0410
  139SAPE  H17S15158   4.995   5.358   8.812 -1.2366 -0.2374  0.4899
  139SAPE  C21815159   4.991   5.527   8.668 -0.1306  0.5648  0.8515
  139SAPE  H18R15160   5.049   5.484   8.584  0.6535  2.2552  0.4999
  139SAPE  H18S15161   5.062   5.584   8.731 -0.8174  1.0664  1.1860
  139SAPE  C21915162   4.884   5.621   8.600  0.1940 -0.1432 -0.0256
  139SAPE  H19R15163   4.859   5.706   8.666 -1.3110 -2.0602  1.9168
  139SAPE  H19S15164   4.796   5.555   8.584 -1.5635  2.4394 -1.2983
  139SAPE  C22015165   4.923   5.673   8.467 -0.0553 -0.1728 -0.5856
  139SAPE  H20R15166   4.841   5.738   8.429  0.8899  0.4346 -1.5993
  139SAPE  H20S15167   4.944   5.583   8.405  2.2492  0.7122 -1.1249
  139SAPE  H20T15168   5.011   5.739   8.475 -1.1251  1.2323 -0.1574
  139SAPE   C3315169   4.746   4.378  10.208 -0.7762  0.3790 -0.7556
  139SAPE   H3X15170   4.741   4.283  10.266  1.7935  0.5172 -0.2319
  139SAPE   H3Y15171   4.856   4.387  10.193 -0.6645  0.7808  0.2410
  139SAPE   C3415172   4.671   4.345  10.083 -0.5929  0.7707  0.2316
  139SAPE   H4X15173   4.564   4.328  10.110 -1.5839  1.6066 -2.9092
  139SAPE   H4Y15174   4.703   4.243  10.055  0.4645  1.8379 -2.5989
  139SAPE   C3515175   4.695   4.438   9.965 -0.1250  0.4179 -0.8074
  139SAPE   H5X15176   4.804   4.449   9.947 -0.1329 -0.0291 -1.1368
  139SAPE   H5Y15177   4.655   4.538   9.994 -1.7997 -0.1446 -1.0800
  139SAPE   C3615178   4.629   4.392   9.835  0.3400  0.1284 -0.5385
  139SAPE   H6X15179   4.522   4.380   9.861  0.5253  1.7069  0.9818
  139SAPE   H6Y15180   4.680   4.295   9.813  0.7664  0.3938 -0.7203
  139SAPE   C3715181   4.661   4.498   9.721  0.0919  0.3418 -0.1658
  139SAPE   H7X15182   4.765   4.534   9.727 -0.4341  2.0496 -1.0302
  139SAPE   H7Y15183   4.593   4.586   9.734  0.6776  0.9367 -1.1453
  139SAPE   C3815184   4.648   4.424   9.591 -0.0949  0.3317 -0.0784
  139SAPE   H8X15185   4.546   4.381   9.580  0.4312 -0.5218 -1.7989
  139SAPE   H8Y15186   4.725   4.344   9.587  1.6312  1.7134  3.2871
  139SAPE   C3915187   4.677   4.521   9.483  0.6489  0.4549 -0.3071
  139SAPE   H9X15188   4.787   4.534   9.492  0.6118 -0.5614  1.9251
  139SAPE   H9Y15189   4.625   4.615   9.512 -0.9111 -0.8359  1.2089
  139SAPE  C31015190   4.637   4.484   9.337 -0.4859  0.3100  0.5755
  139SAPE  H10X15191   4.529   4.462   9.346 -0.3337 -0.0190  1.6908
  139SAPE  H10Y15192   4.690   4.391   9.306  0.0933  0.8962 -0.2274
  139SAPE  C31115193   4.657   4.591   9.226  0.2873  0.1257  0.6208
  139SAPE  H11X15194   4.766   4.611   9.218  0.5495 -1.5048 -0.1470
  139SAPE  H11Y15195   4.602   4.682   9.257  0.5039 -0.0573  1.5615
  139SAPE  C31215196   4.607   4.539   9.086 -0.7134  0.2454 -0.2044
  139SAPE  H12X15197   4.506   4.499   9.105 -0.3703 -0.1903  0.7097
  139SAPE  H12Y15198   4.673   4.458   9.049  2.8803  3.8169 -1.9838
  139SAPE  C31315199   4.604   4.648   8.984  0.4659  0.0399 -0.9025
  139SAPE  H13X15200   4.598   4.744   9.040  2.9543  0.1945 -0.8768
  139SAPE  H13Y15201   4.504   4.656   8.934 -0.7053 -0.3832  1.3064
  139SAPE  C31415202   4.727   4.674   8.898  0.7386  0.0429 -0.5510
  139SAPE  H14X15203   4.719   4.609   8.808 -1.2007 -2.8947  1.6467
  139SAPE  H14Y15204   4.811   4.642   8.962 -0.2511  1.1877  1.3592
  139SAPE  C31515205   4.740   4.818   8.854 -0.3351  0.3549 -0.8442
  139SAPE  H15X15206   4.739   4.873   8.951 -3.0440  0.4486 -0.8887
  139SAPE  H15Y15207   4.652   4.872   8.814  0.2081  1.7939 -0.1436
  139SAPE  C31615208   4.869   4.841   8.785 -0.5156  0.4032 -0.1418
  139SAPE  H16X15209   4.951   4.790   8.840  0.4130  0.1845 -1.6838
  139SAPE  H16Y15210   4.860   4.800   8.682 -0.7056  1.1814 -0.4396
  139SAPE  C31715211   4.901   4.991   8.786 -0.0334 -0.0297  0.0020
  139SAPE  H17X15212   4.904   5.029   8.890 -0.5584 -0.9388  0.3516
  139SAPE  H17Y15213   4.830   5.060   8.735  0.7646 -0.2751 -1.4691
  139SAPE  C31815214   5.032   5.006   8.710 -0.2857 -0.3429  0.7712
  139SAPE  H18X15215   5.078   5.104   8.735  0.2001 -0.4993  0.4970
  139SAPE  H18Y15216   5.008   5.004   8.602  0.0015 -2.0835  0.7148
  139SAPE  H18Z15217   5.110   4.931   8.734 -1.1060 -1.2182  0.7363
  140SAPE     N15218   0.362   1.985  11.473  0.3823  0.2576 -0.1526
  140SAPE   HN115219   0.435   1.916  11.448 -0.9182 -0.9577 -0.6247
  140SAPE   HN215220   0.407   2.078  11.464 -0.9283  0.7823 -1.5057
  140SAPE   HN315221   0.324   1.975  11.569 -1.6984  0.4262 -0.9323
  140SAPE   C1215222   0.253   1.978  11.364  0.2077  0.3860 -0.6441
  140SAPE  H12A15223   0.202   2.077  11.360 -1.4143 -0.5167 -3.5216
  140SAPE  H12B15224   0.183   1.897  11.393  0.2292  0.8555  0.7899
  140SAPE   C1115225   0.328   1.958  11.231 -0.3579 -0.6540  0.2656
  140SAPE  H11A15226   0.246   1.950  11.156 -0.9565  0.3934  0.8038
  140SAPE  H11B15227   0.388   1.864  11.228  1.3677  0.4324  0.1590
  140SAPE     P15228   0.435   2.120  11.064 -0.0755 -0.2492 -0.3261
  140SAPE   O1315229   0.333   2.208  11.012  0.3894  0.8730  0.5303
  140SAPE   O1415230   0.566   2.186  11.085  0.6118  0.1263 -0.0827
  140SAPE   O1215231   0.410   2.069  11.210  0.2696 -0.5719 -0.6920
  140SAPE   O1115232   0.446   1.990  10.970 -0.4443 -0.0719 -0.2046
  140SAPE    C115233   0.345   1.951  10.875 -0.3014 -0.2446  0.0823
  140SAPE    HA15234   0.312   1.846  10.893 -0.2748  0.2669  3.4643
  140SAPE    HB15235   0.254   2.012  10.884  1.0887  1.7595  0.8307
  140SAPE    C215236   0.390   1.974  10.726 -0.4676  0.2686  0.0349
  140SAPE    HS15237   0.312   1.942  10.654  0.4118  1.1693 -1.3266
  140SAPE   O2115238   0.512   1.905  10.697  0.0471  0.1227  0.2014
  140SAPE   C2115239   0.506   1.772  10.704 -0.1282 -0.3786 -0.4237
  140SAPE   O2215240   0.409   1.708  10.735  0.1139  0.1799 -0.4391
  140SAPE   C2215241   0.644   1.723  10.664 -0.6459  0.2700  0.3954
  140SAPE   H2R15242   0.664   1.756  10.560 -1.4084  1.8939  0.7537
  140SAPE   H2S15243   0.718   1.763  10.736 -0.3163 -0.5045  0.4893
  140SAPE    C315244   0.408   2.121  10.702  0.2921  0.0973  0.4120
  140SAPE    HX15245   0.508   2.151  10.740 -0.5434  2.2332  0.9621
  140SAPE    HY15246   0.341   2.188  10.759 -0.1476 -0.8042  0.9587
  140SAPE   O3115247   0.396   2.156  10.559 -0.3741 -0.6865 -0.8078
  140SAPE   C3115248   0.465   2.265  10.520 -0.1416 -0.0220 -0.5549
  140SAPE   O3215249   0.501   2.355  10.596  0.7164 -0.2920 -0.5270
  140SAPE   C3215250   0.492   2.263  10.373  0.0946 -0.1610  0.4795
  140SAPE   H2X15251   0.470   2.166  10.324 -2.0923 -1.3837  3.6923
  140SAPE   H2Y15252   0.601   2.286  10.364  0.2033 -0.6945  0.4023
  140SAPE   C2315253   0.644   1.563  10.664  0.0657  0.2776  0.6068
  140SAPE   H3R15254   0.575   1.527  10.585  1.2453 -2.3786  0.7538
  140SAPE   H3S15255   0.602   1.529  10.762 -1.8368  0.8546  0.0188
  140SAPE   C2415256   0.773   1.509  10.616 -0.5345 -0.7043  0.1642
  140SAPE   H4R15257   0.802   1.562  10.523  1.6185  1.3576  1.9172
  140SAPE   H4S15258   0.764   1.402  10.591  3.3146 -0.8890 -0.7635
  140SAPE   C2515259   0.879   1.505  10.725  0.6409  0.6594 -0.1938
  140SAPE   H5R15260   0.841   1.471  10.822  0.7586  0.8369 -0.0849
  140SAPE   C2615261   1.006   1.539  10.713  0.1489  0.8680  0.4243
  140SAPE   H6R15262   1.083   1.524  10.790  2.0401 -1.4200 -1.8328
  140SAPE   C2715263   1.069   1.601  10.592 -0.6144  0.2506 -0.9970
  140SAPE   H7R15264   1.143   1.675  10.628 -1.3783  0.4855  0.1208
  140SAPE   H7S15265   0.995   1.665  10.539 -2.4206  1.1200  2.4189
  140SAPE   C2815266   1.152   1.508  10.507  0.5882  0.2642  0.0491
  140SAPE   H8R15267   1.169   1.414  10.562 -1.3098  1.3492  2.6489
  140SAPE   C2915268   1.170   1.526  10.374  0.1683  0.3734  0.0599
  140SAPE   H9R15269   1.245   1.472  10.314 -1.0762 -0.8578 -0.4111
  140SAPE  C21015270   1.111   1.643  10.299  1.0054 -0.4865 -0.5169
  140SAPE  H10R15271   1.187   1.672  10.224  1.6502 -1.2149 -0.1536
  140SAPE  H10S15272   1.083   1.729  10.364 -3.4182 -0.9907 -1.5366
  140SAPE  C21115273   0.975   1.602  10.237  0.0837  0.6934  0.1738
  140SAPE  H11R15274   0.897   1.582  10.313  0.4376  0.3972  0.4590
  140SAPE  C21215275   0.946   1.572  10.106  0.2312 -0.5553 -0.2681
  140SAPE  H12R15276   0.841   1.545  10.088 -0.1256  1.5677 -1.6020
  140SAPE  C21315277   1.032   1.578   9.984 -0.3402 -0.6349  0.8019
  140SAPE  H13R15278   1.139   1.597  10.010 -0.0677  1.0898 -1.4137
  140SAPE  H13S15279   1.005   1.667   9.923  0.2165 -0.7693  0.3528
  140SAPE  C21415280   1.018   1.455   9.902 -0.4622  0.2097 -0.3669
  140SAPE  H14R15281   0.964   1.368   9.941 -0.5547  1.1069  1.5345
  140SAPE  C21515282   1.071   1.434   9.775  0.3380 -0.4698 -0.3190
  140SAPE  H15R15283   1.055   1.333   9.736  0.7141 -0.3465 -0.7924
  140SAPE  C21615284   1.151   1.536   9.701 -0.5195  0.1567 -0.0639
  140SAPE  H16R15285   1.254   1.498   9.683 -1.0556 -1.0054 -0.7174
  140SAPE  H16S15286   1.148   1.634   9.754  0.6614  0.3638 -0.3513
  140SAPE  C21715287   1.081   1.557   9.567 -0.1051  0.0035  0.4819
  140SAPE  H17R15288   0.975   1.589   9.571 -0.2053 -0.0428 -1.3203
  140SAPE  H17S15289   1.083   1.468   9.501 -1.0772  0.3517 -0.0304
  140SAPE  C21815290   1.143   1.672   9.488  0.8301 -0.1207 -0.3485
  140SAPE  H18R15291   1.254   1.663   9.491  0.8576  0.4356  0.4186
  140SAPE  H18S15292   1.113   1.765   9.540 -2.7501 -2.0155  1.1350
  140SAPE  C21915293   1.091   1.682   9.346 -0.0453  0.6314  0.6204
  140SAPE  H19R15294   1.111   1.783   9.306 -3.2012  1.2956  0.6091
  140SAPE  H19S15295   0.980   1.671   9.346 -0.0668  0.8518  0.5416
  140SAPE  C22015296   1.155   1.581   9.246  0.8472 -0.6416  0.7992
  140SAPE  H20R15297   1.261   1.614   9.246  0.4430  0.7883  2.7923
  140SAPE  H20S15298   1.105   1.581   9.147  0.1833 -0.2160  1.1285
  140SAPE  H20T15299   1.160   1.476   9.281 -0.4300 -1.5672 -1.6973
  140SAPE   C3315300   0.423   2.383  10.309 -0.1488 -0.1710 -0.5639
  140SAPE   H3X15301   0.432   2.475  10.369 -4.9507  0.4831 -0.6688
  140SAPE   H3Y15302   0.315   2.365  10.328 -0.0860  0.9901  0.8966
  140SAPE   C3415303   0.457   2.408  10.168  0.6486  0.4516  0.1834
  140SAPE   H4X15304   0.564   2.390  10.146  0.6920  0.7063  0.1904
  140SAPE   H4Y15305   0.432   2.509  10.129 -0.0096  0.5425  0.8254
  140SAPE   C3515306   0.385   2.303  10.074  0.5060 -0.3779 -0.0720
  140SAPE   H5X15307   0.274   2.312  10.080  0.3730 -0.3972 -2.2833
  140SAPE   H5Y15308   0.410   2.202  10.113 -1.5773 -0.6256  0.6989
  140SAPE   C3615309   0.424   2.303   9.925 -0.2081 -0.7292  0.0202
  140SAPE   H6X15310   0.534   2.309   9.927 -0.1278 -0.9883 -2.4248
  140SAPE   H6Y15311   0.376   2.385   9.866  1.8500  0.8649  0.4882
  140SAPE   C3715312   0.374   2.172   9.858  0.4101 -0.3992 -0.0337
  140SAPE   H7X15313   0.266   2.179   9.835  1.2814  3.1917 -3.6759
  140SAPE   H7Y15314   0.369   2.089   9.931  0.8105  1.4134  2.1225
  140SAPE   C3815315   0.454   2.132   9.733  0.6129  0.1927  0.2967
  140SAPE   H8X15316   0.401   2.046   9.687  0.3995  1.0370 -1.0696
  140SAPE   H8Y15317   0.550   2.092   9.772 -0.1101 -1.9250 -0.0177
  140SAPE   C3915318   0.462   2.240   9.622 -0.6601 -0.4961 -0.5229
  140SAPE   H9X15319   0.522   2.325   9.662 -1.6392 -1.6269  3.5499
  140SAPE   H9Y15320   0.360   2.279   9.601 -1.6557 -1.7960  1.7827
  140SAPE  C31015321   0.506   2.184   9.492 -0.0950  0.2839 -0.3068
  140SAPE  H10X15322   0.430   2.113   9.454  2.6899 -2.2677 -1.3215
  140SAPE  H10Y15323   0.596   2.124   9.518  0.3100  0.4530 -1.3206
  140SAPE  C31115324   0.530   2.287   9.384 -0.1783  0.9202  0.8055
  140SAPE  H11X15325   0.620   2.341   9.419 -0.8160 -0.0489  4.0641
  140SAPE  H11Y15326   0.444   2.355   9.364  0.2832  0.8560 -1.6119
  140SAPE  C31215327   0.578   2.223   9.245  0.1759 -0.3851  0.3148
  140SAPE  H12X15328   0.501   2.154   9.203  1.5938 -2.2749  0.7321
  140SAPE  H12Y15329   0.670   2.162   9.255  0.3092 -0.7749 -2.6850
  140SAPE  C31315330   0.607   2.326   9.129 -0.4029  0.4820 -0.7570
  140SAPE  H13X15331   0.713   2.359   9.138 -1.0813  2.3054  0.9508
  140SAPE  H13Y15332   0.537   2.409   9.151 -1.0192 -0.1074 -0.5001
  140SAPE  C31415333   0.577   2.275   8.982  0.0913  0.3702  1.0212
  140SAPE  H14X15334   0.468   2.251   8.979 -0.2841  1.7781  2.6595
  140SAPE  H14Y15335   0.632   2.179   8.971  0.4968  0.6330  0.7656
  140SAPE  C31515336   0.612   2.367   8.860  0.1659 -0.5344 -0.1376
  140SAPE  H15X15337   0.719   2.393   8.874 -0.1101  0.4681  0.2136
  140SAPE  H15Y15338   0.544   2.452   8.885 -1.3330 -1.6981 -0.1367
  140SAPE  C31615339   0.608   2.311   8.713 -0.0188  0.3451 -0.6224
  140SAPE  H16X15340   0.505   2.272   8.697  0.0400  0.2784 -0.8460
  140SAPE  H16Y15341   0.671   2.220   8.711  0.1955  0.4648  0.5331
  140SAPE  C31715342   0.644   2.404   8.607  1.2089  0.3019 -0.3863
  140SAPE  H17X15343   0.704   2.489   8.648  1.5559 -0.1903  0.1349
  140SAPE  H17Y15344   0.554   2.457   8.570  0.8923 -0.0029 -0.0545
  140SAPE  C31815345   0.714   2.340   8.486  0.2622  0.2126  0.5505
  140SAPE  H18X15346   0.822   2.324   8.508  0.8064  2.6167 -0.2150
  140SAPE  H18Y15347   0.702   2.413   8.403  0.4000  1.5669  1.7081
  140SAPE  H18Z15348   0.668   2.248   8.444 -0.2152  1.7941 -2.5372
  141SAPE     N15349   0.784   2.714  10.852 -0.1191  0.0150  0.4305
  141SAPE   HN115350   0.682   2.712  10.871 -0.2952  0.1062 -0.4611
  141SAPE   HN215351   0.791   2.777  10.769 -2.3114  2.2451  1.8395
  141SAPE   HN315352   0.810   2.616  10.831 -2.2238 -0.6840  1.0238
  141SAPE   C1215353   0.851   2.780  10.969  0.0157 -0.0465  0.2387
  141SAPE  H12A15354   0.783   2.759  11.054 -1.2496 -1.6854 -1.1328
  141SAPE  H12B15355   0.861   2.890  10.959 -1.3307  0.1800  1.2133
  141SAPE   C1115356   0.981   2.713  11.014 -0.8796 -0.2084  0.1298
  141SAPE  H11A15357   1.012   2.758  11.111 -1.3668 -0.2142  0.2884
  141SAPE  H11B15358   1.052   2.739  10.933 -2.5111  0.4689 -1.1212
  141SAPE     P15359   1.048   2.464  11.106 -0.3409 -0.1945  0.2729
  141SAPE   O1315360   1.143   2.535  11.187 -0.0865  0.2817  0.2182
  141SAPE   O1415361   0.941   2.384  11.173  0.1689 -0.2928  0.3372
  141SAPE   O1215362   0.971   2.570  11.020 -0.4235 -0.2146  0.3296
  141SAPE   O1115363   1.117   2.357  11.004  0.0020 -0.0393 -0.5133
  141SAPE    C115364   1.194   2.403  10.898 -0.2371 -0.7229  0.2389
  141SAPE    HA15365   1.255   2.491  10.926 -2.9969  1.5766 -0.7158
  141SAPE    HB15366   1.272   2.335  10.858  1.1917  3.1532 -3.9657
  141SAPE    C215367   1.113   2.449  10.773  0.1719  0.8445  0.2436
  141SAPE    HS15368   1.044   2.531  10.801  0.5608  0.4664  2.3366
  141SAPE   O2115369   1.044   2.333  10.737  0.1824  0.0438  0.1417
  141SAPE   C2115370   0.911   2.345  10.733  0.5594 -0.3088 -0.3333
  141SAPE   O2215371   0.850   2.450  10.748 -0.5744 -0.0212  0.0462
  141SAPE   C2215372   0.847   2.211  10.681  0.2898 -0.0156 -0.5284
  141SAPE   H2R15373   0.879   2.122  10.741 -0.0076  0.4981  0.3947
  141SAPE   H2S15374   0.737   2.221  10.688  0.3438  0.6905 -0.7190
  141SAPE    C315375   1.215   2.503  10.660 -0.1498  0.9608 -0.1648
  141SAPE    HX15376   1.296   2.564  10.704  2.4033 -1.9680 -0.6206
  141SAPE    HY15377   1.167   2.562  10.579 -2.4508  1.2633  1.3766
  141SAPE   O3115378   1.283   2.387  10.605  0.1899  0.8569 -0.2170
  141SAPE   C3115379   1.257   2.350  10.482 -0.3172  0.1374  0.0617
  141SAPE   O3215380   1.192   2.411  10.399  0.1371 -0.4776 -0.2953
  141SAPE   C3215381   1.331   2.224  10.455 -0.1994  0.1458 -0.6055
  141SAPE   H2X15382   1.320   2.149  10.536  0.1694 -0.1467 -0.8255
  141SAPE   H2Y15383   1.438   2.244  10.432 -0.4638  1.0596 -1.0818
  141SAPE   C2315384   0.874   2.187  10.531  0.6433 -0.0610  0.6604
  141SAPE   H3R15385   0.963   2.239  10.489 -0.7975  1.7019 -0.2652
  141SAPE   H3S15386   0.789   2.223  10.469  0.9507  1.0760  0.8831
  141SAPE   C2415387   0.873   2.034  10.514 -0.4540  0.2912  0.1568
  141SAPE   H4R15388   0.778   1.995  10.555 -1.7610  0.1346 -2.8480
  141SAPE   H4S15389   0.962   1.995  10.567 -0.4018 -1.1159 -0.9274
  141SAPE   C2515390   0.886   1.977  10.371  0.0705 -0.7910  0.7826
  141SAPE   H5R15391   0.992   1.976  10.342  0.0909 -2.2871  0.8740
  141SAPE   C2615392   0.790   1.912  10.296 -0.5999 -0.1331  0.5535
  141SAPE   H6R15393   0.832   1.886  10.198  0.9022  4.6063 -0.1965
  141SAPE   C2715394   0.647   1.871  10.321 -0.9389 -0.2167 -0.0936
  141SAPE   H7R15395   0.584   1.945  10.268  0.7243  2.1055  1.0756
  141SAPE   H7S15396   0.617   1.889  10.426  0.2250 -0.7870  0.3495
  141SAPE   C2815397   0.630   1.723  10.270  1.1519  0.0878 -0.0776
  141SAPE   H8R15398   0.643   1.648  10.349  3.8848  0.1892 -0.3748
  141SAPE   C2915399   0.605   1.687  10.142  0.2018 -0.2694 -0.3368
  141SAPE   H9R15400   0.600   1.584  10.104 -4.8698 -0.2554 -0.1087
  141SAPE  C21015401   0.575   1.782  10.023 -0.1001  0.1187 -0.2162
  141SAPE  H10R15402   0.513   1.866  10.059 -0.3113 -0.6477  1.2579
  141SAPE  H10S15403   0.497   1.736   9.959  1.5240 -0.7813 -1.6176
  141SAPE  C21115404   0.706   1.817   9.949 -0.6434  1.2909 -0.1338
  141SAPE  H11R15405   0.778   1.878  10.005  0.2711  3.0768 -3.1634
  141SAPE  C21215406   0.740   1.762   9.831  0.1181  0.3425  0.4634
  141SAPE  H12R15407   0.836   1.789   9.784  0.1681  0.9473  0.9046
  141SAPE  C21315408   0.666   1.655   9.758  0.0612 -0.0063 -0.3803
  141SAPE  H13R15409   0.610   1.592   9.831 -1.0441  1.0887 -0.2811
  141SAPE  H13S15410   0.745   1.594   9.709 -0.3069 -0.3503 -0.5464
  141SAPE  C21415411   0.579   1.709   9.643 -0.7215 -0.6173 -0.8109
  141SAPE  H14R15412   0.513   1.793   9.669 -2.1182 -1.0826 -2.7065
  141SAPE  C21515413   0.579   1.666   9.522 -0.2635  0.3801  0.3446
  141SAPE  H15R15414   0.519   1.715   9.444 -1.3311  1.0094  1.5375
  141SAPE  C21615415   0.676   1.566   9.467 -0.3650  0.1016 -0.0432
  141SAPE  H16R15416   0.682   1.478   9.534  2.2520  0.5695  0.4109
  141SAPE  H16S15417   0.768   1.628   9.456 -0.3656  0.0068 -0.5651
  141SAPE  C21715418   0.636   1.524   9.326 -0.1399  0.1045 -0.1913
  141SAPE  H17R15419   0.596   1.603   9.259 -1.9247 -0.0889  0.6293
  141SAPE  H17S15420   0.549   1.456   9.337 -0.6994  0.6107 -1.3559
  141SAPE  C21815421   0.755   1.465   9.245  0.4722 -0.0930 -0.9644
  141SAPE  H18R15422   0.808   1.388   9.305 -0.2386  0.6259  0.5997
  141SAPE  H18S15423   0.829   1.545   9.223  0.7236 -0.2144 -0.5715
  141SAPE  C21915424   0.723   1.413   9.112  0.6982  0.0878  0.5166
  141SAPE  H19R15425   0.665   1.320   9.135  0.1975  0.4272  0.6371
  141SAPE  H19S15426   0.820   1.392   9.063  0.2604 -0.0696 -0.2811
  141SAPE  C22015427   0.621   1.497   9.020  0.7005 -0.2721  0.2464
  141SAPE  H20R15428   0.527   1.522   9.073  0.2022 -1.1743 -0.2061
  141SAPE  H20S15429   0.583   1.436   8.936  2.0976  0.3522 -0.8669
  141SAPE  H20T15430   0.668   1.592   8.986 -1.2581  0.6203 -0.0157
  141SAPE   C3315431   1.276   2.159  10.321  0.7695  0.4992  0.8001
  141SAPE   H3X15432   1.169   2.131  10.332  0.6034  1.0959  0.6977
  141SAPE   H3Y15433   1.334   2.064  10.322 -1.6683 -1.0110  1.1633
  141SAPE   C3415434   1.307   2.220  10.183  0.1720 -0.6627 -0.1993
  141SAPE   H4X15435   1.228   2.297  10.169  0.9615  0.3392  0.8029
  141SAPE   H4Y15436   1.300   2.147  10.099 -1.3972 -1.0026  0.2174
  141SAPE   C3515437   1.444   2.290  10.178 -0.6664  0.4441 -0.2055
  141SAPE   H5X15438   1.512   2.203  10.190  0.6643  1.1089 -2.4711
  141SAPE   H5Y15439   1.459   2.361  10.263 -2.6561 -1.0260  1.3994
  141SAPE   C3615440   1.469   2.353  10.039 -0.0826 -0.0676 -0.0105
  141SAPE   H6X15441   1.389   2.426  10.016 -0.5952 -0.4941  0.4313
  141SAPE   H6Y15442   1.459   2.280   9.956  2.8999  0.5221 -0.9628
  141SAPE   C3715443   1.618   2.399  10.024  0.0001 -1.0444  0.7180
  141SAPE   H7X15444   1.680   2.309  10.047  2.9987  0.8538  0.3744
  141SAPE   H7Y15445   1.623   2.475  10.104  2.0776 -1.3639  0.9175
  141SAPE   C3815446   1.645   2.447   9.886 -0.3917 -0.2309  0.8666
  141SAPE   H8X15447   1.725   2.524   9.886 -0.2745 -0.3297 -0.8447
  141SAPE   H8Y15448   1.551   2.494   9.851  0.0653  0.7282  0.8859
  141SAPE   C3915449   1.683   2.345   9.782 -0.1961 -0.0267  0.5871
  141SAPE   H9X15450   1.615   2.257   9.792 -0.1242 -0.0617  0.7586
  141SAPE   H9Y15451   1.785   2.312   9.810 -0.1800  0.4529  1.1015
  141SAPE  C31015452   1.671   2.396   9.642  0.1183 -0.3443 -0.0508
  141SAPE  H10X15453   1.712   2.499   9.636 -2.2241  0.6207  0.2310
  141SAPE  H10Y15454   1.563   2.408   9.618 -0.0182 -0.9874  0.2408
  141SAPE  C31115455   1.733   2.303   9.529 -0.3233 -0.0688  1.3914
  141SAPE  H11X15456   1.705   2.198   9.553 -0.8785 -0.9212 -2.5297
  141SAPE  H11Y15457   1.843   2.298   9.544 -0.0872  1.8346  0.5420
  141SAPE  C31215458   1.672   2.332   9.396 -0.7108  0.7202  0.2523
  141SAPE  H12X15459   1.695   2.436   9.364  0.8570 -0.1170 -1.4310
  141SAPE  H12Y15460   1.561   2.326   9.401 -0.5749 -2.1559  0.0972
  141SAPE  C31315461   1.735   2.242   9.289 -0.6836  0.2144  0.0065
  141SAPE  H13X15462   1.705   2.136   9.301  0.8513 -0.1391  0.9633
  141SAPE  H13Y15463   1.846   2.244   9.299 -0.7679  0.6747  0.9137
  141SAPE  C31415464   1.693   2.284   9.146 -0.3859 -0.1638  0.3369
  141SAPE  H14X15465   1.723   2.390   9.139 -1.2514  0.1457  1.1165
  141SAPE  H14Y15466   1.582   2.285   9.139 -0.3855 -1.6558 -0.0984
  141SAPE  C31515467   1.759   2.211   9.029 -0.2505 -0.5177  0.4072
  141SAPE  H15X15468   1.732   2.104   9.042  1.1423 -0.5074  3.9107
  141SAPE  H15Y15469   1.870   2.212   9.039 -0.2553  0.0030  0.4332
  141SAPE  C31615470   1.720   2.281   8.900  0.6607 -0.5713 -0.3229
  141SAPE  H16X15471   1.773   2.379   8.904  0.2826 -0.3710 -0.2503
  141SAPE  H16Y15472   1.611   2.302   8.899  0.7176  0.0648  2.5923
  141SAPE  C31715473   1.758   2.198   8.780 -0.6590  0.1004 -0.3258
  141SAPE  H17X15474   1.867   2.181   8.768 -0.9360 -0.9271 -1.4385
  141SAPE  H17Y15475   1.731   2.262   8.693  1.5688 -0.4117 -1.4191
  141SAPE  C31815476   1.698   2.058   8.771  0.9091 -0.6986 -0.5323
  141SAPE  H18X15477   1.590   2.067   8.793  0.9390  0.0720 -0.7125
  141SAPE  H18Y15478   1.744   1.989   8.846 -0.2740 -0.6163  0.2824
  141SAPE  H18Z15479   1.715   2.023   8.667 -0.6153 -0.4756 -0.8625
  142SAPE     N15480   1.129   2.096  10.951  0.1947 -0.5358 -0.0409
  142SAPE   HN115481   1.037   2.046  10.952 -1.3259  2.1218 -1.6649
  142SAPE   HN215482   1.179   2.075  11.040 -0.8015  0.0543  0.6716
  142SAPE   HN315483   1.107   2.198  10.951  1.7726 -0.1848 -0.0685
  142SAPE   C1215484   1.203   2.058  10.826  0.5443 -0.3393  0.8539
  142SAPE  H12A15485   1.281   2.137  10.816 -1.1214  1.3653  1.2045
  142SAPE  H12B15486   1.139   2.072  10.736 -0.7867 -0.4546  1.7872
  142SAPE   C1115487   1.252   1.915  10.823  0.3930  0.4832 -0.1890
  142SAPE  H11A15488   1.326   1.904  10.741  2.5685 -0.0775  1.7976
  142SAPE  H11B15489   1.160   1.855  10.810  0.2724  0.5933  0.1369
  142SAPE     P15490   1.363   1.726  10.980  0.2635  0.0603 -0.0553
  142SAPE   O1315491   1.436   1.723  11.105  0.0575  0.0280  0.0309
  142SAPE   O1415492   1.249   1.634  10.979 -0.0011 -0.1450 -0.1961
  142SAPE   O1215493   1.309   1.875  10.951 -0.0812 -0.1777  0.1405
  142SAPE   O1115494   1.458   1.694  10.856  0.8610 -0.1793 -0.0354
  142SAPE    C115495   1.428   1.587  10.770 -0.1240 -0.0083 -0.8827
  142SAPE    HA15496   1.427   1.490  10.824 -1.2824 -0.3004 -1.4032
  142SAPE    HB15497   1.334   1.604  10.713 -0.4663 -1.0107 -0.6320
  142SAPE    C215498   1.539   1.592  10.663 -0.3092  0.6636 -0.3447
  142SAPE    HS15499   1.630   1.624  10.719 -0.0694  1.9605 -1.4559
  142SAPE   O2115500   1.503   1.679  10.555 -0.6776  0.3218  0.2078
  142SAPE   C2115501   1.563   1.797  10.560 -0.0766  1.2889  0.6959
  142SAPE   O2215502   1.659   1.828  10.622 -0.2700  0.5158  0.3321
  142SAPE   C2215503   1.491   1.893  10.463  0.1387 -0.1166 -0.1433
  142SAPE   H2R15504   1.383   1.869  10.458 -0.0591  1.2582 -4.3883
  142SAPE   H2S15505   1.502   1.993  10.511  1.6948  0.0292 -0.7593
  142SAPE    C315506   1.559   1.450  10.595 -0.2050  0.6066 -0.1956
  142SAPE    HX15507   1.460   1.427  10.551 -1.0162  1.4925  1.1417
  142SAPE    HY15508   1.591   1.376  10.672  1.1523  0.8852 -0.4723
  142SAPE   O3115509   1.649   1.459  10.486 -0.0578 -0.2896  0.6811
  142SAPE   C3115510   1.777   1.478  10.523 -0.0021 -0.9892  0.4627
  142SAPE   O3215511   1.818   1.478  10.633 -0.4272 -0.4449  0.2551
  142SAPE   C3215512   1.863   1.501  10.401  0.0135 -0.3514  0.1422
  142SAPE   H2X15513   1.968   1.468  10.415 -0.0739 -1.4831 -1.6957
  142SAPE   H2Y15514   1.865   1.612  10.393  1.4637 -0.2326  1.7921
  142SAPE   C2315515   1.542   1.888  10.319  0.5111  0.4189  0.4050
  142SAPE   H3R15516   1.653   1.891  10.320  0.4897  1.6943  3.5696
  142SAPE   H3S15517   1.505   1.978  10.265 -0.8661 -1.3535 -1.6944
  142SAPE   C2415518   1.489   1.762  10.244  0.0571 -0.3630  0.6737
  142SAPE   H4R15519   1.383   1.770  10.212  0.9766 -0.2351 -2.6006
  142SAPE   H4S15520   1.503   1.679  10.316 -1.8334 -0.1489  1.2913
  142SAPE   C2515521   1.583   1.730  10.122 -0.3375  0.2235 -0.1286
  142SAPE   H5R15522   1.670   1.665  10.135  1.0956  1.9058 -1.1627
  142SAPE   C2615523   1.565   1.782   9.998  0.2809 -0.1181 -0.0745
  142SAPE   H6R15524   1.632   1.754   9.916 -0.5094 -1.0696 -0.4047
  142SAPE   C2715525   1.458   1.873   9.944 -0.0124  0.2520  0.0008
  142SAPE   H7R15526   1.497   1.975   9.922  2.3202 -0.6321 -0.1797
  142SAPE   H7S15527   1.374   1.873  10.016  1.9582 -1.0437  2.3992
  142SAPE   C2815528   1.401   1.797   9.824  0.3686 -0.1159  0.3839
  142SAPE   H8R15529   1.328   1.718   9.845  0.9564 -1.2808 -1.8260
  142SAPE   C2915530   1.434   1.816   9.696 -0.2937  0.5619 -0.1295
  142SAPE   H9R15531   1.377   1.761   9.619  0.4891 -1.1305  0.4808
  142SAPE  C21015532   1.542   1.916   9.651  0.8149  0.6121 -0.4121
  142SAPE  H10R15533   1.527   2.014   9.700  1.0190 -1.2983  3.6863
  142SAPE  H10S15534   1.538   1.948   9.544 -1.9443  2.2521  0.1350
  142SAPE  C21115535   1.686   1.856   9.656 -0.0188  0.2328  0.0879
  142SAPE  H11R15536   1.731   1.865   9.756  0.0149 -1.8855  0.2789
  142SAPE  C21215537   1.750   1.793   9.558  0.4266  0.2559  0.6296
  142SAPE  H12R15538   1.854   1.758   9.570  0.0772 -2.8090 -4.1081
  142SAPE  C21315539   1.699   1.756   9.416 -0.5783 -0.6925 -0.8523
  142SAPE  H13R15540   1.724   1.833   9.340 -0.0224 -0.7816 -0.7666
  142SAPE  H13S15541   1.588   1.760   9.418 -0.5243  0.3234  0.8246
  142SAPE  C21415542   1.745   1.622   9.382  0.3380  0.3734  0.9656
  142SAPE  H14R15543   1.853   1.620   9.361 -0.4705 -2.1378 -3.6183
  142SAPE  C21515544   1.680   1.507   9.373  0.7655  0.5621 -0.3444
  142SAPE  H15R15545   1.727   1.415   9.336  1.1057  0.1143  1.1823
  142SAPE  C21615546   1.530   1.499   9.401 -0.4377 -0.2409  0.4183
  142SAPE  H16R15547   1.490   1.451   9.309 -0.2209  1.5049 -0.6160
  142SAPE  H16S15548   1.478   1.597   9.407  0.1195  0.0983 -0.2228
  142SAPE  C21715549   1.482   1.409   9.512  0.8511 -0.3088  0.2794
  142SAPE  H17R15550   1.506   1.304   9.486 -2.2062 -0.6313 -1.4870
  142SAPE  H17S15551   1.371   1.421   9.517  1.1046  1.6709  1.7118
  142SAPE  C21815552   1.531   1.436   9.651 -0.1224 -0.2141 -0.0031
  142SAPE  H18R15553   1.486   1.528   9.693  1.8906  0.9891 -0.3931
  142SAPE  H18S15554   1.641   1.443   9.665  0.0093 -0.2877 -0.9959
  142SAPE  C21915555   1.490   1.321   9.739  0.2264  0.1459  0.2761
  142SAPE  H19R15556   1.554   1.236   9.707  0.2024  0.6402 -1.1401
  142SAPE  H19S15557   1.384   1.287   9.734  0.0022  0.7584  0.8119
  142SAPE  C22015558   1.510   1.358   9.889 -0.4551 -0.5157  0.2489
  142SAPE  H20R15559   1.613   1.398   9.897  0.3441 -2.0155 -1.9836
  142SAPE  H20S15560   1.496   1.265   9.947  1.9513 -1.2937 -0.3523
  142SAPE  H20T15561   1.435   1.435   9.918  0.5600  0.3658  0.5625
  142SAPE   C3315562   1.821   1.433  10.265 -0.1168  0.3433 -0.1598
  142SAPE   H3X15563   1.713   1.452  10.247  0.0657  1.4517 -0.1512
  142SAPE   H3Y15564   1.837   1.324  10.276  0.3472  0.3841 -0.3886
  142SAPE   C3415565   1.914   1.473  10.151 -0.1923  0.0766  0.1258
  142SAPE   H4X15566   2.015   1.465  10.196  0.0654  1.6359 -0.1414
  142SAPE   H4Y15567   1.896   1.579  10.123 -1.1732 -0.1718 -0.2051
  142SAPE   C3515568   1.924   1.373  10.036  0.5349 -0.8406 -0.7463
  142SAPE   H5X15569   1.824   1.374   9.990  0.3169  1.4079 -0.2959
  142SAPE   H5Y15570   1.953   1.269  10.061  0.5457 -1.5640 -3.6518
  142SAPE   C3615571   2.016   1.424   9.922 -0.1311  0.2173  1.0942
  142SAPE   H6X15572   2.116   1.425   9.970  0.1925  0.0402  0.4242
  142SAPE   H6Y15573   1.987   1.525   9.885  0.1122 -0.5512 -1.2931
  142SAPE   C3715574   2.015   1.328   9.799 -0.1521  0.2045  0.7196
  142SAPE   H7X15575   2.040   1.222   9.821  0.6287  0.2239 -0.0324
  142SAPE   H7Y15576   2.102   1.352   9.734 -0.0483 -1.6469  0.1497
  142SAPE   C3815577   1.896   1.364   9.706  0.3773 -0.4641 -0.7116
  142SAPE   H8X15578   1.918   1.469   9.676  2.9093 -0.5007  0.9222
  142SAPE   H8Y15579   1.807   1.356   9.773 -0.2689  1.9625 -1.2091
  142SAPE   C3915580   1.883   1.265   9.589 -0.2524 -0.0035 -0.4391
  142SAPE   H9X15581   1.789   1.299   9.542 -1.0329  1.5287  2.1360
  142SAPE   H9Y15582   1.871   1.165   9.636 -0.4715  1.5342  2.9277
  142SAPE  C31015583   1.992   1.275   9.484 -0.2564 -0.3880 -0.0873
  142SAPE  H10X15584   2.085   1.233   9.528  0.3700  1.9247  0.8912
  142SAPE  H10Y15585   2.004   1.382   9.458 -0.7373 -1.1747 -3.7879
  142SAPE  C31115586   1.968   1.190   9.361  0.1287 -0.3143  0.1235
  142SAPE  H11X15587   1.859   1.203   9.346  0.3103  1.5536  0.2951
  142SAPE  H11Y15588   1.978   1.082   9.384  1.8050 -0.4541 -1.1459
  142SAPE  C31215589   2.042   1.242   9.241  0.3577  0.1436 -0.3473
  142SAPE  H12X15590   2.149   1.223   9.262  0.3736  1.1604  0.4865
  142SAPE  H12Y15591   2.022   1.351   9.231 -1.1788 -0.1403 -0.4791
  142SAPE  C31315592   2.014   1.160   9.116 -0.0512  0.1502  0.5746
  142SAPE  H13X15593   1.918   1.195   9.073  0.5265 -0.6322 -1.4004
  142SAPE  H13Y15594   1.997   1.054   9.146 -0.4569  0.2248  0.6140
  142SAPE  C31415595   2.134   1.160   9.022  0.1376 -0.2935  0.4125
  142SAPE  H14X15596   2.216   1.095   9.062 -0.7104 -1.1380  0.8017
  142SAPE  H14Y15597   2.181   1.260   9.020  1.5741 -0.9480  0.4846
  142SAPE  C31515598   2.113   1.119   8.878  0.1021  0.2760 -0.2639
  142SAPE  H15X15599   2.028   1.171   8.829  0.8259  0.3251 -1.4835
  142SAPE  H15Y15600   2.077   1.014   8.879  0.0032  0.2977  2.7526
  142SAPE  C31615601   2.243   1.096   8.792  0.0575 -0.0690 -0.8632
  142SAPE  H16X15602   2.294   1.010   8.841  3.3045  2.5582  0.5410
  142SAPE  H16Y15603   2.313   1.182   8.793 -0.0837  0.0798  3.7108
  142SAPE  C31715604   2.224   1.063   8.640 -0.5109  0.3215  0.5518
  142SAPE  H17X15605   2.136   0.997   8.624  0.3870 -0.5774 -0.7056
  142SAPE  H17Y15606   2.310   1.001   8.608 -0.7783  1.0598 -1.7375
  142SAPE  C31815607   2.231   1.185   8.544 -0.9847  0.2341  0.0024
  142SAPE  H18X15608   2.330   1.233   8.560 -1.7290  1.9416 -0.3453
  142SAPE  H18Y15609   2.156   1.266   8.561  0.0090  0.8399  1.6059
  142SAPE  H18Z15610   2.215   1.145   8.442 -1.2445 -2.7507  1.1657
  143SAPE     N15611   2.925   1.673  10.938  0.1350 -0.6146 -0.7910
  143SAPE   HN115612   2.965   1.749  10.879 -3.0865  1.4097 -0.4960
  143SAPE   HN215613   2.832   1.637  10.908 -0.5814  0.9782 -0.5418
  143SAPE   HN315614   2.908   1.717  11.030  1.3034 -1.7674 -0.0028
  143SAPE   C1215615   3.021   1.557  10.951 -0.8717  0.0236  0.1342
  143SAPE  H12A15616   3.031   1.500  10.856  0.3293  1.0286 -0.3516
  143SAPE  H12B15617   2.961   1.493  11.020  0.1644 -1.2972 -0.1754
  143SAPE   C1115618   3.156   1.604  11.010  0.0426 -0.1709 -0.4201
  143SAPE  H11A15619   3.233   1.525  10.998  1.9313  1.6908 -0.7833
  143SAPE  H11B15620   3.153   1.616  11.121  0.2610 -0.5374 -0.3745
  143SAPE     P15621   3.237   1.758  10.797 -0.0635 -0.1739 -0.2679
  143SAPE   O1315622   3.124   1.729  10.702  0.0570 -0.3964  0.2299
  143SAPE   O1415623   3.304   1.889  10.790 -0.4190 -0.2715  0.4789
  143SAPE   O1215624   3.200   1.730  10.948 -0.3545  1.0841 -0.3422
  143SAPE   O1115625   3.346   1.646  10.787  0.4771  0.1157  0.0939
  143SAPE    C115626   3.483   1.675  10.758  0.4142 -0.2967 -0.5085
  143SAPE    HA15627   3.509   1.779  10.729  1.7772  0.0460  1.7997
  143SAPE    HB15628   3.544   1.657  10.849 -0.9985 -1.3698  0.2522
  143SAPE    C215629   3.548   1.575  10.657  0.2244 -0.3237 -0.5145
  143SAPE    HS15630   3.656   1.603  10.652  0.2653 -0.2302  0.7436
  143SAPE   O2115631   3.473   1.579  10.533  0.1961 -0.1409  0.5710
  143SAPE   C2115632   3.524   1.672  10.454 -0.5397  0.1445  0.1999
  143SAPE   O2215633   3.605   1.761  10.481  0.2098  0.1313 -0.3918
  143SAPE   C2215634   3.434   1.671  10.323  0.0510  0.8180  0.0066
  143SAPE   H2R15635   3.443   1.568  10.283  0.3801  0.6127  0.5982
  143SAPE   H2S15636   3.330   1.699  10.348 -1.0276 -0.7639 -2.5325
  143SAPE    C315637   3.540   1.427  10.713 -0.2440 -0.4242 -0.0069
  143SAPE    HX15638   3.434   1.393  10.717 -0.0696 -0.9786 -0.0784
  143SAPE    HY15639   3.557   1.433  10.823 -1.9116  0.9797  0.2109
  143SAPE   O3115640   3.629   1.333  10.654 -0.5472 -0.0861  0.0342
  143SAPE   C3115641   3.758   1.363  10.676 -0.4669  0.0476 -0.2967
  143SAPE   O3215642   3.795   1.439  10.764  0.0905 -0.0932 -0.8957
  143SAPE   C3215643   3.842   1.290  10.578  0.0534  0.4575  0.6030
  143SAPE   H2X15644   3.811   1.183  10.570  1.2654 -0.0242  2.1021
  143SAPE   H2Y15645   3.945   1.293  10.620  0.5044 -2.0424 -0.1899
  143SAPE   C2315646   3.498   1.769  10.223  0.0600 -0.7731  0.8428
  143SAPE   H3R15647   3.608   1.755  10.208 -0.0501 -1.7686  0.9321
  143SAPE   H3S15648   3.492   1.873  10.261 -1.0625 -0.3801 -0.3746
  143SAPE   C2415649   3.423   1.758  10.088 -0.0537 -0.2439 -0.4618
  143SAPE   H4R15650   3.461   1.834  10.017  1.3672  2.4842  3.0907
  143SAPE   H4S15651   3.319   1.787  10.113 -0.1940 -2.2475  1.5004
  143SAPE   C2515652   3.435   1.626  10.017  0.0326  0.2686  0.1951
  143SAPE   H5R15653   3.499   1.546  10.055 -1.5711 -0.1530  2.0641
  143SAPE   C2615654   3.384   1.603   9.902 -0.6007  0.3092  0.3459
  143SAPE   H6R15655   3.389   1.498   9.869 -1.7293  0.2014  0.4921
  143SAPE   C2715656   3.306   1.699   9.816  0.2114  0.3286  0.5185
  143SAPE   H7R15657   3.376   1.771   9.769  1.6464 -3.1464 -2.9218
  143SAPE   H7S15658   3.251   1.771   9.880  0.7937  1.2517 -0.0235
  143SAPE   C2815659   3.208   1.637   9.729 -0.0127 -0.6087 -0.7934
  143SAPE   H8R15660   3.108   1.612   9.769  0.7010 -1.5887  0.4304
  143SAPE   C2915661   3.224   1.623   9.593  0.2053  0.0844  0.7189
  143SAPE   H9R15662   3.142   1.574   9.538 -0.6953  1.6888  0.6058
  143SAPE  C21015663   3.347   1.660   9.513  0.4585  0.1836 -0.2192
  143SAPE  H10R15664   3.427   1.705   9.576  2.3984 -1.9698 -1.0489
  143SAPE  H10S15665   3.331   1.735   9.432 -1.3752 -0.6360 -0.6452
  143SAPE  C21115666   3.398   1.546   9.432  0.2229  0.2015 -1.1391
  143SAPE  H11R15667   3.454   1.476   9.496  2.1024  2.6553 -0.0069
  143SAPE  C21215668   3.389   1.534   9.298  0.1962 -0.8359  0.1909
  143SAPE  H12R15669   3.436   1.450   9.245  0.6440  0.8302 -2.1128
  143SAPE  C21315670   3.320   1.622   9.201 -0.7362  0.0803  0.6351
  143SAPE  H13R15671   3.239   1.689   9.236 -1.6897 -0.7537  0.0529
  143SAPE  H13S15672   3.252   1.557   9.143 -2.2566  1.5774  0.7118
  143SAPE  C21415673   3.396   1.701   9.097 -0.1140 -0.3387  0.3105
  143SAPE  H14R15674   3.444   1.790   9.141  0.7177 -1.0147  0.7810
  143SAPE  C21515675   3.419   1.667   8.969 -0.1959  0.4175  0.0623
  143SAPE  H15R15676   3.474   1.738   8.905 -0.3169  1.5347  1.2001
  143SAPE  C21615677   3.391   1.543   8.892  0.8957  0.1424  0.2712
  143SAPE  H16R15678   3.406   1.456   8.959  2.5633 -0.2679 -0.5991
  143SAPE  H16S15679   3.474   1.529   8.820  0.9811  0.8644  0.2221
  143SAPE  C21715680   3.260   1.551   8.815 -0.1535  0.3571 -0.2769
  143SAPE  H17R15681   3.241   1.648   8.764  0.8926  0.6624 -0.1180
  143SAPE  H17S15682   3.178   1.546   8.890  1.1317 -1.1707  1.0806
  143SAPE  C21815683   3.252   1.437   8.715 -1.0688  0.2879  0.0147
  143SAPE  H18R15684   3.296   1.340   8.749  2.1740  1.1094 -1.6064
  143SAPE  H18S15685   3.324   1.465   8.635  0.2650 -0.7635  0.8130
  143SAPE  C21915686   3.119   1.432   8.642  0.0094 -0.2330 -0.3128
  143SAPE  H19R15687   3.089   1.535   8.615  1.4070  0.7979  1.9351
  143SAPE  H19S15688   3.037   1.400   8.709 -0.2104  2.8531  0.9661
  143SAPE  C22015689   3.144   1.341   8.519 -0.8645 -0.2856  0.2698
  143SAPE  H20R15690   3.045   1.335   8.468 -0.0510  1.4448 -1.5853
  143SAPE  H20S15691   3.160   1.238   8.559 -2.1821 -0.1652  1.1300
  143SAPE  H20T15692   3.230   1.369   8.453 -0.4156  0.1155  1.0232
  143SAPE   C3315693   3.859   1.372  10.444 -0.3841 -0.1471 -0.8505
  143SAPE   H3X15694   3.951   1.331  10.396  1.4940 -1.0188  3.2891
  143SAPE   H3Y15695   3.872   1.479  10.469  1.2850 -0.2462 -1.1984
  143SAPE   C3415696   3.738   1.348  10.353 -0.5728  0.2851 -0.0380
  143SAPE   H4X15697   3.647   1.352  10.416 -0.6044  1.6552 -0.1447
  143SAPE   H4Y15698   3.738   1.252  10.298 -2.8757 -0.5346  1.3294
  143SAPE   C3515699   3.721   1.460  10.250 -0.2090  0.3374  0.4509
  143SAPE   H5X15700   3.733   1.559  10.301  1.7708  1.3171 -1.8223
  143SAPE   H5Y15701   3.616   1.449  10.216  0.0608 -2.7198  0.4981
  143SAPE   C3615702   3.813   1.459  10.126  0.1515 -0.2625  0.2322
  143SAPE   H6X15703   3.803   1.359  10.078  0.9782 -0.2715  0.0763
  143SAPE   H6Y15704   3.922   1.465  10.149 -0.0067  1.3662  0.6494
  143SAPE   C3715705   3.777   1.574  10.023  0.9068  0.2550  0.6131
  143SAPE   H7X15706   3.869   1.636  10.019  1.4928 -0.6856 -0.4102
  143SAPE   H7Y15707   3.697   1.640  10.064 -0.9207 -0.3708 -1.8264
  143SAPE   C3815708   3.746   1.525   9.882  0.0193  0.2106  0.3586
  143SAPE   H8X15709   3.651   1.466   9.877 -0.5204  1.0491  0.5836
  143SAPE   H8Y15710   3.822   1.449   9.855 -2.1231 -2.8209  2.5306
  143SAPE   C3915711   3.743   1.638   9.780 -0.2568 -0.0390 -0.3886
  143SAPE   H9X15712   3.835   1.701   9.780 -0.6341  0.5500  1.4371
  143SAPE   H9Y15713   3.662   1.711   9.804 -0.6560 -0.8094  0.6253
  143SAPE  C31015714   3.733   1.578   9.637 -0.2473 -0.8489 -0.3272
  143SAPE  H10X15715   3.626   1.555   9.617 -0.8377  3.0736 -2.0133
  143SAPE  H10Y15716   3.798   1.488   9.627  1.1896  0.0021  1.3298
  143SAPE  C31115717   3.777   1.677   9.530  0.3305 -0.1845 -0.0602
  143SAPE  H11X15718   3.873   1.728   9.553  0.0174  0.8336 -0.9716
  143SAPE  H11Y15719   3.698   1.756   9.529  0.3973 -0.0951  1.0682
  143SAPE  C31215720   3.767   1.611   9.395 -0.0485 -0.5664  0.2291
  143SAPE  H12X15721   3.667   1.566   9.382 -1.0973  1.5955  0.5982
  143SAPE  H12Y15722   3.848   1.535   9.382 -0.3958 -1.0733  0.9941
  143SAPE  C31315723   3.789   1.719   9.282  0.3396  0.1155 -0.9389
  143SAPE  H13X15724   3.893   1.756   9.294  0.3500 -0.4131  0.8384
  143SAPE  H13Y15725   3.719   1.804   9.296  0.6834  0.1006  1.1837
  143SAPE  C31415726   3.783   1.665   9.138  0.7769 -0.0803 -0.3329
  143SAPE  H14X15727   3.683   1.634   9.100 -0.8400  3.3489  0.8623
  143SAPE  H14Y15728   3.840   1.570   9.132 -0.6166 -0.9328 -0.1253
  143SAPE  C31515729   3.858   1.750   9.045 -0.9710  0.1009  0.4841
  143SAPE  H15X15730   3.965   1.730   9.065 -0.2945  0.8911 -2.0851
  143SAPE  H15Y15731   3.841   1.858   9.061  1.2295  0.8663 -1.9240
  143SAPE  C31615732   3.820   1.711   8.901  0.0107 -0.5092 -0.1459
  143SAPE  H16X15733   3.711   1.714   8.879  0.0745 -0.4069 -0.4596
  143SAPE  H16Y15734   3.854   1.606   8.894 -1.3432 -0.8387 -2.1898
  143SAPE  C31715735   3.906   1.777   8.794  0.3573 -0.1917 -0.3040
  143SAPE  H17X15736   4.011   1.801   8.822  0.0357  3.0445 -1.6056
  143SAPE  H17Y15737   3.861   1.876   8.768  1.0802  0.1961 -0.0876
  143SAPE  C31815738   3.921   1.705   8.663  0.0345 -0.3058  0.5194
  143SAPE  H18X15739   3.820   1.693   8.619  1.0020 -1.1500 -1.5484
  143SAPE  H18Y15740   3.980   1.612   8.670  1.8266  0.5873 -1.9944
  143SAPE  H18Z15741   3.984   1.770   8.598 -1.1087  0.3146  0.0166
  144SAPE     N15742   6.223   5.876  11.131  0.1163 -0.3697 -0.1918
  144SAPE   HN115743   6.318   5.887  11.173 -0.4699  1.7345  0.6707
  144SAPE   HN215744   6.156   5.928  11.192  0.6021 -0.3815  0.3578
  144SAPE   HN315745   6.198   5.776  11.134 -1.1411 -0.0944 -1.3044
  144SAPE   C1215746   6.204   5.908  10.984  0.4512 -0.7818 -0.3964
  144SAPE  H12A15747   6.225   6.017  10.976  2.2810 -1.0655  0.2464
  144SAPE  H12B15748   6.097   5.893  10.960  1.0153 -0.2232 -3.5121
  144SAPE   C1115749   6.294   5.829  10.888 -0.4289 -0.1273  0.4053
  144SAPE  H11A15750   6.260   5.864  10.788  1.0690  1.6206  0.4682
  144SAPE  H11B15751   6.285   5.721  10.913 -2.8573 -0.0968 -0.2634
  144SAPE     P15752   6.514   5.979  10.841 -0.0286  0.1274  0.2837
  144SAPE   O1315753   6.500   6.093  10.930  0.5070  0.0737 -0.4444
  144SAPE   O1415754   6.650   5.933  10.804  0.0302 -0.2215 -0.6498
  144SAPE   O1215755   6.432   5.858  10.907 -0.9081 -0.2306 -0.1493
  144SAPE   O1115756   6.438   6.015  10.708  0.2404  0.1610  0.4014
  144SAPE    C115757   6.470   6.129  10.630  0.2101 -0.2757 -0.2824
  144SAPE    HA15758   6.479   6.220  10.694  0.6548  0.0719 -0.8272
  144SAPE    HB15759   6.570   6.121  10.580  0.8615 -3.1464  1.4174
  144SAPE    C215760   6.357   6.153  10.527  0.3726 -0.4620 -0.1153
  144SAPE    HS15761   6.263   6.112  10.570  1.4478  0.1766  2.9372
  144SAPE   O2115762   6.377   6.064  10.412 -0.4858  0.0959  0.2395
  144SAPE   C2115763   6.487   6.088  10.332 -1.0006  0.1542 -0.0209
  144SAPE   O2215764   6.576   6.166  10.356 -0.2607 -0.2688 -0.0157
  144SAPE   C2215765   6.477   5.993  10.210  0.0473  0.7451 -0.6133
  144SAPE   H2R15766   6.481   5.894  10.258 -0.1834  0.1117 -1.8687
  144SAPE   H2S15767   6.383   6.014  10.153 -1.1038  1.1141  1.3798
  144SAPE    C315768   6.340   6.301  10.484 -0.0181 -0.3828  0.3832
  144SAPE    HX15769   6.442   6.341  10.466 -0.0726 -1.1844 -1.8957
  144SAPE    HY15770   6.292   6.367  10.559  1.9259  2.9122 -1.1673
  144SAPE   O3115771   6.264   6.316  10.359 -0.0809  0.8891 -0.5006
  144SAPE   C3115772   6.137   6.290  10.370  1.0410  0.3480 -0.4568
  144SAPE   O3215773   6.074   6.278  10.477  0.7770 -0.0445 -0.5570
  144SAPE   C3215774   6.072   6.292  10.227 -0.7277  0.2005  0.0284
  144SAPE   H2X15775   6.117   6.376  10.170 -0.8674  0.3449  0.1308
  144SAPE   H2Y15776   5.972   6.338  10.240  0.2996  2.8364 -1.0036
  144SAPE   C2315777   6.603   6.007  10.121 -0.1845  0.0396  0.0497
  144SAPE   H3R15778   6.620   5.903  10.085  1.7299  0.3586 -0.0270
  144SAPE   H3S15779   6.696   6.042  10.170  0.1550 -0.8609  0.0637
  144SAPE   C2415780   6.580   6.103  10.002  0.0141 -0.1475  0.3863
  144SAPE   H4R15781   6.492   6.067   9.945  0.5009 -0.5038 -0.1447
  144SAPE   H4S15782   6.670   6.086   9.939 -0.8305  0.1559 -0.9250
  144SAPE   C2515783   6.567   6.247  10.045 -0.1458  0.0393  0.1050
  144SAPE   H5R15784   6.594   6.267  10.150  0.5910 -3.4691  0.6351
  144SAPE   C2615785   6.511   6.345   9.968  0.4613  0.1235 -1.1746
  144SAPE   H6R15786   6.485   6.441  10.014 -0.9218 -0.2859 -1.0835
  144SAPE   C2715787   6.463   6.337   9.823  0.7334 -0.3814  0.2532
  144SAPE   H7R15788   6.356   6.364   9.829  1.2757  1.8018  0.4798
  144SAPE   H7S15789   6.473   6.236   9.777  1.9333 -0.1352 -0.0336
  144SAPE   C2815790   6.522   6.446   9.736 -0.3084  0.0899  0.3146
  144SAPE   H8R15791   6.555   6.539   9.785 -1.9494  0.6484  0.3957
  144SAPE   C2915792   6.533   6.438   9.601 -0.7911 -0.1797 -0.1051
  144SAPE   H9R15793   6.574   6.527   9.550 -0.6049 -0.1207  0.1429
  144SAPE  C21015794   6.497   6.320   9.511 -0.6938 -0.2025 -0.6504
  144SAPE  H10R15795   6.491   6.224   9.566 -0.9196  0.5396  0.6454
  144SAPE  H10S15796   6.578   6.311   9.436 -0.7226 -0.0014 -0.7046
  144SAPE  C21115797   6.361   6.334   9.466  0.0310 -0.2307 -0.2469
  144SAPE  H11R15798   6.289   6.339   9.549  0.4832 -1.3306  0.2209
  144SAPE  C21215799   6.312   6.338   9.337  0.2236  0.0161 -0.0728
  144SAPE  H12R15800   6.209   6.373   9.323  0.3672  1.7056  2.6709
  144SAPE  C21315801   6.408   6.336   9.220 -0.2236  0.3470  0.1398
  144SAPE  H13R15802   6.374   6.264   9.142  1.9686  0.3859 -0.8875
  144SAPE  H13S15803   6.503   6.284   9.243  0.0261  1.3131  1.2936
  144SAPE  C21415804   6.432   6.482   9.179 -0.5358 -0.0550  0.5749
  144SAPE  H14R15805   6.466   6.560   9.249 -0.2841  3.3799 -3.2152
  144SAPE  C21515806   6.428   6.519   9.051 -0.0576  0.5182 -0.1677
  144SAPE  H15R15807   6.439   6.626   9.032 -0.5765  0.3486 -1.4831
  144SAPE  C21615808   6.390   6.439   8.927 -0.3133 -0.6122  0.2223
  144SAPE  H16R15809   6.400   6.330   8.946  1.7337 -0.3519  0.7076
  144SAPE  H16S15810   6.450   6.476   8.841 -1.1944  2.8082  1.0015
  144SAPE  C21715811   6.246   6.458   8.879 -0.4855  0.4143  0.5514
  144SAPE  H17R15812   6.166   6.445   8.955 -1.3191  1.9466 -0.0516
  144SAPE  H17S15813   6.223   6.391   8.793  1.0312  2.1224 -1.2211
  144SAPE  C21815814   6.232   6.601   8.833  0.1223  0.9362  0.7487
  144SAPE  H18R15815   6.305   6.631   8.754  1.7621  0.0644  1.9151
  144SAPE  H18S15816   6.240   6.670   8.919 -1.4325  1.2328  0.6647
  144SAPE  C21915817   6.093   6.621   8.769  0.3288  0.4775  0.3167
  144SAPE  H19R15818   6.081   6.730   8.748  1.5636  0.6165  0.3050
  144SAPE  H19S15819   6.011   6.579   8.831 -0.3379 -4.0938 -3.4389
  144SAPE  C22015820   6.081   6.545   8.635 -0.4154  0.0369 -0.0980
  144SAPE  H20R15821   6.109   6.438   8.646  1.0848  0.4977  0.5794
  144SAPE  H20S15822   6.151   6.598   8.567 -0.2668 -2.0384 -1.6161
  144SAPE  H20T15823   5.980   6.550   8.588 -0.8240  0.1581  0.7829
  144SAPE   C3315824   6.074   6.170  10.129 -0.2948 -0.7791 -0.7721
  144SAPE   H3X15825   5.984   6.109  10.152 -0.2783  0.2104  2.1479
  144SAPE   H3Y15826   6.166   6.113  10.155  1.3185  2.0611 -0.0501
  144SAPE   C3415827   6.089   6.212   9.981  1.0708  0.1679  0.3348
  144SAPE   H4X15828   6.179   6.278   9.976  2.4551 -1.5258  1.9711
  144SAPE   H4Y15829   6.005   6.277   9.948  0.4021 -0.6940  0.3467
  144SAPE   C3515830   6.096   6.093   9.870 -0.4278  0.0621  0.2688
  144SAPE   H5X15831   6.004   6.030   9.879  0.8976 -2.1582 -1.1568
  144SAPE   H5Y15832   6.185   6.029   9.888  1.7461  2.7379 -0.7132
  144SAPE   C3615833   6.101   6.144   9.726  0.0850 -0.1691  0.1011
  144SAPE   H6X15834   6.202   6.188   9.708 -0.0187 -0.4931 -1.2760
  144SAPE   H6Y15835   6.039   6.234   9.708  0.4098  0.1246  0.4423
  144SAPE   C3715836   6.056   6.036   9.624  0.0871  0.4146 -0.0376
  144SAPE   H7X15837   5.947   6.033   9.645  0.0058  1.1902 -0.3528
  144SAPE   H7Y15838   6.094   5.936   9.653  1.7378  1.3941  1.3042
  144SAPE   C3815839   6.078   6.059   9.480 -0.3651 -1.2169  0.0353
  144SAPE   H8X15840   6.186   6.067   9.454 -0.9744  1.7216 -1.7882
  144SAPE   H8Y15841   6.040   6.160   9.453  1.6169 -0.9652 -1.9862
  144SAPE   C3915842   6.020   5.954   9.388 -0.0015 -0.0517 -0.1388
  144SAPE   H9X15843   5.913   5.957   9.419  0.3694  1.4688  1.0499
  144SAPE   H9Y15844   6.071   5.858   9.407  2.3626  0.9843 -1.0974
  144SAPE  C31015845   6.032   5.976   9.237 -0.5461 -0.0092 -0.7150
  144SAPE  H10X15846   5.989   6.078   9.222  0.8866  0.4758 -1.5338
  144SAPE  H10Y15847   5.983   5.893   9.182 -0.4543  1.8236 -3.6689
  144SAPE  C31115848   6.182   5.982   9.191 -0.3118 -0.1830 -0.2171
  144SAPE  H11X15849   6.230   5.894   9.236 -2.4157 -0.6539  1.1661
  144SAPE  H11Y15850   6.226   6.075   9.233  1.0554 -0.7539 -0.3741
  144SAPE  C31215851   6.183   5.990   9.038  0.0808 -0.6711 -0.1698
  144SAPE  H12X15852   6.117   6.074   9.007  1.6975  0.4497 -0.6302
  144SAPE  H12Y15853   6.136   5.895   9.005  0.1976 -0.3651 -1.2512
  144SAPE  C31315854   6.323   6.007   8.973 -0.9608  0.3697 -0.0530
  144SAPE  H13X15855   6.367   5.906   8.991  0.1849  0.6770 -1.0746
  144SAPE  H13Y15856   6.385   6.081   9.028  0.1277 -1.2678  0.9663
  144SAPE  C31415857   6.318   6.032   8.817 -0.9783 -0.1299 -0.0360
  144SAPE  H14X15858   6.420   6.042   8.774 -1.7937 -1.4477 -2.3998
  144SAPE  H14Y15859   6.272   6.131   8.796  0.1277  0.2043 -0.9482
  144SAPE  C31515860   6.253   5.922   8.744  0.7919  0.7086 -0.2199
  144SAPE  H15X15861   6.247   5.950   8.637 -3.5814 -1.8055 -0.7416
  144SAPE  H15Y15862   6.144   5.912   8.764  0.9178  2.5421  1.5355
  144SAPE  C31615863   6.320   5.784   8.737  0.3850 -0.2465 -0.2487
  144SAPE  H16X15864   6.335   5.751   8.842  2.7899 -0.5718 -0.6605
  144SAPE  H16Y15865   6.420   5.792   8.688  2.5042  0.0402  3.9423
  144SAPE  C31715866   6.227   5.683   8.667  0.3880 -0.8940  0.3102
  144SAPE  H17X15867   6.193   5.718   8.567  0.8149 -1.6242 -0.0897
  144SAPE  H17Y15868   6.136   5.676   8.731 -0.9099  4.3104 -0.6979
  144SAPE  C31815869   6.289   5.545   8.642 -0.0812  0.9825  0.1758
  144SAPE  H18X15870   6.376   5.555   8.574  0.9442 -1.1298  1.1003
  144SAPE  H18Y15871   6.223   5.469   8.595  0.7704 -1.1080  2.2496
  144SAPE  H18Z15872   6.321   5.509   8.743 -2.9613  0.8451  1.1007
  145SAPE     N15873   3.982   1.549  10.942  0.2548 -0.1869 -0.4247
  145SAPE   HN115874   3.973   1.533  10.840 -1.9104  0.2012 -0.3168
  145SAPE   HN215875   4.034   1.638  10.958  0.4934 -0.6752  1.6118
  145SAPE   HN315876   4.041   1.482  10.995 -0.7164  0.4425  1.5101
  145SAPE   C1215877   3.856   1.577  11.011 -0.1260 -0.0135 -0.1602
  145SAPE  H12A15878   3.772   1.613  10.947 -0.4587  1.5292  1.1134
  145SAPE  H12B15879   3.889   1.659  11.079  0.2215 -2.1866  2.3509
  145SAPE   C1115880   3.802   1.464  11.110 -0.1101  0.8774 -0.2571
  145SAPE  H11A15881   3.746   1.397  11.042  0.3248 -0.2346  0.4808
  145SAPE  H11B15882   3.727   1.511  11.178 -1.8350  0.1678 -1.6382
  145SAPE     P15883   3.881   1.293  11.285  0.1480 -0.3024 -0.5532
  145SAPE   O1315884   3.994   1.200  11.321  0.0066 -0.1008 -0.3848
  145SAPE   O1415885   3.811   1.357  11.401 -0.5143  0.6229 -0.4737
  145SAPE   O1215886   3.918   1.396  11.171 -0.0255 -0.2696 -0.8232
  145SAPE   O1115887   3.768   1.201  11.212 -0.0456 -0.2765  0.3801
  145SAPE    C115888   3.818   1.129  11.093 -0.3972 -0.8604 -0.3286
  145SAPE    HA15889   3.909   1.173  11.047 -0.8931  1.5702  0.8879
  145SAPE    HB15890   3.848   1.024  11.114 -0.0525 -0.4283  1.4644
  145SAPE    C215891   3.714   1.129  10.985  0.3212  1.0017 -0.1029
  145SAPE    HS15892   3.708   1.232  10.945 -0.1585  0.9225 -0.2400
  145SAPE   O2115893   3.582   1.077  11.037 -0.6891  0.3567  0.3243
  145SAPE   C2115894   3.480   1.162  11.038 -0.2300  0.2108 -0.0360
  145SAPE   O2215895   3.474   1.270  10.979  0.0362  0.3827  0.5066
  145SAPE   C2215896   3.373   1.111  11.127 -0.0285  0.3698 -0.1016
  145SAPE   H2R15897   3.327   1.016  11.090  1.4153 -0.2796 -0.2529
  145SAPE   H2S15898   3.433   1.084  11.217 -1.5414  0.2871  0.9080
  145SAPE    C315899   3.754   1.026  10.881  0.5371  0.1486  0.8456
  145SAPE    HX15900   3.734   0.925  10.923  2.5429 -1.1219 -1.1256
  145SAPE    HY15901   3.864   1.017  10.869  0.5788  1.8176 -0.1534
  145SAPE   O3115902   3.702   1.051  10.749 -0.5880  0.7623  0.2616
  145SAPE   C3115903   3.599   0.982  10.702  0.4325  0.0120  0.3225
  145SAPE   O3215904   3.526   0.913  10.774 -0.4051 -0.8033 -0.2718
  145SAPE   C3215905   3.565   1.016  10.555 -0.8029 -0.6025 -0.3006
  145SAPE   H2X15906   3.655   1.066  10.512 -0.7668 -0.0322  0.4248
  145SAPE   H2Y15907   3.473   1.078  10.561  0.4377  1.2054  0.5362
  145SAPE   C2315908   3.272   1.217  11.179 -0.3069 -0.1689  0.4243
  145SAPE   H3R15909   3.323   1.311  11.210  0.6830 -1.2575  2.1443
  145SAPE   H3S15910   3.217   1.175  11.265  0.8472  0.0775  1.2881
  145SAPE   C2415911   3.163   1.261  11.075 -0.1724 -0.0716 -0.3456
  145SAPE   H4R15912   3.220   1.322  11.001  0.5610 -0.3113  0.0164
  145SAPE   H4S15913   3.092   1.333  11.121 -0.4792  0.0180 -0.9518
  145SAPE   C2515914   3.091   1.140  11.018  0.3028 -0.0697 -0.1744
  145SAPE   H5R15915   3.034   1.084  11.093  0.1747 -0.6375 -0.6868
  145SAPE   C2615916   3.095   1.096  10.893 -0.7411  0.5037  1.0315
  145SAPE   H6R15917   3.046   1.000  10.869  1.9373 -0.5115 -0.6383
  145SAPE   C2715918   3.173   1.167  10.785 -0.7524 -0.3995  0.1106
  145SAPE   H7R15919   3.279   1.175  10.818 -0.4410  0.1533 -0.9770
  145SAPE   H7S15920   3.142   1.274  10.778 -0.4906 -0.2321  1.4227
  145SAPE   C2815921   3.182   1.096  10.650 -0.1156 -0.3318  0.4774
  145SAPE   H8R15922   3.192   0.986  10.653  2.4513 -0.0979  3.2336
  145SAPE   C2915923   3.175   1.145  10.521  0.1938  0.2043  0.2446
  145SAPE   H9R15924   3.182   1.065  10.446  2.0321  0.6207 -0.0420
  145SAPE  C21015925   3.164   1.288  10.476 -0.1011  0.0502  0.3648
  145SAPE  H10R15926   3.142   1.341  10.571  1.5318 -1.3694  1.5716
  145SAPE  H10S15927   3.082   1.307  10.404 -0.1151  1.9830  0.8687
  145SAPE  C21115928   3.302   1.317  10.417 -0.0969  0.6749 -0.3586
  145SAPE  H11R15929   3.382   1.352  10.484 -0.7797 -0.7241  1.2094
  145SAPE  C21215930   3.340   1.316  10.292 -0.0682  0.3181  1.4860
  145SAPE  H12R15931   3.445   1.341  10.271 -0.6158  1.1764 -0.3170
  145SAPE  C21315932   3.270   1.288  10.155  0.3994 -0.7108 -0.8384
  145SAPE  H13R15933   3.308   1.368  10.089 -0.0992  3.1019  3.2650
  145SAPE  H13S15934   3.161   1.299  10.174 -0.0440 -4.9461 -0.3678
  145SAPE  C21415935   3.297   1.153  10.098 -0.1908 -0.0154 -0.6476
  145SAPE  H14R15936   3.224   1.080  10.137 -1.6926  1.7590 -0.0632
  145SAPE  C21515937   3.392   1.121  10.009 -0.4122 -0.6215 -0.0565
  145SAPE  H15R15938   3.393   1.017   9.972 -1.3972 -1.1196  1.2622
  145SAPE  C21615939   3.496   1.209   9.948 -0.4294  0.1840 -0.3093
  145SAPE  H16R15940   3.588   1.193  10.007 -1.5911  0.3540  1.5790
  145SAPE  H16S15941   3.472   1.317   9.960 -1.6383  0.1640 -2.3435
  145SAPE  C21715942   3.509   1.188   9.792  0.0227 -0.8993 -0.5349
  145SAPE  H17R15943   3.560   1.090   9.777  1.6481 -0.1581  0.0987
  145SAPE  H17S15944   3.585   1.264   9.765  0.7774 -0.6092  2.2953
  145SAPE  C21815945   3.381   1.214   9.708  0.2077 -0.1622  1.1300
  145SAPE  H18R15946   3.346   1.320   9.711  0.6214  0.0224 -0.4394
  145SAPE  H18S15947   3.295   1.161   9.754 -1.6709  0.5451 -1.4312
  145SAPE  C21915948   3.379   1.145   9.571 -0.7563 -0.2918 -0.3395
  145SAPE  H19R15949   3.370   1.036   9.589  0.6280 -0.1896  1.1063
  145SAPE  H19S15950   3.472   1.176   9.517 -0.6570 -1.9576 -1.1392
  145SAPE  C22015951   3.254   1.198   9.497  0.2435  0.5192  0.4629
  145SAPE  H20R15952   3.167   1.181   9.564 -0.1141 -1.2893 -0.4510
  145SAPE  H20S15953   3.240   1.158   9.395  0.5868  1.9036 -0.1371
  145SAPE  H20T15954   3.271   1.308   9.491  1.4862  0.3453  0.5451
  145SAPE   C3315955   3.537   0.891  10.467 -0.9687  0.2031  0.3177
  145SAPE   H3X15956   3.463   0.819  10.508 -0.7238  0.0634  0.5158
  145SAPE   H3Y15957   3.633   0.835  10.461 -2.7014 -2.9720  1.1683
  145SAPE   C3415958   3.489   0.947  10.329 -0.7061  0.1118 -0.0398
  145SAPE   H4X15959   3.558   1.017  10.277 -1.6122  0.8263 -0.3030
  145SAPE   H4Y15960   3.387   0.986  10.347 -1.4776 -1.5029 -0.7802
  145SAPE   C3515961   3.468   0.834  10.233  0.4447  0.2674  0.2926
  145SAPE   H5X15962   3.407   0.866  10.146  2.8514 -0.0385 -1.5620
  145SAPE   H5Y15963   3.417   0.748  10.282  2.9127 -1.1918  0.3698
  145SAPE   C3615964   3.592   0.782  10.171  0.6908 -0.5658 -0.0786
  145SAPE   H6X15965   3.661   0.739  10.248  0.8904 -1.9696 -1.0402
  145SAPE   H6Y15966   3.645   0.863  10.116 -0.4472 -0.7402 -1.4448
  145SAPE   C3715967   3.560   0.675  10.070  0.5481 -0.9299 -0.7079
  145SAPE   H7X15968   3.473   0.616  10.109 -1.8321  0.6531 -3.4165
  145SAPE   H7Y15969   3.642   0.601  10.056  2.3181  0.4328  2.1409
  145SAPE   C3815970   3.516   0.726   9.939  0.3457 -0.7344  0.2030
  145SAPE   H8X15971   3.575   0.817   9.915  0.8212 -0.4364  2.3200
  145SAPE   H8Y15972   3.408   0.751   9.931  1.0609  1.9071 -1.6897
  145SAPE   C3915973   3.530   0.611   9.829 -0.6892  0.4578  0.4968
  145SAPE   H9X15974   3.442   0.544   9.830  1.0945 -1.9636  0.4478
  145SAPE   H9Y15975   3.621   0.551   9.852 -1.9443 -0.7523  2.4675
  145SAPE  C31015976   3.548   0.671   9.691 -0.1932 -0.7685  0.4865
  145SAPE  H10X15977   3.609   0.602   9.629 -0.4089  0.1375 -0.7490
  145SAPE  H10Y15978   3.607   0.764   9.701  1.8514 -1.7256 -2.0899
  145SAPE  C31115979   3.427   0.699   9.605  0.2026 -0.8466 -0.8992
  145SAPE  H11X15980   3.371   0.775   9.663  1.1308  0.1597 -1.2925
  145SAPE  H11Y15981   3.367   0.610   9.577 -2.7333  0.2849  1.5499
  145SAPE  C31215982   3.464   0.771   9.472  0.1081  0.9633  0.2094
  145SAPE  H12X15983   3.545   0.710   9.428 -0.1206  1.7736 -1.3874
  145SAPE  H12Y15984   3.517   0.865   9.502  2.9665 -0.7121  0.6058
  145SAPE  C31315985   3.343   0.783   9.374 -0.3165  0.8294  0.5151
  145SAPE  H13X15986   3.265   0.856   9.404  0.1113  1.2407  0.6213
  145SAPE  H13Y15987   3.291   0.685   9.381  0.6880  0.1867 -0.7395
  145SAPE  C31415988   3.388   0.811   9.229 -0.0385  0.3242  0.5783
  145SAPE  H14X15989   3.313   0.788   9.150  1.7277 -0.2074 -1.0097
  145SAPE  H14Y15990   3.480   0.752   9.206  1.9743  3.3876  0.4055
  145SAPE  C31515991   3.423   0.960   9.211  0.3791  0.4752  0.4114
  145SAPE  H15X15992   3.489   0.992   9.294  0.2193  2.7088 -0.3004
  145SAPE  H15Y15993   3.325   1.012   9.217 -0.4132 -1.1581  1.8503
  145SAPE  C31615994   3.490   0.999   9.075 -0.9596 -0.1428  0.2811
  145SAPE  H16X15995   3.443   0.959   8.982  0.0917 -1.4472  0.2782
  145SAPE  H16Y15996   3.597   0.969   9.074 -1.0240 -0.3694  0.0351
  145SAPE  C31715997   3.490   1.147   9.053  0.2262  0.0559 -0.2811
  145SAPE  H17X15998   3.385   1.183   9.054  1.5824  4.3885 -1.0633
  145SAPE  H17Y15999   3.533   1.171   8.954  1.4347  0.2356  0.2767
  145SAPE  C31816000   3.574   1.216   9.160  0.8626 -0.1937  0.1977
  145SAPE  H18X16001   3.581   1.325   9.139  0.2575 -0.1204  0.3607
  145SAPE  H18Y16002   3.679   1.181   9.144  1.9797  3.3686 -0.8410
  145SAPE  H18Z16003   3.536   1.207   9.264  1.4189 -0.7929  0.3552
  146SAPE     N16004   1.017   0.544  10.847 -0.1560  0.0898  0.1200
  146SAPE   HN116005   1.117   0.552  10.875 -0.3101  1.7557  0.2418
  146SAPE   HN216006   0.980   0.638  10.826  1.3326  0.6537 -0.0426
  146SAPE   HN316007   0.954   0.503  10.919  1.5426  1.9315  2.7358
  146SAPE   C1216008   1.006   0.447  10.725 -0.1812 -0.1941 -0.1942
  146SAPE  H12A16009   1.058   0.352  10.752  4.6176  2.1834 -0.4146
  146SAPE  H12B16010   1.075   0.484  10.646 -1.8705 -1.1117 -2.1458
  146SAPE   C1116011   0.858   0.431  10.681  0.0555 -0.0865  0.2147
  146SAPE  H11A16012   0.856   0.351  10.604  2.8467  1.4582 -1.5365
  146SAPE  H11B16013   0.822   0.524  10.632 -1.3154 -0.9286 -0.4199
  146SAPE     P16014   0.633   0.348  10.798 -0.1604  0.1873  0.3897
  146SAPE   O1316015   0.599   0.342  10.943  0.4097  0.5632  0.2796
  146SAPE   O1416016   0.555   0.443  10.718  0.2789 -0.0069  0.3244
  146SAPE   O1216017   0.781   0.399  10.795 -0.1961 -0.0827  0.1973
  146SAPE   O1116018   0.636   0.209  10.729  0.0364  0.5053  0.1369
  146SAPE    C116019   0.717   0.108  10.788  0.2151 -0.9030 -0.3336
  146SAPE    HA16020   0.753   0.137  10.889 -0.5047  1.8284 -0.8434
  146SAPE    HB16021   0.652   0.019  10.800  1.5133 -1.7514  0.6271
  146SAPE    C216022   0.842   0.072  10.703  0.5275  0.2452 -0.1756
  146SAPE    HS16023   0.911   0.153  10.734 -0.8664  0.8469  1.4379
  146SAPE   O2116024   0.810   0.083  10.563 -0.3077 -0.4101  0.1374
  146SAPE   C2116025   0.919   0.120  10.494 -0.9078  0.6554  0.2881
  146SAPE   O2216026   1.030   0.144  10.539 -0.5408  0.1662  0.0881
  146SAPE   C2216027   0.877   0.136  10.346  0.0364  0.2262 -0.4581
  146SAPE   H2R16028   0.868   0.032  10.310  2.8349 -0.4964  0.8178
  146SAPE   H2S16029   0.773   0.177  10.348 -0.2384 -0.5048  0.0267
  146SAPE    C316030   0.909  -0.065  10.737 -0.1665  0.3658 -0.0431
  146SAPE    HX16031   0.916  -0.068  10.848  0.8541 -0.9969 -0.1330
  146SAPE    HY16032   1.015  -0.057  10.705  0.1384 -0.9375  0.6184
  146SAPE   O3116033   0.847  -0.184  10.687  0.6545 -0.3616 -0.6008
  146SAPE   C3116034   0.876  -0.225  10.567 -0.4689 -0.3788 -0.3260
  146SAPE   O3216035   0.977  -0.193  10.505  0.0937 -0.2691 -0.1565
  146SAPE   C3216036   0.773  -0.325  10.524 -0.4897 -0.0680  0.3213
  146SAPE   H2X16037   0.679  -0.322  10.583 -0.9936  0.2990 -0.4885
  146SAPE   H2Y16038   0.806  -0.427  10.553  3.2376  0.4219 -1.7920
  146SAPE   C2316039   0.968   0.208  10.246 -0.4112  0.3683  0.2758
  146SAPE   H3R16040   1.020   0.289  10.302 -2.7739  1.5955  0.7609
  146SAPE   H3S16041   0.916   0.262  10.164 -0.2829 -0.5496 -0.4143
  146SAPE   C2416042   1.070   0.109  10.191 -0.2249 -0.5220 -0.2233
  146SAPE   H4R16043   1.022   0.041  10.117  0.2067 -1.0670 -0.0048
  146SAPE   H4S16044   1.092   0.049  10.282  0.0647  0.7601  0.5618
  146SAPE   C2516045   1.190   0.179  10.136  0.2449  1.0819  0.5745
  146SAPE   H5R16046   1.267   0.206  10.210  1.7187  1.5921 -1.1082
  146SAPE   C2616047   1.209   0.213  10.005  0.5447  0.0296 -0.0426
  146SAPE   H6R16048   1.302   0.261   9.970  1.4507 -0.7553  1.2264
  146SAPE   C2716049   1.114   0.182   9.890  0.1370 -0.2569 -0.6781
  146SAPE   H7R16050   1.130   0.267   9.820  0.5885 -0.9230 -1.3883
  146SAPE   H7S16051   1.009   0.166   9.923  1.2349 -0.6635  2.8179
  146SAPE   C2816052   1.150   0.051   9.819 -0.7873  0.1041 -0.1146
  146SAPE   H8R16053   1.164  -0.042   9.876 -1.3193  0.5892  0.8401
  146SAPE   C2916054   1.161   0.036   9.690  0.1408  0.6802 -1.0996
  146SAPE   H9R16055   1.188  -0.065   9.655 -0.5500 -0.3876  1.3173
  146SAPE  C21016056   1.161   0.135   9.580  0.6721  0.1049  0.8623
  146SAPE  H10R16057   1.144   0.237   9.623  3.2179  0.1801  1.7874
  146SAPE  H10S16058   1.076   0.124   9.509  1.0610  0.5129  0.3278
  146SAPE  C21116059   1.291   0.124   9.497 -0.1161 -0.5241 -0.3085
  146SAPE  H11R16060   1.271   0.076   9.400  0.1224 -0.3317 -0.4536
  146SAPE  C21216061   1.411   0.184   9.529 -0.1694  0.3988  0.0612
  146SAPE  H12R16062   1.496   0.171   9.460 -0.3944  0.6484 -0.2651
  146SAPE  C21316063   1.435   0.251   9.663 -0.0598 -0.8574 -0.3920
  146SAPE  H13R16064   1.489   0.179   9.728 -0.8892  3.1321  5.0646
  146SAPE  H13S16065   1.348   0.273   9.729  0.1027 -0.0770 -0.4319
  146SAPE  C21416066   1.512   0.377   9.658  0.5340 -1.2771  0.5535
  146SAPE  H14R16067   1.510   0.437   9.566  2.3452 -3.1599 -0.7370
  146SAPE  C21516068   1.587   0.427   9.757  0.3089  0.3001  0.2648
  146SAPE  H15R16069   1.625   0.530   9.744 -1.2166  1.0502  1.5265
  146SAPE  C21616070   1.605   0.367   9.898  1.0666 -0.4741 -0.8152
  146SAPE  H16R16071   1.711   0.357   9.930  0.2959 -1.4216  1.5177
  146SAPE  H16S16072   1.558   0.267   9.909  0.0748 -0.0726 -1.2795
  146SAPE  C21716073   1.531   0.455  10.007  0.1864  0.2287 -0.1677
  146SAPE  H17R16074   1.424   0.457   9.977  0.0230  2.0445  0.4138
  146SAPE  H17S16075   1.566   0.561  10.005 -1.0728  0.6809  1.2594
  146SAPE  C21816076   1.526   0.404  10.156  0.4763  1.0039 -0.2829
  146SAPE  H18R16077   1.622   0.417  10.211 -0.2188 -0.2594  1.2890
  146SAPE  H18S16078   1.503   0.295  10.147 -1.0454  1.0738  2.1902
  146SAPE  C21916079   1.414   0.469  10.243 -0.1054  0.3203  0.2181
  146SAPE  H19R16080   1.316   0.467  10.191  0.3580 -2.2117 -0.6350
  146SAPE  H19S16081   1.437   0.577  10.253 -1.3410  0.5578  0.5401
  146SAPE  C22016082   1.407   0.407  10.387 -0.2187  0.3697 -0.2741
  146SAPE  H20R16083   1.503   0.422  10.441 -1.0284  1.9570  0.7754
  146SAPE  H20S16084   1.388   0.297  10.389 -1.4237  0.5546 -0.9006
  146SAPE  H20T16085   1.334   0.473  10.439  0.9725  1.5108 -0.0290
  146SAPE   C3316086   0.739  -0.316  10.373 -0.0051  0.3874 -0.0028
  146SAPE   H3X16087   0.703  -0.413  10.332  0.9317  0.0867 -0.1330
  146SAPE   H3Y16088   0.839  -0.306  10.325  0.4976  1.2870  1.2014
  146SAPE   C3416089   0.637  -0.211  10.336 -0.4657 -0.7778  0.2587
  146SAPE   H4X16090   0.675  -0.112  10.370 -0.9258 -0.3250 -0.5221
  146SAPE   H4Y16091   0.546  -0.235  10.395 -0.8143  0.6330  0.3144
  146SAPE   C3516092   0.605  -0.211  10.185  0.6189 -0.9433  0.2765
  146SAPE   H5X16093   0.529  -0.132  10.165  0.1888 -2.0009 -2.4661
  146SAPE   H5Y16094   0.556  -0.307  10.160  1.9961 -1.3184 -1.0166
  146SAPE   C3616095   0.715  -0.173  10.086  0.5303  0.0534 -0.3849
  146SAPE   H6X16096   0.795  -0.249  10.088  1.2311  0.8094  1.6175
  146SAPE   H6Y16097   0.762  -0.076  10.114 -2.0153  0.9792  0.8203
  146SAPE   C3716098   0.666  -0.155   9.944 -0.4919 -0.2832  0.1829
  146SAPE   H7X16099   0.596  -0.070   9.932  0.0798  0.1219 -0.2902
  146SAPE   H7Y16100   0.613  -0.249   9.919 -1.3184  0.5113 -1.0499
  146SAPE   C3816101   0.786  -0.136   9.849 -0.6447 -0.0965 -0.3040
  146SAPE   H8X16102   0.868  -0.206   9.874  1.2387  2.0000 -0.4910
  146SAPE   H8Y16103   0.830  -0.036   9.869  1.0997 -0.2761 -2.9387
  146SAPE   C3916104   0.735  -0.150   9.709  0.7829 -0.2034 -0.1942
  146SAPE   H9X16105   0.669  -0.064   9.689  2.2884  0.8970 -0.5318
  146SAPE   H9Y16106   0.660  -0.231   9.695 -0.2604  1.0491 -1.9706
  146SAPE  C31016107   0.849  -0.135   9.601 -0.1945  0.0583 -0.2557
  146SAPE  H10X16108   0.933  -0.202   9.629 -0.8662 -0.2309  1.1286
  146SAPE  H10Y16109   0.894  -0.034   9.612  1.2474 -0.3178 -2.5254
  146SAPE  C31116110   0.806  -0.150   9.454 -0.1086  0.6889 -0.0170
  146SAPE  H11X16111   0.721  -0.079   9.447 -0.6303  0.0327 -0.4514
  146SAPE  H11Y16112   0.766  -0.253   9.445  2.2715 -0.1987 -0.7489
  146SAPE  C31216113   0.913  -0.114   9.350 -0.9222  0.6698 -0.6782
  146SAPE  H12X16114   0.957  -0.015   9.375  1.7295 -0.1786 -1.8200
  146SAPE  H12Y16115   0.858  -0.098   9.255 -2.4331  1.8455  0.3753
  146SAPE  C31316116   1.021  -0.218   9.338  0.1615 -0.2871 -0.1582
  146SAPE  H13X16117   0.975  -0.315   9.308  1.0562 -0.2634 -1.6842
  146SAPE  H13Y16118   1.068  -0.228   9.439  1.5424 -2.0418 -0.9469
  146SAPE  C31416119   1.127  -0.186   9.235  0.2739 -0.4688 -0.3570
  146SAPE  H14X16120   1.210  -0.125   9.276 -2.2485  0.4595  3.5779
  146SAPE  H14Y16121   1.085  -0.126   9.151 -2.1238  1.1481  1.9339
  146SAPE  C31516122   1.177  -0.310   9.163  0.3471 -0.5500 -0.6101
  146SAPE  H15X16123   1.105  -0.388   9.130 -1.5327  0.6856  0.4617
  146SAPE  H15Y16124   1.256  -0.355   9.227 -1.2780 -0.3535  1.5991
  146SAPE  C31616125   1.256  -0.275   9.036  0.8071 -0.1285  0.4042
  146SAPE  H16X16126   1.341  -0.346   9.028  0.4749 -0.2953 -2.5045
  146SAPE  H16Y16127   1.301  -0.176   9.057  0.5324  0.1044 -0.0802
  146SAPE  C31716128   1.166  -0.276   8.911 -0.9427  0.0791 -0.1138
  146SAPE  H17X16129   1.102  -0.186   8.921 -1.0218  0.2485 -1.9819
  146SAPE  H17Y16130   1.107  -0.370   8.909  1.7973 -1.7962  2.5353
  146SAPE  C31816131   1.251  -0.266   8.788 -0.0446 -0.3705 -0.0560
  146SAPE  H18X16132   1.185  -0.251   8.699  2.4701 -0.5563 -2.0069
  146SAPE  H18Y16133   1.313  -0.358   8.780  0.9138  0.3175 -0.5647
  146SAPE  H18Z16134   1.316  -0.178   8.801 -0.4074  0.1532 -1.6726
  147SAPE     N16135   5.239   4.246   6.332  0.0670 -0.6393  0.5754
  147SAPE   HN116136   5.321   4.189   6.360  0.9448  0.5111  0.3641
  147SAPE   HN216137   5.184   4.184   6.269 -0.4813  0.8035 -0.3998
  147SAPE   HN316138   5.257   4.339   6.288  2.2465  0.2459  3.2332
  147SAPE   C1216139   5.170   4.294   6.454 -0.1698  0.9189  0.2129
  147SAPE  H12A16140   5.237   4.373   6.493  0.9290 -0.3293  0.8893
  147SAPE  H12B16141   5.169   4.216   6.533 -2.2080 -1.3191 -1.8895
  147SAPE   C1116142   5.031   4.354   6.417 -0.6631 -0.8801 -0.2546
  147SAPE  H11A16143   4.972   4.401   6.500 -1.0625 -1.2323 -0.3363
  147SAPE  H11B16144   4.970   4.272   6.374 -1.5496 -0.0464 -0.6100
  147SAPE     P16145   4.937   4.541   6.269 -0.0757 -0.0789  0.2959
  147SAPE   O1316146   4.985   4.681   6.253 -0.1318  0.5568  0.5491
  147SAPE   O1416147   4.886   4.468   6.155 -0.1480 -0.7041 -0.2538
  147SAPE   O1216148   5.059   4.457   6.325  0.1443  0.7061 -0.1867
  147SAPE   O1116149   4.827   4.526   6.377 -0.5865 -0.2583  0.6247
  147SAPE    C116150   4.771   4.630   6.454  0.1898  0.0122  0.0078
  147SAPE    HA16151   4.817   4.729   6.436  0.5363 -0.3071 -0.9291
  147SAPE    HB16152   4.662   4.644   6.444  0.1750 -1.3578 -2.3757
  147SAPE    C216153   4.796   4.592   6.592 -0.6238 -0.2442 -0.5744
  147SAPE    HS16154   4.906   4.582   6.606 -0.1599 -0.0742 -3.7825
  147SAPE   O2116155   4.725   4.482   6.625  0.5723 -0.2615 -0.1416
  147SAPE   C2116156   4.770   4.379   6.694 -0.3019  1.0210 -0.1841
  147SAPE   O2216157   4.882   4.368   6.736 -0.1670  0.6441  0.6741
  147SAPE   C2216158   4.653   4.275   6.719 -0.1668  0.2609  0.3905
  147SAPE   H2R16159   4.594   4.268   6.625  0.2418 -0.2069  0.1691
  147SAPE   H2S16160   4.702   4.177   6.739  0.9095  0.3592 -1.6208
  147SAPE    C316161   4.761   4.713   6.685 -0.1808  0.2803  0.1363
  147SAPE    HX16162   4.651   4.725   6.685 -0.2247  0.1589  2.2852
  147SAPE    HY16163   4.805   4.808   6.647  0.9400 -0.3752 -0.2156
  147SAPE   O3116164   4.798   4.686   6.817 -0.4976  0.2059 -0.4990
  147SAPE   C3116165   4.910   4.737   6.874  0.4661  0.0586  0.4256
  147SAPE   O3216166   4.993   4.804   6.824  0.5415  0.3199  0.6399
  147SAPE   C3216167   4.912   4.681   7.014 -0.2397  0.5392 -0.6443
  147SAPE   H2X16168   4.959   4.580   7.010  0.5322  0.8596  0.1040
  147SAPE   H2Y16169   4.807   4.665   7.045  0.1789  0.0055  0.5452
  147SAPE   C2316170   4.549   4.318   6.828  0.0806  0.6510 -0.0801
  147SAPE   H3R16171   4.488   4.228   6.848  0.6637  0.1261 -0.6302
  147SAPE   H3S16172   4.491   4.408   6.797 -0.9714  0.0527  0.1634
  147SAPE   C2416173   4.611   4.366   6.956  0.0901 -0.1315 -0.0790
  147SAPE   H4R16174   4.531   4.423   7.008  0.4124 -0.1931  0.4887
  147SAPE   H4S16175   4.693   4.440   6.944 -0.8089  0.7913 -0.6207
  147SAPE   C2516176   4.657   4.248   7.042 -0.3428  0.0549  0.4071
  147SAPE   H5R16177   4.684   4.160   6.982 -1.3259 -0.7669  1.1553
  147SAPE   C2616178   4.667   4.249   7.172  0.0479  0.6846  0.1182
  147SAPE   H6R16179   4.708   4.158   7.218 -0.5704  0.2163 -0.2562
  147SAPE   C2716180   4.641   4.360   7.271 -1.2302 -0.3069 -0.4471
  147SAPE   H7R16181   4.676   4.454   7.224 -3.5926  1.7222  1.7085
  147SAPE   H7S16182   4.713   4.341   7.354 -1.4815 -1.6446 -0.5129
  147SAPE   C2816183   4.497   4.386   7.312  0.3736  0.3187  0.1751
  147SAPE   H8R16184   4.417   4.369   7.239 -0.1217  2.9281  0.0685
  147SAPE   C2916185   4.466   4.447   7.429 -0.8224 -0.0319  0.7008
  147SAPE   H9R16186   4.360   4.464   7.455  0.0187  3.6828  2.0543
  147SAPE  C21016187   4.566   4.495   7.533  0.3160  0.2355  0.5236
  147SAPE  H10R16188   4.625   4.410   7.573 -0.9749  0.1849  2.4007
  147SAPE  H10S16189   4.505   4.526   7.621 -2.2470 -0.3204 -1.0093
  147SAPE  C21116190   4.646   4.617   7.487  1.2903 -0.0206  1.0289
  147SAPE  H11R16191   4.665   4.630   7.379 -0.5924 -0.9307  0.5611
  147SAPE  C21216192   4.694   4.701   7.574 -0.0914 -0.0114  0.5586
  147SAPE  H12R16193   4.758   4.782   7.535  2.3231 -2.3099 -0.3859
  147SAPE  C21316194   4.672   4.709   7.726  0.0975 -0.4257  0.5092
  147SAPE  H13R16195   4.766   4.757   7.758  0.2418  0.0686 -0.6087
  147SAPE  H13S16196   4.678   4.609   7.773  0.7056  0.3106  2.0174
  147SAPE  C21416197   4.547   4.787   7.773 -0.0108  0.8120  0.3189
  147SAPE  H14R16198   4.491   4.832   7.690  0.6503  1.1877  0.0742
  147SAPE  C21516199   4.494   4.780   7.898  0.2880 -0.3876  0.2664
  147SAPE  H15R16200   4.406   4.843   7.917  2.5425  2.9491  0.0583
  147SAPE  C21616201   4.540   4.718   8.027 -0.7679  0.2881  0.1492
  147SAPE  H16R16202   4.650   4.704   8.038 -0.8120 -1.4339 -1.3034
  147SAPE  H16S16203   4.502   4.613   8.026  1.5846 -0.6111 -1.8156
  147SAPE  C21716204   4.485   4.801   8.147  0.5380  0.1210  0.3604
  147SAPE  H17R16205   4.374   4.810   8.151  0.3869 -1.5035  0.6174
  147SAPE  H17S16206   4.530   4.901   8.133 -0.6993  0.5522 -0.6068
  147SAPE  C21816207   4.520   4.734   8.285  0.4747 -0.2089  0.6272
  147SAPE  H18R16208   4.612   4.672   8.286  0.8585  0.3265 -0.9786
  147SAPE  H18S16209   4.444   4.656   8.307  2.1023 -1.3847  2.2192
  147SAPE  C21916210   4.531   4.838   8.396 -0.0128  0.0907 -0.0501
  147SAPE  H19R16211   4.456   4.915   8.370 -0.9372 -1.1067 -1.0149
  147SAPE  H19S16212   4.627   4.893   8.389  0.1312 -0.2437 -0.7553
  147SAPE  C22016213   4.523   4.773   8.533 -0.1342  0.1170  0.1212
  147SAPE  H20R16214   4.604   4.697   8.530 -0.7789 -0.5620 -0.5257
  147SAPE  H20S16215   4.426   4.723   8.556 -0.3261  1.5756  2.6014
  147SAPE  H20T16216   4.549   4.851   8.607  0.6645 -0.2218  0.1945
  147SAPE   C3316217   4.985   4.775   7.116  0.0323  0.0121  0.1591
  147SAPE   H3X16218   4.951   4.879   7.101  0.2508  0.0617  0.0059
  147SAPE   H3Y16219   5.095   4.761   7.107 -0.2953 -1.1195 -2.3643
  147SAPE   C3416220   4.939   4.734   7.256  0.2422 -0.6388 -0.3856
  147SAPE   H4X16221   4.830   4.716   7.272  0.1223  0.7164  0.3713
  147SAPE   H4Y16222   4.970   4.813   7.327 -0.2563 -2.2602  1.6801
  147SAPE   C3516223   5.014   4.607   7.295 -0.5819  0.1592  0.1327
  147SAPE   H5X16224   5.123   4.632   7.295 -1.2299  3.1293 -0.0700
  147SAPE   H5Y16225   4.999   4.519   7.229 -0.0672  0.9939 -1.1188
  147SAPE   C3616226   4.976   4.556   7.431  0.1258 -0.6454  0.4749
  147SAPE   H6X16227   4.892   4.483   7.427  0.0103 -0.4835 -0.0732
  147SAPE   H6Y16228   4.947   4.643   7.493  1.1830  0.1925 -0.2007
  147SAPE   C3716229   5.085   4.490   7.507  0.2770 -0.4561  0.3491
  147SAPE   H7X16230   5.184   4.532   7.481  0.6863 -0.8179  1.2941
  147SAPE   H7Y16231   5.088   4.380   7.494  1.1381 -0.3660 -0.2322
  147SAPE   C3816232   5.079   4.538   7.660  0.0249  0.0268 -0.1871
  147SAPE   H8X16233   4.975   4.523   7.696  0.1439 -1.5839 -0.5016
  147SAPE   H8Y16234   5.104   4.644   7.681  0.0146 -0.6827  3.8643
  147SAPE   C3916235   5.175   4.465   7.748 -0.0646  0.0568  0.1321
  147SAPE   H9X16236   5.278   4.492   7.719  0.7276  0.2262  2.9370
  147SAPE   H9Y16237   5.159   4.355   7.754 -0.5889  0.2152  2.2622
  147SAPE  C31016238   5.181   4.527   7.892 -0.3177  0.5512 -0.8644
  147SAPE  H10X16239   5.219   4.631   7.900  2.0253 -0.3786  0.6201
  147SAPE  H10Y16240   5.257   4.466   7.946 -0.4819  0.6259 -0.5495
  147SAPE  C31116241   5.046   4.511   7.969  0.0395 -0.0354  0.9155
  147SAPE  H11X16242   5.028   4.402   7.966  4.2194 -0.8842  2.7320
  147SAPE  H11Y16243   4.974   4.565   7.905 -0.3051  0.9471  2.1033
  147SAPE  C31216244   5.071   4.566   8.111  0.7842  0.3216  0.3059
  147SAPE  H12X16245   5.080   4.674   8.091  0.1665  1.0490  3.6052
  147SAPE  H12Y16246   5.161   4.534   8.167 -0.0357 -1.3806  0.7054
  147SAPE  C31316247   4.950   4.550   8.195  0.3643 -0.5376 -0.0828
  147SAPE  H13X16248   4.968   4.460   8.258 -1.6863 -0.6711  0.3441
  147SAPE  H13Y16249   4.875   4.527   8.116  0.5875  0.0555 -0.4649
  147SAPE  C31416250   4.916   4.666   8.290 -0.0213  0.2069 -0.4742
  147SAPE  H14X16251   4.826   4.642   8.351  1.4434  1.2150  2.2051
  147SAPE  H14Y16252   4.895   4.743   8.213  1.7466  2.2771  1.0409
  147SAPE  C31516253   5.032   4.697   8.380 -0.2351 -0.0693  0.0760
  147SAPE  H15X16254   4.998   4.800   8.403 -0.2002  0.5358 -2.4339
  147SAPE  H15Y16255   5.127   4.695   8.323  0.8367 -0.8696  1.8301
  147SAPE  C31616256   5.039   4.595   8.499  0.1201  0.1137 -0.9166
  147SAPE  H16X16257   5.064   4.495   8.458 -1.6245  0.8585 -3.8825
  147SAPE  H16Y16258   4.936   4.580   8.538  1.2544 -1.4351  1.5936
  147SAPE  C31716259   5.131   4.630   8.623  0.3736 -0.1624  0.1908
  147SAPE  H17X16260   5.109   4.735   8.651 -1.9454 -0.7352  0.5551
  147SAPE  H17Y16261   5.236   4.631   8.586  0.4949 -0.7694  0.5209
  147SAPE  C31816262   5.113   4.544   8.748  0.4700 -0.2285  0.6114
  147SAPE  H18X16263   5.184   4.576   8.827  0.2486  3.0114 -0.4288
  147SAPE  H18Y16264   5.133   4.437   8.724  0.2787  0.1985 -1.5516
  147SAPE  H18Z16265   5.010   4.543   8.790 -0.9276 -3.7413 -2.6718
  148SAPE     N16266   4.324   2.906   6.599 -1.0166  0.3541  0.3653
  148SAPE   HN116267   4.412   2.862   6.632 -0.8043 -0.0329 -0.7094
  148SAPE   HN216268   4.335   3.010   6.599  1.1507  0.2029 -3.3556
  148SAPE   HN316269   4.241   2.879   6.656  0.3548 -4.1795  0.4027
  148SAPE   C1216270   4.304   2.875   6.457  0.2915 -0.3282 -0.6357
  148SAPE  H12A16271   4.318   2.963   6.390 -0.9140  1.1837  1.0478
  148SAPE  H12B16272   4.204   2.830   6.440 -0.3265  1.7331 -2.7363
  148SAPE   C1116273   4.409   2.758   6.414  0.3494  0.1801  0.8698
  148SAPE  H11A16274   4.513   2.796   6.421  0.2055  0.5296  1.1458
  148SAPE  H11B16275   4.388   2.740   6.307  0.4617  1.7432  0.5794
  148SAPE     P16276   4.302   2.511   6.448  0.2606  0.3164  0.0709
  148SAPE   O1316277   4.248   2.528   6.312  0.0523 -0.4053  0.0326
  148SAPE   O1416278   4.375   2.390   6.472 -0.4858  0.0528  0.0674
  148SAPE   O1216279   4.396   2.636   6.487  0.8026  0.8322 -0.3381
  148SAPE   O1116280   4.188   2.516   6.550 -0.3048 -0.0834  0.1673
  148SAPE    C116281   4.188   2.440   6.675 -0.1776  0.3390 -0.2445
  148SAPE    HA16282   4.084   2.417   6.707 -0.3896  0.6404 -0.7057
  148SAPE    HB16283   4.240   2.343   6.663 -0.4780 -0.1389  2.1298
  148SAPE    C216284   4.246   2.517   6.787 -0.3308  0.1281  0.2230
  148SAPE    HS16285   4.335   2.570   6.747 -2.1708  1.4327 -2.3013
  148SAPE   O2116286   4.284   2.432   6.900  0.3353 -0.1306  0.4793
  148SAPE   C2116287   4.410   2.380   6.891 -0.4572  0.2604  0.0267
  148SAPE   O2216288   4.493   2.410   6.810 -0.2596  0.4957 -0.9901
  148SAPE   C2216289   4.425   2.272   6.999 -0.6833  0.1367 -0.4321
  148SAPE   H2R16290   4.333   2.286   7.059 -1.4644 -0.0027 -1.5756
  148SAPE   H2S16291   4.407   2.174   6.950 -0.5859  0.2813 -0.7589
  148SAPE    C316292   4.151   2.625   6.843 -0.2113  0.4687 -0.2598
  148SAPE    HX16293   4.050   2.581   6.845  0.2272 -0.6010 -1.3232
  148SAPE    HY16294   4.134   2.707   6.770 -2.4659 -0.8921 -1.3074
  148SAPE   O3116295   4.174   2.674   6.978  0.2115 -0.2785  0.6493
  148SAPE   C3116296   4.257   2.772   6.986 -0.1946 -0.2693  0.5358
  148SAPE   O3216297   4.322   2.810   6.889 -0.3750 -0.1482  0.0069
  148SAPE   C3216298   4.267   2.833   7.128  0.1718 -0.0685 -0.5739
  148SAPE   H2X16299   4.164   2.855   7.165  1.0546 -0.5396  2.2275
  148SAPE   H2Y16300   4.306   2.936   7.122  1.0954 -0.3970 -0.1554
  148SAPE   C2316301   4.568   2.260   7.065  0.8979 -0.2698 -0.0961
  148SAPE   H3R16302   4.642   2.224   6.990  0.3815  0.3630 -0.9205
  148SAPE   H3S16303   4.562   2.184   7.145  1.2476  1.1935  1.3465
  148SAPE   C2416304   4.622   2.398   7.112 -0.7526  0.6727  0.4010
  148SAPE   H4R16305   4.631   2.471   7.029 -1.8887  0.7933  0.3760
  148SAPE   H4S16306   4.724   2.376   7.149 -2.0001 -0.9458  3.0970
  148SAPE   C2516307   4.545   2.449   7.231  0.5503  0.5548  0.4029
  148SAPE   H5R16308   4.451   2.500   7.204  1.5844  1.1566 -2.1444
  148SAPE   C2616309   4.569   2.412   7.355 -0.1015 -0.0258  0.4230
  148SAPE   H6R16310   4.486   2.432   7.424 -0.4031 -1.1059  0.3901
  148SAPE   C2716311   4.667   2.312   7.405 -0.2445  0.9435 -0.1542
  148SAPE   H7R16312   4.759   2.374   7.419  0.1207 -0.1275  2.3340
  148SAPE   H7S16313   4.700   2.232   7.336  0.4583 -0.1526  1.4166
  148SAPE   C2816314   4.622   2.252   7.537 -0.4443  0.2351  0.7748
  148SAPE   H8R16315   4.524   2.201   7.532 -1.4442  1.8357  3.0089
  148SAPE   C2916316   4.668   2.284   7.660  0.5893  0.6427 -0.8732
  148SAPE   H9R16317   4.630   2.230   7.748  0.6969  1.4631 -0.3168
  148SAPE  C21016318   4.783   2.376   7.690 -0.0743  0.9356  0.3345
  148SAPE  H10R16319   4.748   2.478   7.714 -1.3522  0.5032  0.3791
  148SAPE  H10S16320   4.848   2.395   7.602  1.0604  0.5733  1.0869
  148SAPE  C21116321   4.869   2.320   7.810  0.0941  0.1591  0.2441
  148SAPE  H11R16322   4.948   2.252   7.774 -1.7191 -1.3817 -0.9402
  148SAPE  C21216323   4.853   2.357   7.941 -0.3204 -0.3549  0.1459
  148SAPE  H12R16324   4.926   2.306   8.006 -0.4542  3.1983  3.2535
  148SAPE  C21316325   4.764   2.461   8.006 -0.0416  0.4691  0.5496
  148SAPE  H13R16326   4.767   2.556   7.949  2.2661  0.4925  0.6718
  148SAPE  H13S16327   4.822   2.493   8.095 -0.6704  0.9566  0.7894
  148SAPE  C21416328   4.622   2.419   8.048  0.4762 -0.1183 -0.1664
  148SAPE  H14R16329   4.548   2.411   7.968 -0.5834 -1.9749  0.9679
  148SAPE  C21516330   4.587   2.398   8.175  0.4057  0.3035 -0.1388
  148SAPE  H15R16331   4.480   2.375   8.181  0.0751  1.3660 -1.5288
  148SAPE  C21616332   4.659   2.407   8.305  0.0876 -0.0549  0.5505
  148SAPE  H16R16333   4.682   2.513   8.326  1.3134  0.0803 -1.4244
  148SAPE  H16S16334   4.756   2.355   8.292  1.0193  1.2176  2.1446
  148SAPE  C21716335   4.593   2.338   8.429 -0.0412 -0.6425 -0.2719
  148SAPE  H17R16336   4.671   2.349   8.508  1.2824  1.0641 -1.7634
  148SAPE  H17S16337   4.564   2.234   8.402 -0.2949 -0.5325 -0.4215
  148SAPE  C21816338   4.473   2.409   8.471 -0.5646  0.1180  0.1047
  148SAPE  H18R16339   4.396   2.404   8.390  0.8366  0.7354 -1.2959
  148SAPE  H18S16340   4.496   2.516   8.488 -2.7435  0.9682 -2.0674
  148SAPE  C21916341   4.412   2.345   8.589 -0.0955 -0.1099  0.1474
  148SAPE  H19R16342   4.399   2.237   8.565 -0.0555 -0.2655  0.8031
  148SAPE  H19S16343   4.308   2.382   8.604 -1.0085 -1.4267 -2.6929
  148SAPE  C22016344   4.482   2.379   8.720  0.4703  0.1154 -0.1615
  148SAPE  H20R16345   4.422   2.363   8.812 -0.1451 -0.8533 -0.7211
  148SAPE  H20S16346   4.511   2.486   8.718 -0.5211  0.3984  0.1925
  148SAPE  H20T16347   4.569   2.311   8.724  1.8875  1.9080 -0.1142
  148SAPE   C3316348   4.342   2.740   7.231 -0.0254 -0.0299  0.3248
  148SAPE   H3X16349   4.448   2.744   7.199 -0.0569  0.1297  0.2392
  148SAPE   H3Y16350   4.309   2.635   7.222 -1.4496  0.4438 -0.1529
  148SAPE   C3416351   4.329   2.774   7.379 -0.4739 -0.2774  0.4746
  148SAPE   H4X16352   4.222   2.784   7.405 -1.4413 -2.0011 -2.5780
  148SAPE   H4Y16353   4.375   2.874   7.395 -2.2392  0.3081  2.0732
  148SAPE   C3516354   4.373   2.671   7.484 -0.3683  0.5306 -0.4010
  148SAPE   H5X16355   4.470   2.642   7.440 -0.4346  0.3311 -0.4161
  148SAPE   H5Y16356   4.307   2.582   7.490 -0.8978  0.9569  0.1872
  148SAPE   C3616357   4.389   2.731   7.624  0.2803 -0.2678  0.1481
  148SAPE   H6X16358   4.292   2.759   7.670  1.0870  2.0979  0.4900
  148SAPE   H6Y16359   4.437   2.829   7.603  1.8683 -0.3709  3.0372
  148SAPE   C3716360   4.481   2.650   7.710 -0.4100 -0.0139 -0.6996
  148SAPE   H7X16361   4.576   2.618   7.662 -0.9664 -1.0694 -1.1194
  148SAPE   H7Y16362   4.426   2.558   7.740 -1.3474  0.8429  0.2346
  148SAPE   C3816363   4.511   2.718   7.837 -0.2345 -0.2262  0.9636
  148SAPE   H8X16364   4.584   2.800   7.822 -0.0954 -0.3315  1.0719
  148SAPE   H8Y16365   4.564   2.636   7.891  2.6206 -0.2438 -1.7743
  148SAPE   C3916366   4.385   2.757   7.916  0.4771  0.4652  0.2121
  148SAPE   H9X16367   4.336   2.658   7.923  0.4003  0.5740  1.3641
  148SAPE   H9Y16368   4.316   2.824   7.861  0.0019  0.9564  1.3902
  148SAPE  C31016369   4.434   2.809   8.047  0.4013 -0.3378  0.3268
  148SAPE  H10X16370   4.496   2.898   8.023 -1.8544  0.8741 -1.1613
  148SAPE  H10Y16371   4.511   2.739   8.086  2.0454  0.9297 -0.5524
  148SAPE  C31116372   4.327   2.827   8.150  0.2389 -0.2448 -0.4870
  148SAPE  H11X16373   4.237   2.764   8.131 -1.4382  0.1572  5.1077
  148SAPE  H11Y16374   4.288   2.930   8.138  0.5389 -0.2118 -1.1956
  148SAPE  C31216375   4.376   2.816   8.299  0.6220 -0.8998 -0.7692
  148SAPE  H12X16376   4.455   2.893   8.307  0.8065 -1.1032 -0.6571
  148SAPE  H12Y16377   4.417   2.717   8.327  0.4023 -0.4789  1.1139
  148SAPE  C31316378   4.277   2.845   8.411 -0.3941 -0.0910 -0.3201
  148SAPE  H13X16379   4.235   2.947   8.401  0.1568  0.0354 -1.4669
  148SAPE  H13Y16380   4.341   2.841   8.502 -0.1255  2.8653 -0.3395
  148SAPE  C31416381   4.157   2.744   8.428  0.1697  0.7559 -0.4501
  148SAPE  H14X16382   4.164   2.645   8.377  1.0451  0.6613 -0.1634
  148SAPE  H14Y16383   4.070   2.791   8.377 -0.0372 -0.0762 -0.8747
  148SAPE  C31516384   4.105   2.735   8.578  0.6877 -0.3017  0.8233
  148SAPE  H15X16385   4.186   2.689   8.639 -0.2351 -0.1259  2.2271
  148SAPE  H15Y16386   4.017   2.667   8.587 -0.9892  1.4422 -1.7406
  148SAPE  C31616387   4.075   2.874   8.645 -0.1897  0.4446  0.5356
  148SAPE  H16X16388   4.166   2.936   8.634  0.0338 -0.2738 -1.8834
  148SAPE  H16Y16389   4.061   2.854   8.754 -1.9818 -0.7345  0.1135
  148SAPE  C31716390   3.956   2.954   8.600  0.1630 -0.4400 -0.4007
  148SAPE  H17X16391   3.869   2.914   8.655 -0.0795  1.4987  0.6666
  148SAPE  H17Y16392   3.926   2.937   8.494  0.6366 -0.1991 -0.5734
  148SAPE  C31816393   3.973   3.105   8.623 -0.1513  0.2129 -0.1789
  148SAPE  H18X16394   3.880   3.158   8.592 -1.0645 -1.3105 -0.0939
  148SAPE  H18Y16395   4.066   3.138   8.572  0.7361  2.7610  2.9541
  148SAPE  H18Z16396   3.988   3.112   8.733 -2.6931 -3.0349  0.4696
  149SAPE     N16397   4.769   3.710   6.108 -0.0379 -0.0586 -0.4226
  149SAPE   HN116398   4.782   3.716   6.005  0.8528 -0.7253 -0.3504
  149SAPE   HN216399   4.794   3.798   6.157  0.0310  0.0409 -0.6402
  149SAPE   HN316400   4.839   3.636   6.128 -1.8869 -1.4670  1.0964
  149SAPE   C1216401   4.625   3.670   6.144 -0.1284  0.5391 -0.5744
  149SAPE  H12A16402   4.588   3.594   6.072 -0.9596  1.3664 -1.0356
  149SAPE  H12B16403   4.553   3.753   6.130  0.0685  1.2425  2.2418
  149SAPE   C1116404   4.622   3.629   6.295 -0.2120 -0.2115  0.1098
  149SAPE  H11A16405   4.521   3.593   6.323 -0.8784 -1.0240 -3.1446
  149SAPE  H11B16406   4.640   3.714   6.365 -3.3962 -0.6835  1.5696
  149SAPE     P16407   4.721   3.410   6.422  0.1279  0.0482  0.2378
  149SAPE   O1316408   4.613   3.322   6.383  0.2900 -0.0270 -0.5565
  149SAPE   O1416409   4.858   3.357   6.428  0.4929  0.2264  0.3608
  149SAPE   O1216410   4.721   3.533   6.328 -0.3796 -0.1709 -0.6371
  149SAPE   O1116411   4.687   3.474   6.559  0.2677  0.3077 -0.4301
  149SAPE    C116412   4.739   3.597   6.607 -0.5053 -0.4085 -0.0184
  149SAPE    HA16413   4.849   3.594   6.596 -0.2825 -0.0290  1.9142
  149SAPE    HB16414   4.695   3.687   6.560 -1.3106 -0.3240  0.8695
  149SAPE    C216415   4.697   3.625   6.756  0.7478 -0.1456 -0.3390
  149SAPE    HS16416   4.734   3.725   6.788  1.8546 -0.4434 -0.6752
  149SAPE   O2116417   4.740   3.515   6.844  0.2133 -0.3509 -0.3228
  149SAPE   C2116418   4.872   3.535   6.867  0.0969 -0.0683 -0.7494
  149SAPE   O2216419   4.942   3.626   6.832 -0.4898  0.0670 -0.1840
  149SAPE   C2216420   4.920   3.414   6.955  0.2188  0.5622 -0.4561
  149SAPE   H2R16421   4.827   3.359   6.980 -0.2701  2.0299  1.0449
  149SAPE   H2S16422   4.977   3.343   6.892  0.0924  3.6542 -4.2346
  149SAPE    C316423   4.543   3.629   6.773  0.3584  0.2864  0.9401
  149SAPE    HX16424   4.507   3.523   6.778  2.3188 -0.4808 -0.6579
  149SAPE    HY16425   4.492   3.680   6.689 -2.2073 -2.2133  0.8913
  149SAPE   O3116426   4.511   3.698   6.893 -0.6272 -0.1981 -1.0915
  149SAPE   C3116427   4.376   3.714   6.911 -0.3295 -0.3112 -0.4958
  149SAPE   O3216428   4.289   3.665   6.847  0.6890  0.1018 -0.2729
  149SAPE   C3216429   4.363   3.796   7.037 -0.4786  1.0087  0.3406
  149SAPE   H2X16430   4.271   3.855   7.018  1.1722  3.6884  0.4164
  149SAPE   H2Y16431   4.446   3.869   7.048  1.2072 -0.5510 -1.5739
  149SAPE   C2316432   5.007   3.461   7.072  0.0190  0.6191 -0.6593
  149SAPE   H3R16433   4.956   3.544   7.126  2.9287  2.0001  0.0789
  149SAPE   H3S16434   5.103   3.503   7.034  0.7412 -1.2734 -0.9660
  149SAPE   C2416435   5.046   3.353   7.176  0.2032 -0.0271  0.0299
  149SAPE   H4R16436   5.099   3.416   7.251 -0.0726  0.4624 -0.1830
  149SAPE   H4S16437   5.129   3.292   7.135 -0.8500 -1.6908  0.3486
  149SAPE   C2516438   4.941   3.264   7.221 -0.1183 -0.1128 -0.5604
  149SAPE   H5R16439   4.914   3.181   7.154 -0.3881 -0.5750  0.1160
  149SAPE   C2616440   4.877   3.271   7.343 -0.1186 -1.5676 -0.3445
  149SAPE   H6R16441   4.798   3.196   7.360 -0.7696 -0.7504  0.2466
  149SAPE   C2716442   4.904   3.378   7.454 -0.0674  0.0463 -0.8296
  149SAPE   H7R16443   4.916   3.474   7.399  0.2754  1.2178  1.2319
  149SAPE   H7S16444   4.999   3.353   7.506 -0.3989 -1.5965 -0.9794
  149SAPE   C2816445   4.799   3.411   7.556 -0.0269 -0.1557  0.0985
  149SAPE   H8R16446   4.698   3.403   7.514 -0.4679 -0.6343  1.2227
  149SAPE   C2916447   4.814   3.446   7.685 -0.2404 -0.3580 -0.5966
  149SAPE   H9R16448   4.728   3.438   7.754  0.7652  1.4372  0.9193
  149SAPE  C21016449   4.947   3.471   7.754  0.5903  0.1478 -0.3963
  149SAPE  H10R16450   4.946   3.580   7.777  0.7733 -0.0561  0.6051
  149SAPE  H10S16451   5.028   3.460   7.679  1.9131  2.1225  0.7158
  149SAPE  C21116452   4.988   3.376   7.872  0.0394 -0.0107  1.1207
  149SAPE  H11R16453   4.938   3.278   7.873  0.1042 -0.0685 -0.2497
  149SAPE  C21216454   5.087   3.404   7.960  0.3273  0.0917 -0.0748
  149SAPE  H12R16455   5.115   3.327   8.034  1.8134 -0.0964 -0.8256
  149SAPE  C21316456   5.175   3.523   7.973 -0.6408 -0.2896 -0.8861
  149SAPE  H13R16457   5.162   3.598   7.892 -0.2969 -0.8601 -1.4689
  149SAPE  H13S16458   5.279   3.490   7.956 -0.4077  1.0511 -2.2582
  149SAPE  C21416459   5.179   3.594   8.109  0.0468 -0.5678  0.2180
  149SAPE  H14R16460   5.096   3.663   8.130 -0.2164 -0.5798 -0.7652
  149SAPE  C21516461   5.265   3.577   8.211 -0.3631 -1.1222  0.4029
  149SAPE  H15R16462   5.271   3.643   8.298  1.3693 -1.9333  0.9309
  149SAPE  C21616463   5.391   3.494   8.212 -0.2829 -0.7674  0.0922
  149SAPE  H16R16464   5.380   3.400   8.155  2.3442 -1.4000  0.5735
  149SAPE  H16S16465   5.399   3.463   8.319 -1.6785 -0.9246  0.1615
  149SAPE  C21716466   5.513   3.569   8.167 -0.5974 -0.1518 -0.6571
  149SAPE  H17R16467   5.501   3.611   8.065 -1.9190 -1.7874 -1.2083
  149SAPE  H17S16468   5.601   3.501   8.163  1.2335  2.1059  0.4254
  149SAPE  C21816469   5.535   3.686   8.269  0.0835  0.3479  0.0458
  149SAPE  H18R16470   5.519   3.647   8.372 -1.9190  0.8958 -0.0518
  149SAPE  H18S16471   5.456   3.761   8.248  1.2247  0.6534 -3.5249
  149SAPE  C21916472   5.666   3.761   8.255 -0.3212  0.4649 -0.7451
  149SAPE  H19R16473   5.662   3.869   8.280 -0.3823  0.3007 -0.0432
  149SAPE  H19S16474   5.691   3.754   8.147  1.7349  1.0747 -0.3426
  149SAPE  C22016475   5.786   3.698   8.316  0.0410 -0.3130 -0.5349
  149SAPE  H20R16476   5.796   3.720   8.424 -2.7532  0.6397 -0.4428
  149SAPE  H20S16477   5.878   3.729   8.261  0.6441  0.0681  0.6750
  149SAPE  H20T16478   5.785   3.588   8.302  4.2934 -0.5368  0.2203
  149SAPE   C3316479   4.322   3.729   7.170 -0.1861 -0.4068  0.3591
  149SAPE   H3X16480   4.236   3.662   7.155 -0.4778 -0.0286  0.3302
  149SAPE   H3Y16481   4.293   3.818   7.231 -1.5558 -1.0471  0.6392
  149SAPE   C3416482   4.449   3.675   7.233  0.2153 -0.5281  0.3467
  149SAPE   H4X16483   4.537   3.725   7.187 -0.0497 -1.9247 -1.7458
  149SAPE   H4Y16484   4.463   3.570   7.197 -0.4377  0.0444 -1.6550
  149SAPE   C3516485   4.460   3.656   7.388  0.2846 -0.3316  0.1957
  149SAPE   H5X16486   4.540   3.581   7.407 -3.5602 -4.2134  2.1902
  149SAPE   H5Y16487   4.369   3.609   7.432  0.6468 -0.7851  0.4779
  149SAPE   C3616488   4.482   3.796   7.464  0.1585  0.2176  0.5171
  149SAPE   H6X16489   4.485   3.770   7.572 -1.2781 -3.8971 -0.3524
  149SAPE   H6Y16490   4.403   3.868   7.433 -0.4590  0.0529  1.6577
  149SAPE   C3716491   4.622   3.860   7.434 -0.0374  0.3816 -0.0202
  149SAPE   H7X16492   4.607   3.878   7.325 -0.3755  1.7058  0.2385
  149SAPE   H7Y16493   4.706   3.789   7.449 -1.5656 -1.7381 -1.2764
  149SAPE   C3816494   4.653   3.997   7.484  0.0362  0.2315  0.4138
  149SAPE   H8X16495   4.588   4.080   7.449 -1.5401 -2.1246 -2.5263
  149SAPE   H8Y16496   4.755   4.017   7.445 -0.5920  1.1913 -0.7687
  149SAPE   C3916497   4.655   3.988   7.642 -0.2535 -0.3502  0.4801
  149SAPE   H9X16498   4.741   3.930   7.682  0.7485  0.7184 -0.0618
  149SAPE   H9Y16499   4.562   3.942   7.680  0.2533 -1.1021  0.8081
  149SAPE  C31016500   4.648   4.129   7.708  0.0847 -0.1135  0.1954
  149SAPE  H10X16501   4.587   4.176   7.628 -0.4355 -1.0746  0.0073
  149SAPE  H10Y16502   4.747   4.177   7.698 -0.0757  1.0874  3.7810
  149SAPE  C31116503   4.619   4.127   7.858 -0.0218  0.2841 -0.2484
  149SAPE  H11X16504   4.679   4.049   7.910 -0.5223  0.4782  0.6240
  149SAPE  H11Y16505   4.513   4.102   7.880  0.1239  0.3683  0.5651
  149SAPE  C31216506   4.646   4.268   7.919 -0.4359 -0.7315 -0.5072
  149SAPE  H12X16507   4.585   4.337   7.856 -1.0688 -1.0092 -0.2019
  149SAPE  H12Y16508   4.747   4.315   7.915 -0.5895 -0.3466  0.1264
  149SAPE  C31316509   4.599   4.275   8.061 -0.1404  0.1519 -0.1442
  149SAPE  H13X16510   4.499   4.228   8.073  1.2188 -2.4809  1.0789
  149SAPE  H13Y16511   4.583   4.381   8.093  0.2495 -0.2885  1.5207
  149SAPE  C31416512   4.697   4.207   8.158  0.6614 -0.8511 -0.1291
  149SAPE  H14X16513   4.799   4.251   8.148  0.2084 -0.1551 -1.8954
  149SAPE  H14Y16514   4.706   4.100   8.132  0.4051 -1.2072  1.2049
  149SAPE  C31516515   4.652   4.213   8.301  0.0293  0.1538 -0.3201
  149SAPE  H15X16516   4.546   4.181   8.311  0.3355 -0.5270  0.7861
  149SAPE  H15Y16517   4.646   4.323   8.317  0.4431  0.5183 -2.5148
  149SAPE  C31616518   4.747   4.156   8.410  1.1455  0.4068  0.0393
  149SAPE  H16X16519   4.681   4.156   8.500  0.3730 -1.2095 -0.5017
  149SAPE  H16Y16520   4.822   4.234   8.432 -0.6786  1.8932  1.1830
  149SAPE  C31716521   4.809   4.018   8.379 -0.6913  0.0500 -0.3914
  149SAPE  H17X16522   4.860   4.019   8.280  1.7879 -1.5506  0.8077
  149SAPE  H17Y16523   4.725   3.947   8.366 -1.4443  1.2177 -2.1549
  149SAPE  C31816524   4.910   3.984   8.485 -0.5698 -0.2943 -1.1899
  149SAPE  H18X16525   5.002   4.045   8.473  0.3017 -1.0176  1.5232
  149SAPE  H18Y16526   4.933   3.875   8.482  0.3995 -0.1182 -0.1632
  149SAPE  H18Z16527   4.874   4.008   8.587  1.0601  0.0150 -0.6763
  150SAPE     N16528   2.493   4.594   6.312  0.2006  0.6222  0.5335
  150SAPE   HN116529   2.514   4.533   6.229 -1.5217  0.6778  0.0379
  150SAPE   HN216530   2.427   4.531   6.361  2.6676 -1.4759  1.3134
  150SAPE   HN316531   2.444   4.682   6.286  2.0204  1.5417  0.1068
  150SAPE   C1216532   2.600   4.619   6.416 -0.6347  0.4694 -0.3317
  150SAPE  H12A16533   2.681   4.677   6.365 -1.3058  0.1417 -1.8032
  150SAPE  H12B16534   2.631   4.515   6.440 -1.9025  0.2492  0.3896
  150SAPE   C1116535   2.538   4.706   6.518 -0.0476 -0.8948 -0.1805
  150SAPE  H11A16536   2.619   4.702   6.595  3.3569 -1.0016 -3.6361
  150SAPE  H11B16537   2.448   4.662   6.567  1.7068 -3.1385  1.1635
  150SAPE     P16538   2.634   4.942   6.449  0.3294 -0.2157 -0.1646
  150SAPE   O1316539   2.697   4.920   6.317 -0.6408 -0.0591 -0.3673
  150SAPE   O1416540   2.590   5.075   6.488  0.5435 -0.6827  0.1226
  150SAPE   O1216541   2.512   4.838   6.471 -0.0541 -0.1076  0.3834
  150SAPE   O1116542   2.736   4.891   6.560 -0.0305 -0.2578  0.1363
  150SAPE    C116543   2.786   4.982   6.658 -0.2296 -0.6364  0.0995
  150SAPE    HA16544   2.888   4.949   6.687 -0.5954 -1.2917  0.6562
  150SAPE    HB16545   2.788   5.085   6.615  0.5491 -0.6814  0.0235
  150SAPE    C216546   2.698   4.980   6.791  0.0847  0.7297 -0.5653
  150SAPE    HS16547   2.607   5.035   6.757 -0.0267  0.6781 -0.3521
  150SAPE   O2116548   2.769   5.046   6.898 -0.0468  0.3058  0.2454
  150SAPE   C2116549   2.788   5.175   6.889 -0.0684  0.2684  1.4220
  150SAPE   O2216550   2.765   5.244   6.794 -0.0090  0.8364 -0.2930
  150SAPE   C2216551   2.847   5.224   7.018 -0.3799 -0.0546 -0.4532
  150SAPE   H2R16552   2.763   5.278   7.066  0.2175  1.2032 -0.7961
  150SAPE   H2S16553   2.884   5.138   7.079 -2.2367 -0.5571 -0.0179
  150SAPE    C316554   2.652   4.835   6.827  0.0384 -0.7263  0.7170
  150SAPE    HX16555   2.718   4.769   6.768 -0.8600  0.8536 -2.1439
  150SAPE    HY16556   2.549   4.807   6.794 -2.0931  3.2442  3.5066
  150SAPE   O3116557   2.659   4.815   6.965 -0.1670  0.2160  0.5860
  150SAPE   C3116558   2.577   4.883   7.034  0.7148 -0.4231  0.4203
  150SAPE   O3216559   2.478   4.944   6.999  0.2990 -0.0627  0.2961
  150SAPE   C3216560   2.607   4.862   7.178 -0.4608  0.3582 -0.2297
  150SAPE   H2X16561   2.715   4.888   7.183 -0.8897  2.5245 -1.5996
  150SAPE   H2Y16562   2.604   4.757   7.214 -2.8559  1.3420  2.6380
  150SAPE   C2316563   2.966   5.320   7.005  0.3609  0.6045 -0.3643
  150SAPE   H3R16564   2.942   5.427   6.984  0.9261  0.6151 -0.9765
  150SAPE   H3S16565   3.031   5.290   6.920 -1.0847 -0.8540 -0.9847
  150SAPE   C2416566   3.042   5.326   7.139  0.4706  0.5765  0.5440
  150SAPE   H4R16567   3.126   5.399   7.129  1.1775 -0.4794 -1.6204
  150SAPE   H4S16568   3.091   5.228   7.152 -0.6885 -0.0095  0.5253
  150SAPE   C2516569   2.956   5.350   7.261  0.6493 -0.5721 -0.5375
  150SAPE   H5R16570   2.851   5.320   7.250  0.8121 -0.1319 -3.4949
  150SAPE   C2616571   3.005   5.408   7.368 -0.6800  0.6641 -0.2670
  150SAPE   H6R16572   2.946   5.417   7.460 -1.2166  0.9500 -0.6339
  150SAPE   C2716573   3.143   5.457   7.386 -0.9030 -0.4514 -0.4964
  150SAPE   H7R16574   3.162   5.536   7.309  1.1167 -1.6745 -1.2850
  150SAPE   H7S16575   3.223   5.383   7.364  0.8616  1.1371  0.5000
  150SAPE   C2816576   3.168   5.516   7.522  0.0318  0.1886  0.4526
  150SAPE   H8R16577   3.133   5.620   7.530 -1.7513 -0.4371  1.0620
  150SAPE   C2916578   3.252   5.475   7.618  0.1199  0.6717  0.6780
  150SAPE   H9R16579   3.255   5.529   7.714  0.1235 -1.1871  1.7417
  150SAPE  C21016580   3.333   5.345   7.607 -0.1466 -0.1900 -0.8048
  150SAPE  H10R16581   3.299   5.282   7.522  0.7557 -1.4373 -0.2551
  150SAPE  H10S16582   3.318   5.288   7.701  2.3180  0.5051  0.0542
  150SAPE  C21116583   3.473   5.381   7.576 -0.1153 -0.0767  0.2567
  150SAPE  H11R16584   3.485   5.406   7.469  0.7824 -2.5293 -0.2488
  150SAPE  C21216585   3.581   5.384   7.655 -0.0984  0.0208  0.2468
  150SAPE  H12R16586   3.676   5.413   7.608 -1.1952  1.6083 -1.0917
  150SAPE  C21316587   3.584   5.364   7.805 -0.0984  0.4480  0.0841
  150SAPE  H13R16588   3.637   5.268   7.825  1.8692  1.7813  1.4147
  150SAPE  H13S16589   3.479   5.346   7.837 -0.6526  0.4633 -1.6331
  150SAPE  C21416590   3.645   5.488   7.865 -0.5555  0.0742  0.5732
  150SAPE  H14R16591   3.609   5.587   7.834 -0.2154 -0.3430 -1.2263
  150SAPE  C21516592   3.754   5.478   7.952  0.3174  0.0657 -0.0620
  150SAPE  H15R16593   3.781   5.572   8.002 -1.8013  1.9725 -2.3402
  150SAPE  C21616594   3.828   5.353   7.997 -0.1882 -0.6491  0.3187
  150SAPE  H16R16595   3.883   5.311   7.910 -1.1306 -1.6770  0.2195
  150SAPE  H16S16596   3.771   5.274   8.049  1.8116 -1.5426  1.2102
  150SAPE  C21716597   3.935   5.380   8.103 -0.5683 -0.2572  0.0577
  150SAPE  H17R16598   4.026   5.417   8.051 -2.0465  0.6366 -1.9633
  150SAPE  H17S16599   3.952   5.274   8.133 -0.6589 -0.2511  0.1316
  150SAPE  C21816600   3.889   5.460   8.229  0.4578 -0.1622 -0.6653
  150SAPE  H18R16601   3.792   5.421   8.267 -0.1279 -0.1549 -2.0966
  150SAPE  H18S16602   3.851   5.558   8.195  1.1844  0.8732  1.4093
  150SAPE  C21916603   3.986   5.473   8.345  0.3811  0.3673  0.5118
  150SAPE  H19R16604   4.081   5.517   8.308  0.2842 -0.8484 -1.2475
  150SAPE  H19S16605   4.015   5.376   8.389  1.2646  0.5129  0.2540
  150SAPE  C22016606   3.927   5.565   8.457 -0.1282 -0.0428 -0.3892
  150SAPE  H20R16607   4.006   5.624   8.508  2.0574 -1.6329 -1.8532
  150SAPE  H20S16608   3.860   5.529   8.538  1.8515  0.8240  1.6831
  150SAPE  H20T16609   3.866   5.643   8.406 -0.1914  0.7114  0.8382
  150SAPE   C3316610   2.552   4.976   7.269  0.4716  0.1385 -0.4342
  150SAPE   H3X16611   2.450   4.940   7.296  0.5000  0.6211  0.3237
  150SAPE   H3Y16612   2.549   5.070   7.211 -0.1647  0.2340 -0.2525
  150SAPE   C3416613   2.635   4.996   7.393 -0.2745  0.4131 -0.1417
  150SAPE   H4X16614   2.612   5.092   7.444 -1.0251  0.0424  0.2302
  150SAPE   H4Y16615   2.742   5.007   7.367 -0.8782 -0.1429 -3.0530
  150SAPE   C3516616   2.614   4.903   7.508 -0.0945  0.8676 -0.3836
  150SAPE   H5X16617   2.659   4.804   7.482 -2.8708 -1.1040  1.9543
  150SAPE   H5Y16618   2.505   4.884   7.523  0.5198 -0.5014  2.6427
  150SAPE   C3616619   2.685   4.938   7.649  0.3449 -0.4274  0.1651
  150SAPE   H6X16620   2.648   5.041   7.668 -1.2602 -1.0805  0.7000
  150SAPE   H6Y16621   2.794   4.949   7.636  0.4327 -0.7556  0.6190
  150SAPE   C3716622   2.652   4.861   7.772 -0.1823  1.4227  0.8027
  150SAPE   H7X16623   2.699   4.761   7.759 -0.6757  1.4951 -1.9288
  150SAPE   H7Y16624   2.542   4.852   7.785 -0.0459  0.4500  1.2895
  150SAPE   C3816625   2.708   4.917   7.899  0.4309 -0.0768 -0.3503
  150SAPE   H8X16626   2.661   5.017   7.903 -0.4730 -0.4647 -1.1114
  150SAPE   H8Y16627   2.815   4.943   7.885  0.3948  0.1517 -0.1986
  150SAPE   C3916628   2.690   4.837   8.025  0.7765 -0.1729 -0.0114
  150SAPE   H9X16629   2.742   4.739   8.019  2.2397  0.6415 -1.2149
  150SAPE   H9Y16630   2.584   4.805   8.039  0.9254 -0.7757 -0.2301
  150SAPE  C31016631   2.734   4.920   8.144  0.2269  0.5203 -0.2420
  150SAPE  H10X16632   2.838   4.957   8.135  0.7885 -0.9947 -0.0368
  150SAPE  H10Y16633   2.727   4.845   8.226 -0.3443  0.6464 -0.1742
  150SAPE  C31116634   2.635   5.027   8.186  0.1273  0.7549 -0.2041
  150SAPE  H11X16635   2.621   5.018   8.296 -2.3747  1.5449 -0.4276
  150SAPE  H11Y16636   2.533   5.007   8.147 -0.9962  0.4626  2.7440
  150SAPE  C31216637   2.674   5.168   8.153 -0.5428  0.1944  0.0124
  150SAPE  H12X16638   2.583   5.230   8.169 -2.0450 -1.8713 -0.2795
  150SAPE  H12Y16639   2.716   5.178   8.051  0.6552 -0.1159  0.4706
  150SAPE  C31316640   2.784   5.221   8.245 -0.7433  0.1429 -0.3993
  150SAPE  H13X16641   2.866   5.147   8.240  2.2789  3.1758  1.8911
  150SAPE  H13Y16642   2.741   5.233   8.347 -2.1573 -2.4640 -0.6497
  150SAPE  C31416643   2.834   5.360   8.191  0.2221  0.2280 -0.3679
  150SAPE  H14X16644   2.739   5.418   8.191  0.2583  0.3149  1.3723
  150SAPE  H14Y16645   2.860   5.344   8.084 -0.6073  0.1733 -0.5675
  150SAPE  C31516646   2.942   5.419   8.277  0.4284  0.3296  0.1831
  150SAPE  H15X16647   3.017   5.340   8.303  0.0383  0.1996  0.9204
  150SAPE  H15Y16648   2.909   5.443   8.380  0.1720 -0.8285  0.3822
  150SAPE  C31616649   3.013   5.550   8.239 -0.0844 -0.4770  0.0941
  150SAPE  H16X16650   2.998   5.565   8.130  1.7858  1.0332  0.0192
  150SAPE  H16Y16651   3.119   5.536   8.270 -0.7017 -0.0860  2.4657
  150SAPE  C31716652   2.954   5.666   8.317  0.2195  0.0656 -0.2363
  150SAPE  H17X16653   2.973   5.644   8.424  0.7672  0.1361 -0.3191
  150SAPE  H17Y16654   2.847   5.648   8.292  0.3028  2.2775 -2.3611
  150SAPE  C31816655   3.005   5.794   8.274  0.4211 -0.2927 -0.9261
  150SAPE  H18X16656   3.114   5.801   8.251  0.9823 -1.4618  1.2494
  150SAPE  H18Y16657   2.986   5.874   8.349 -1.9428 -0.3395 -1.4507
  150SAPE  H18Z16658   2.942   5.830   8.190 -2.2697 -0.6181  0.8825
  151SAPE     N16659   5.246   2.499   6.096  0.3203 -0.2753 -0.1941
  151SAPE   HN116660   5.321   2.556   6.051  2.4597 -1.1927  2.0232
  151SAPE   HN216661   5.237   2.417   6.033  0.6353 -1.3369  1.1057
  151SAPE   HN316662   5.154   2.545   6.111  1.0591  1.4887 -0.9608
  151SAPE   C1216663   5.303   2.455   6.233  0.0010  0.0840  0.1091
  151SAPE  H12A16664   5.276   2.532   6.309 -2.4147 -2.3218  1.8057
  151SAPE  H12B16665   5.414   2.453   6.227 -0.0300 -0.6829 -0.3005
  151SAPE   C1116666   5.235   2.328   6.278 -0.0925  0.8048 -0.2091
  151SAPE  H11A16667   5.126   2.350   6.279  0.1918  2.2873  0.9920
  151SAPE  H11B16668   5.256   2.311   6.386 -2.2334  0.9253  0.2513
  151SAPE     P16669   5.396   2.121   6.222  0.0287 -0.3805  0.1153
  151SAPE   O1316670   5.375   2.009   6.132  0.3958  0.2359  0.4963
  151SAPE   O1416671   5.517   2.214   6.204  0.5309  0.7340  0.1197
  151SAPE   O1216672   5.266   2.219   6.200 -0.5101  0.3259 -0.2356
  151SAPE   O1116673   5.387   2.081   6.376 -0.5079  0.5380  0.5543
  151SAPE    C116674   5.436   2.153   6.492  0.2537 -0.1665 -0.6098
  151SAPE    HA16675   5.460   2.256   6.457 -0.6962 -0.5497 -2.4726
  151SAPE    HB16676   5.352   2.169   6.562  0.3647 -0.3780 -0.4312
  151SAPE    C216677   5.547   2.073   6.562  0.2165  0.4030 -0.4063
  151SAPE    HS16678   5.603   2.022   6.481 -0.0595 -2.0563  0.8631
  151SAPE   O2116679   5.478   1.980   6.643 -0.2336  0.0075 -0.1186
  151SAPE   C2116680   5.550   1.881   6.680  0.3698 -0.2389 -0.1208
  151SAPE   O2216681   5.663   1.853   6.638  0.0954 -0.1711 -0.4331
  151SAPE   C2216682   5.473   1.805   6.782  0.1306 -0.3672  0.0951
  151SAPE   H2R16683   5.393   1.871   6.822  0.0331 -0.4063 -0.0363
  151SAPE   H2S16684   5.410   1.727   6.734 -0.5793 -0.1196  0.6116
  151SAPE    C316685   5.650   2.160   6.636  0.0019  1.1527  0.1046
  151SAPE    HX16686   5.699   2.219   6.555  2.6863  0.3341  1.0926
  151SAPE    HY16687   5.727   2.091   6.675 -0.4093  1.9403  2.4198
  151SAPE   O3116688   5.595   2.250   6.734 -0.3984 -0.1029 -0.1099
  151SAPE   C3116689   5.591   2.196   6.852 -0.4755  0.0171  0.4736
  151SAPE   O3216690   5.636   2.092   6.886  0.3391  0.0298  0.2846
  151SAPE   C3216691   5.500   2.295   6.937 -0.2250  0.3738  0.5247
  151SAPE   H2X16692   5.448   2.371   6.875  0.0570  2.2880  2.5639
  151SAPE   H2Y16693   5.571   2.351   7.001  1.8514 -2.1842  0.5587
  151SAPE   C2316694   5.551   1.738   6.901 -0.3824 -0.8924 -0.2201
  151SAPE   H3R16695   5.577   1.815   6.977 -0.5130  0.0062 -1.0835
  151SAPE   H3S16696   5.642   1.685   6.866 -0.7923 -2.0069  0.3687
  151SAPE   C2416697   5.469   1.629   6.973  0.4283 -0.2406 -0.1357
  151SAPE   H4R16698   5.543   1.594   7.048  1.4961  2.2554  0.0443
  151SAPE   H4S16699   5.445   1.554   6.895 -1.7553  0.3897 -0.1135
  151SAPE   C2516700   5.342   1.684   7.034 -0.2935 -0.1204 -0.5789
  151SAPE   H5R16701   5.287   1.756   6.971  1.2020  2.1044  0.5933
  151SAPE   C2616702   5.294   1.678   7.163  0.3554 -0.0864  0.3302
  151SAPE   H6R16703   5.202   1.735   7.183  1.0217  0.4804  1.8243
  151SAPE   C2716704   5.340   1.605   7.288  0.5433  0.7103 -0.2682
  151SAPE   H7R16705   5.446   1.579   7.267 -0.0919 -1.4565 -0.9295
  151SAPE   H7S16706   5.293   1.508   7.315  0.6292  0.3932 -1.2248
  151SAPE   C2816707   5.324   1.691   7.414 -0.2372  0.2890  0.3425
  151SAPE   H8R16708   5.359   1.794   7.399 -1.2835  0.3212 -2.2098
  151SAPE   C2916709   5.291   1.658   7.543  0.5596 -0.1774 -0.2080
  151SAPE   H9R16710   5.274   1.746   7.607 -2.7056 -1.7557  1.2161
  151SAPE  C21016711   5.241   1.522   7.594  0.3749  0.3660  0.3196
  151SAPE  H10R16712   5.271   1.438   7.526 -2.4339 -0.8013  0.4389
  151SAPE  H10S16713   5.131   1.528   7.576  0.7444  0.9681 -1.9803
  151SAPE  C21116714   5.287   1.509   7.743  0.0347 -1.0852 -1.1935
  151SAPE  H11R16715   5.393   1.532   7.758 -0.0478 -1.9199  0.7714
  151SAPE  C21216716   5.217   1.467   7.847  0.4366  0.0395 -0.1498
  151SAPE  H12R16717   5.262   1.477   7.947  1.7580  3.4581 -1.0215
  151SAPE  C21316718   5.067   1.424   7.847 -0.7379  0.8825 -0.3664
  151SAPE  H13R16719   5.063   1.314   7.861 -0.7365  0.8998 -0.2242
  151SAPE  H13S16720   5.011   1.434   7.752  1.6690  0.1988 -1.9022
  151SAPE  C21416721   4.976   1.498   7.944 -0.0031 -0.6041 -0.4215
  151SAPE  H14R16722   4.902   1.561   7.893  1.2581  0.8977 -0.4048
  151SAPE  C21516723   4.988   1.503   8.079  0.4238 -0.2812  0.0407
  151SAPE  H15R16724   4.920   1.568   8.137 -0.7482  0.5970 -2.2906
  151SAPE  C21616725   5.090   1.425   8.164  0.0275  0.1160  0.8096
  151SAPE  H16R16726   5.144   1.349   8.104 -2.6484 -0.1198 -1.3719
  151SAPE  H16S16727   5.049   1.358   8.243 -1.0520 -0.8112 -0.5182
  151SAPE  C21716728   5.190   1.515   8.231  0.5709  0.2307  0.0855
  151SAPE  H17R16729   5.138   1.570   8.313  0.3711 -0.1667  0.2243
  151SAPE  H17S16730   5.224   1.594   8.160 -1.6226  0.3271 -0.8914
  151SAPE  C21816731   5.313   1.441   8.291  0.4294  0.1874 -0.3653
  151SAPE  H18R16732   5.365   1.382   8.212  1.2081 -1.8519  1.6143
  151SAPE  H18S16733   5.276   1.361   8.360 -1.3937  0.3444 -1.1125
  151SAPE  C21916734   5.414   1.539   8.364  0.4253 -0.2633 -0.2043
  151SAPE  H19R16735   5.354   1.614   8.421  1.4650  0.3990  0.0378
  151SAPE  H19S16736   5.469   1.599   8.289  1.7043 -1.0222  0.1039
  151SAPE  C22016737   5.512   1.475   8.469  0.2402 -0.6054 -0.3555
  151SAPE  H20R16738   5.469   1.389   8.524 -2.3652  0.7793 -0.1021
  151SAPE  H20S16739   5.605   1.444   8.417  2.3738  1.0714  2.3434
  151SAPE  H20T16740   5.548   1.556   8.536  1.4851 -0.6144 -1.0013
  151SAPE   C3316741   5.402   2.219   7.027 -0.2785 -0.4423  0.5108
  151SAPE   H3X16742   5.339   2.153   6.963  0.4904 -0.3636 -0.3367
  151SAPE   H3Y16743   5.328   2.296   7.057 -0.4216 -0.3183 -0.1562
  151SAPE   C3416744   5.462   2.151   7.154  0.0495 -0.1590  0.1800
  151SAPE   H4X16745   5.524   2.064   7.125  1.3693  0.3651  1.4095
  151SAPE   H4Y16746   5.377   2.115   7.217  0.3186  1.0114  1.2218
  151SAPE   C3516747   5.529   2.246   7.259 -1.0418  0.2192  0.2224
  151SAPE   H5X16748   5.450   2.324   7.264 -1.1453  0.1800 -0.6592
  151SAPE   H5Y16749   5.624   2.295   7.229  0.3458 -1.5118  1.6941
  151SAPE   C3616750   5.556   2.178   7.389  0.4271 -0.5321 -0.4291
  151SAPE   H6X16751   5.640   2.108   7.367  0.6605  0.0544 -1.4543
  151SAPE   H6Y16752   5.465   2.119   7.414  1.1726 -1.6547 -0.2931
  151SAPE   C3716753   5.590   2.281   7.492 -0.5306  0.7038  0.1407
  151SAPE   H7X16754   5.512   2.359   7.504 -1.0516  0.3031 -0.6151
  151SAPE   H7Y16755   5.685   2.330   7.462  0.5989  0.2761  2.8219
  151SAPE   C3816756   5.595   2.216   7.630 -0.4465 -0.1933 -0.6584
  151SAPE   H8X16757   5.674   2.139   7.622  0.4982  0.7399 -0.3350
  151SAPE   H8Y16758   5.501   2.162   7.659 -1.3752  1.9209  0.3663
  151SAPE   C3916759   5.629   2.311   7.744 -0.3997  0.4209  0.0901
  151SAPE   H9X16760   5.564   2.398   7.766 -2.6405 -1.7729  2.3412
  151SAPE   H9Y16761   5.723   2.363   7.715 -0.8668  0.6583 -1.0682
  151SAPE  C31016762   5.663   2.238   7.875  0.4379  0.2294 -0.0062
  151SAPE  H10X16763   5.751   2.172   7.860 -0.7067 -1.3938  0.2823
  151SAPE  H10Y16764   5.576   2.174   7.900 -0.0388  0.2481 -1.5581
  151SAPE  C31116765   5.695   2.336   7.983 -0.2592 -0.4114  0.8814
  151SAPE  H11X16766   5.730   2.263   8.059  4.4548  1.5003  0.7257
  151SAPE  H11Y16767   5.606   2.391   8.019 -0.6657  0.8623 -1.9026
  151SAPE  C31216768   5.810   2.431   7.949  0.4484 -0.4375 -0.8971
  151SAPE  H12X16769   5.757   2.506   7.887  1.4356 -0.0121 -1.2395
  151SAPE  H12Y16770   5.893   2.382   7.893  0.1391  1.2836 -2.8937
  151SAPE  C31316771   5.863   2.494   8.072 -0.3548  0.1236  0.4632
  151SAPE  H13X16772   5.782   2.544   8.130  0.5207 -0.6467  2.4096
  151SAPE  H13Y16773   5.930   2.576   8.042  1.2126 -2.0953 -2.3234
  151SAPE  C31416774   5.939   2.411   8.174  0.5271  0.4317 -0.8454
  151SAPE  H14X16775   6.020   2.357   8.120  0.6750 -1.5904  1.3104
  151SAPE  H14Y16776   5.873   2.335   8.220 -0.8942  2.2329  0.1393
  151SAPE  C31516777   6.017   2.485   8.294 -0.2079  0.6875 -0.4179
  151SAPE  H15X16778   5.939   2.537   8.353 -1.3411 -0.7445 -0.6292
  151SAPE  H15Y16779   6.073   2.556   8.229  0.3243 -0.5102 -1.2821
  151SAPE  C31616780   6.093   2.396   8.386 -0.2231  0.1465 -0.4385
  151SAPE  H16X16781   6.201   2.417   8.371  0.1398 -2.5858 -1.9527
  151SAPE  H16Y16782   6.075   2.289   8.359 -2.8269  0.0182  1.5640
  151SAPE  C31716783   6.069   2.439   8.535  0.9056  0.4666 -0.1877
  151SAPE  H17X16784   5.961   2.428   8.557  1.0896 -2.3856 -0.4624
  151SAPE  H17Y16785   6.102   2.544   8.549  2.2729 -0.1619  1.4546
  151SAPE  C31816786   6.152   2.350   8.640  0.0129  0.1446 -0.8314
  151SAPE  H18X16787   6.261   2.360   8.625 -0.0686  1.6347 -0.4302
  151SAPE  H18Y16788   6.106   2.248   8.635  0.1899  0.1377 -2.6715
  151SAPE  H18Z16789   6.119   2.394   8.737  0.4568 -0.2561 -0.5004
  152SAPE     N16790   2.492   6.366   6.003 -0.9048 -0.3093 -0.1858
  152SAPE   HN116791   2.405   6.369   6.060  0.0737  0.8957  1.2706
  152SAPE   HN216792   2.559   6.443   6.024 -1.3789 -0.1140  0.6092
  152SAPE   HN316793   2.470   6.371   5.901 -2.6287  1.1890  0.2416
  152SAPE   C1216794   2.565   6.234   6.020  0.5198  0.1427 -0.6268
  152SAPE  H12A16795   2.647   6.236   5.946 -0.1613  1.3339 -1.3497
  152SAPE  H12B16796   2.488   6.159   5.989  0.0662  1.4475 -2.7268
  152SAPE   C1116797   2.612   6.203   6.169 -0.4326 -0.0139 -0.3132
  152SAPE  H11A16798   2.640   6.095   6.171 -1.0748 -0.2279  4.2065
  152SAPE  H11B16799   2.523   6.206   6.237 -0.3664 -1.6684 -0.1241
  152SAPE     P16800   2.815   6.273   6.329  0.0636  0.3034  0.0502
  152SAPE   O1316801   2.896   6.154   6.307 -0.0898  0.2836 -0.0121
  152SAPE   O1416802   2.897   6.397   6.354  0.1108  0.0181  0.3148
  152SAPE   O1216803   2.721   6.293   6.201 -0.1215 -0.3856  0.0973
  152SAPE   O1116804   2.716   6.257   6.448  0.3816  0.3063  0.4016
  152SAPE    C116805   2.631   6.367   6.490 -0.2186  0.0431  0.5168
  152SAPE    HA16806   2.687   6.463   6.481  1.2047 -0.8036  0.0391
  152SAPE    HB16807   2.547   6.375   6.418  1.9236  3.8362 -1.7932
  152SAPE    C216808   2.572   6.327   6.627  0.5734 -0.7344 -0.2682
  152SAPE    HS16809   2.505   6.404   6.668 -0.6413 -1.6592 -0.4935
  152SAPE   O2116810   2.676   6.307   6.717 -0.0359 -0.1459  0.3047
  152SAPE   C2116811   2.744   6.417   6.757 -0.3256  0.0552 -0.3444
  152SAPE   O2216812   2.717   6.532   6.732  0.5299 -0.7361 -0.4421
  152SAPE   C2216813   2.867   6.369   6.834  0.3214 -0.5265  0.4773
  152SAPE   H2R16814   2.938   6.310   6.773  2.3666 -0.0267  2.3005
  152SAPE   H2S16815   2.921   6.462   6.863  1.2219 -0.6714 -0.7225
  152SAPE    C316816   2.489   6.199   6.623  0.6263 -0.4383  0.6340
  152SAPE    HX16817   2.531   6.132   6.545  1.9778 -0.9235  1.7584
  152SAPE    HY16818   2.387   6.228   6.588  1.0211  0.3235  0.0973
  152SAPE   O3116819   2.471   6.143   6.755  0.4003 -0.7244 -0.5829
  152SAPE   C3116820   2.541   6.037   6.785  0.6452  0.4472 -0.2482
  152SAPE   O3216821   2.637   5.987   6.725 -0.4243  0.0138 -0.1901
  152SAPE   C3216822   2.490   5.972   6.918 -0.5008  0.6385 -0.7276
  152SAPE   H2X16823   2.518   5.866   6.931 -1.7777  0.3474 -0.3353
  152SAPE   H2Y16824   2.379   5.975   6.922 -0.5104 -1.3249  0.6553
  152SAPE   C2316825   2.828   6.295   6.964  0.2430  0.1953 -0.3772
  152SAPE   H3R16826   2.923   6.291   7.023  0.2054 -1.7921 -0.4203
  152SAPE   H3S16827   2.784   6.197   6.935 -0.3148  0.6617 -1.1048
  152SAPE   C2416828   2.716   6.363   7.041 -0.0695  0.2112 -0.1502
  152SAPE   H4R16829   2.701   6.305   7.134 -0.6091  0.8960  0.1902
  152SAPE   H4S16830   2.624   6.368   6.979  0.4493 -1.8337 -1.1312
  152SAPE   C2516831   2.756   6.500   7.083 -0.0424  0.9975 -0.2013
  152SAPE   H5R16832   2.804   6.568   7.011 -0.4439  0.6564 -0.7963
  152SAPE   C2616833   2.719   6.555   7.198  0.5097  0.3319  0.5140
  152SAPE   H6R16834   2.753   6.655   7.227  1.5998 -0.2175  1.1524
  152SAPE   C2716835   2.639   6.484   7.298 -1.8315 -0.1405 -0.4070
  152SAPE   H7R16836   2.573   6.409   7.250 -2.4989  0.5124 -0.5192
  152SAPE   H7S16837   2.569   6.556   7.346 -0.4900  0.9719 -0.1025
  152SAPE   C2816838   2.732   6.438   7.410  0.4180 -0.4317 -0.1347
  152SAPE   H8R16839   2.840   6.439   7.393  0.2003 -1.6235 -1.7241
  152SAPE   C2916840   2.685   6.407   7.529  0.2202 -0.3088  0.9865
  152SAPE   H9R16841   2.748   6.367   7.610 -3.6971 -2.4371  3.1327
  152SAPE  C21016842   2.537   6.415   7.565  0.0163 -0.0398 -0.4568
  152SAPE  H10R16843   2.476   6.425   7.473 -0.9613 -0.9605  0.0828
  152SAPE  H10S16844   2.507   6.511   7.612 -1.0440 -0.4221 -0.3321
  152SAPE  C21116845   2.482   6.293   7.650 -0.3262 -0.2944 -0.1940
  152SAPE  H11R16846   2.400   6.240   7.600  0.6756 -0.8736 -1.2676
  152SAPE  C21216847   2.520   6.265   7.782  0.0947  0.7480  0.5694
  152SAPE  H12R16848   2.476   6.182   7.840 -0.0095  0.1602 -0.3464
  152SAPE  C21316849   2.618   6.344   7.865  0.4101  0.3835 -0.6544
  152SAPE  H13R16850   2.676   6.424   7.813  3.1961 -1.6112 -0.7001
  152SAPE  H13S16851   2.699   6.273   7.890  0.3456 -0.2677 -2.2481
  152SAPE  C21416852   2.544   6.406   7.981  0.0859 -0.4174 -0.4004
  152SAPE  H14R16853   2.444   6.453   7.975  0.8053  1.3946  1.4442
  152SAPE  C21516854   2.589   6.405   8.108 -0.3137 -0.6942 -1.0157
  152SAPE  H15R16855   2.535   6.458   8.188  2.1659 -0.0013  0.2730
  152SAPE  C21616856   2.721   6.341   8.154 -0.2142 -0.3119 -0.3322
  152SAPE  H16R16857   2.776   6.294   8.070  1.3299 -0.4124  0.7332
  152SAPE  H16S16858   2.686   6.254   8.214 -0.9804  0.1688 -0.0755
  152SAPE  C21716859   2.815   6.420   8.234  0.8754  0.3692 -0.2736
  152SAPE  H17R16860   2.897   6.351   8.264  1.7682  0.9153 -1.3890
  152SAPE  H17S16861   2.760   6.445   8.327  1.9480 -1.9147  1.0206
  152SAPE  C21816862   2.862   6.543   8.155 -0.0671 -0.7813  0.9451
  152SAPE  H18R16863   2.778   6.610   8.125  0.6888 -0.3478 -0.2498
  152SAPE  H18S16864   2.905   6.500   8.062  0.5455  1.7374  0.0094
  152SAPE  C21916865   2.979   6.622   8.220  0.0547  0.2472  0.2267
  152SAPE  H19R16866   3.010   6.708   8.158  2.7506 -1.1503 -0.4528
  152SAPE  H19S16867   3.060   6.546   8.220  2.2586  2.5324  0.0545
  152SAPE  C22016868   2.951   6.668   8.365  0.2105  0.4881 -0.4437
  152SAPE  H20R16869   2.954   6.585   8.438  1.8712 -0.2020 -1.2902
  152SAPE  H20S16870   2.856   6.721   8.391  0.2925  0.5155 -0.2025
  152SAPE  H20T16871   3.027   6.739   8.405  2.9741 -1.3821 -2.2787
  152SAPE   C3316872   2.552   6.046   7.041  0.0031  0.1827 -0.2200
  152SAPE   H3X16873   2.527   6.153   7.026 -0.1980  0.3724  1.4427
  152SAPE   H3Y16874   2.662   6.034   7.049 -0.1689 -0.4871  1.2171
  152SAPE   C3416875   2.490   5.980   7.162  0.1201  0.1657 -0.3516
  152SAPE   H4X16876   2.496   5.869   7.166 -3.1248 -0.0003  2.3647
  152SAPE   H4Y16877   2.380   5.995   7.154 -0.0219 -0.0334  1.0324
  152SAPE   C3516878   2.552   6.040   7.292 -0.8079 -0.1904 -0.6415
  152SAPE   H5X16879   2.579   6.145   7.267  0.2478 -1.0075 -3.0426
  152SAPE   H5Y16880   2.648   5.985   7.300 -0.4319  0.5607  0.2305
  152SAPE   C3616881   2.456   6.034   7.417 -0.2249 -0.7655 -0.3903
  152SAPE   H6X16882   2.361   6.079   7.382 -1.2890 -1.0461  2.0605
  152SAPE   H6Y16883   2.504   6.082   7.505  0.4691  0.3732 -1.3787
  152SAPE   C3716884   2.420   5.891   7.456  0.6626  0.6782  0.5667
  152SAPE   H7X16885   2.521   5.844   7.461  0.3171 -0.8731 -4.3677
  152SAPE   H7Y16886   2.374   5.840   7.368  0.8875 -1.0318  1.4178
  152SAPE   C3816887   2.343   5.865   7.583 -0.6739 -0.1396 -0.7534
  152SAPE   H8X16888   2.335   5.756   7.601 -0.1360 -0.1736 -0.7128
  152SAPE   H8Y16889   2.236   5.888   7.566 -0.8566 -1.0068 -0.7623
  152SAPE   C3916890   2.402   5.924   7.712 -0.2604 -0.2176 -0.8341
  152SAPE   H9X16891   2.319   5.982   7.757  0.8837 -0.4938  1.7346
  152SAPE   H9Y16892   2.492   5.987   7.696 -0.4309  0.1197 -0.4866
  152SAPE  C31016893   2.436   5.817   7.818  0.7511 -0.2605  0.3124
  152SAPE  H10X16894   2.521   5.748   7.800  0.2122 -0.9583  0.4142
  152SAPE  H10Y16895   2.348   5.752   7.835  0.0695  0.5481 -0.1154
  152SAPE  C31116896   2.467   5.888   7.952 -0.0854  0.5582  0.4779
  152SAPE  H11X16897   2.381   5.946   7.991 -0.0255 -0.3397  1.9833
  152SAPE  H11Y16898   2.550   5.960   7.935 -0.5440  0.6513 -1.4835
  152SAPE  C31216899   2.497   5.792   8.068 -0.1376 -0.5269 -0.2771
  152SAPE  H12X16900   2.594   5.741   8.048 -0.8554 -1.5027 -1.3117
  152SAPE  H12Y16901   2.416   5.717   8.083 -1.0256  0.8303  1.8735
  152SAPE  C31316902   2.502   5.866   8.210 -0.3057 -0.3352 -0.0347
  152SAPE  H13X16903   2.401   5.911   8.213 -0.2068  0.0608 -1.8309
  152SAPE  H13Y16904   2.589   5.934   8.223 -1.2744  1.2736 -1.7174
  152SAPE  C31416905   2.499   5.759   8.322 -0.5766 -0.0597  0.8174
  152SAPE  H14X16906   2.580   5.687   8.300 -0.4512  0.8343 -1.8832
  152SAPE  H14Y16907   2.398   5.711   8.323 -0.0880 -1.0835  2.6923
  152SAPE  C31516908   2.524   5.818   8.464 -0.3407  0.3435  0.8797
  152SAPE  H15X16909   2.427   5.856   8.502 -1.1544  0.3187 -1.1009
  152SAPE  H15Y16910   2.595   5.900   8.439  0.4391 -0.5414  0.1828
  152SAPE  C31616911   2.582   5.716   8.560 -0.4428 -0.0984 -0.0377
  152SAPE  H16X16912   2.677   5.681   8.515 -1.3569 -1.7952 -0.6993
  152SAPE  H16Y16913   2.514   5.628   8.560  1.6460 -1.7575  1.4021
  152SAPE  C31716914   2.602   5.758   8.707 -0.2563 -0.1303 -0.0511
  152SAPE  H17X16915   2.531   5.842   8.724  1.6647  1.7624 -1.0794
  152SAPE  H17Y16916   2.708   5.790   8.714  0.1245 -1.3077 -0.2687
  152SAPE  C31816917   2.598   5.638   8.803 -0.6046  0.2055 -0.1003
  152SAPE  H18X16918   2.671   5.560   8.774 -0.7509  0.3674 -0.9150
  152SAPE  H18Y16919   2.494   5.600   8.803 -1.7984  3.2492  0.6788
  152SAPE  H18Z16920   2.615   5.658   8.911  0.0466 -3.2161  0.4908
  153SAPE     N16921   6.374   5.769   6.162  0.0020  0.4146 -0.0669
  153SAPE   HN116922   6.366   5.870   6.137  0.1491  0.0915 -1.4822
  153SAPE   HN216923   6.449   5.733   6.099 -0.4334 -1.4328  0.4241
  153SAPE   HN316924   6.279   5.729   6.146 -0.3461 -0.2947  3.4225
  153SAPE   C1216925   6.410   5.730   6.307 -0.2082 -0.3237 -0.1213
  153SAPE  H12A16926   6.495   5.796   6.333 -0.6766  0.7903 -1.3677
  153SAPE  H12B16927   6.431   5.621   6.303 -3.0415 -0.8900 -0.7348
  153SAPE   C1116928   6.298   5.758   6.405 -0.1846  0.3403  0.1565
  153SAPE  H11A16929   6.260   5.862   6.394 -0.2670  0.0949 -2.0459
  153SAPE  H11B16930   6.341   5.755   6.508 -0.7284 -0.9010  0.3427
  153SAPE     P16931   6.054   5.698   6.318 -0.0668 -0.1090  0.4290
  153SAPE   O1316932   6.085   5.753   6.186  0.0296 -0.8008 -0.1088
  153SAPE   O1416933   5.969   5.574   6.316  0.2655 -0.5716 -0.1663
  153SAPE   O1216934   6.195   5.659   6.381 -0.6352  0.0997 -0.2811
  153SAPE   O1116935   5.990   5.810   6.408 -0.0746  0.4931  0.1083
  153SAPE    C116936   5.912   5.769   6.521 -0.3275 -0.3536 -0.0253
  153SAPE    HA16937   5.822   5.718   6.481 -1.2886  2.4068 -1.4651
  153SAPE    HB16938   5.967   5.696   6.585 -0.1758  0.8671  1.2738
  153SAPE    C216939   5.859   5.897   6.603 -0.0645 -0.4918 -0.3007
  153SAPE    HS16940   5.848   5.980   6.531  0.0758  0.8015  1.1391
  153SAPE   O2116941   5.949   5.939   6.706 -0.2748 -0.1200 -0.0701
  153SAPE   C2116942   5.935   6.065   6.748  0.1063  0.0524 -0.6723
  153SAPE   O2216943   5.845   6.141   6.721 -0.1885 -0.6213 -0.3218
  153SAPE   C2216944   6.059   6.100   6.831 -0.8084 -0.5975 -0.3738
  153SAPE   H2R16945   6.146   6.062   6.772  0.9740  2.6652  0.0227
  153SAPE   H2S16946   6.066   6.211   6.821  0.2466 -0.5983  0.3297
  153SAPE    C316947   5.728   5.863   6.672  0.5412  0.6381 -0.2990
  153SAPE    HX16948   5.647   5.850   6.596 -0.6202  0.0532  1.0215
  153SAPE    HY16949   5.696   5.946   6.739 -3.1860  0.3770 -1.6330
  153SAPE   O3116950   5.735   5.742   6.736 -0.0869  0.0252  0.0265
  153SAPE   C3116951   5.751   5.744   6.867  0.0686  0.3633 -0.4839
  153SAPE   O3216952   5.732   5.834   6.945  0.1045 -0.6104  1.0403
  153SAPE   C3216953   5.802   5.605   6.911  0.3042 -0.2398 -0.6952
  153SAPE   H2X16954   5.910   5.614   6.888  0.3688 -1.0822 -0.7666
  153SAPE   H2Y16955   5.748   5.539   6.840  2.9258 -1.5549 -1.5231
  153SAPE   C2316956   6.037   6.047   6.976 -1.1058 -0.8131  0.0337
  153SAPE   H3R16957   6.137   6.045   7.024 -0.4517  1.4313 -1.1481
  153SAPE   H3S16958   5.992   5.945   6.975 -0.5370 -1.0677 -2.0930
  153SAPE   C2416959   5.949   6.141   7.048  0.2711 -0.2190 -0.0823
  153SAPE   H4R16960   5.865   6.167   6.980  1.3345 -1.8025 -2.0312
  153SAPE   H4S16961   5.987   6.240   7.081 -3.0405  0.9818  0.2882
  153SAPE   C2516962   5.889   6.072   7.165  0.0966 -0.0354  0.0035
  153SAPE   H5R16963   5.813   5.994   7.152  1.4652 -1.3615 -0.1474
  153SAPE   C2616964   5.909   6.114   7.292  0.5064  0.4033  0.2940
  153SAPE   H6R16965   5.863   6.063   7.379  0.9189 -1.0157 -0.3038
  153SAPE   C2716966   5.994   6.221   7.343  0.4717  0.4049 -0.0967
  153SAPE   H7R16967   5.946   6.312   7.299 -0.0338 -1.0266 -2.6446
  153SAPE   H7S16968   6.097   6.218   7.302 -0.4000  0.7095 -2.3844
  153SAPE   C2816969   5.983   6.231   7.492  0.7403  0.2386 -0.2270
  153SAPE   H8R16970   5.888   6.243   7.546  1.0839  1.1467  0.1925
  153SAPE   C2916971   6.075   6.198   7.576 -0.7372  0.0663  0.4142
  153SAPE   H9R16972   6.054   6.200   7.684 -0.3173 -0.7359  0.5166
  153SAPE  C21016973   6.219   6.151   7.548  0.6598  0.0257 -0.4111
  153SAPE  H10R16974   6.288   6.175   7.631  1.9723  2.9169 -2.2592
  153SAPE  H10S16975   6.259   6.212   7.464 -1.1409  1.0436 -0.5595
  153SAPE  C21116976   6.227   6.010   7.500 -0.0288 -0.1043  0.1768
  153SAPE  H11R16977   6.167   5.997   7.409 -1.0263  1.1161  0.6543
  153SAPE  C21216978   6.293   5.903   7.554  0.0785 -0.4496 -0.7893
  153SAPE  H12R16979   6.298   5.806   7.504  2.1047 -1.6744  1.6617
  153SAPE  C21316980   6.375   5.925   7.677 -0.3331 -0.2597 -0.8245
  153SAPE  H13R16981   6.347   5.837   7.739 -3.9620  0.4506 -1.3277
  153SAPE  H13S16982   6.341   6.014   7.734 -0.6264  0.0421 -1.4674
  153SAPE  C21416983   6.524   5.937   7.646  0.4639  0.1722  0.2997
  153SAPE  H14R16984   6.554   6.027   7.590  2.0229 -1.1551 -1.0368
  153SAPE  C21516985   6.623   5.847   7.662 -0.0260  1.1593 -0.5028
  153SAPE  H15R16986   6.724   5.879   7.635  0.7162  1.4153  2.4838
  153SAPE  C21616987   6.620   5.716   7.732  0.3680 -0.0375  0.3443
  153SAPE  H16R16988   6.627   5.634   7.657 -2.5229 -2.8249  3.0071
  153SAPE  H16S16989   6.522   5.704   7.783 -0.4007  0.2795 -1.0007
  153SAPE  C21716990   6.729   5.695   7.833 -0.4536 -0.1292  0.9143
  153SAPE  H17R16991   6.823   5.732   7.787 -1.3616  1.4935  0.3231
  153SAPE  H17S16992   6.743   5.585   7.839 -0.5995 -0.1759  0.4235
  153SAPE  C21816993   6.698   5.771   7.962  0.5775 -0.0516 -0.4771
  153SAPE  H18R16994   6.587   5.775   7.972  0.3992  2.4140 -2.9578
  153SAPE  H18S16995   6.748   5.870   7.950  1.4956 -0.5376 -0.6907
  153SAPE  C21916996   6.754   5.719   8.093 -0.5059  0.5791 -0.7232
  153SAPE  H19R16997   6.739   5.794   8.174 -0.8388 -1.5628  1.2378
  153SAPE  H19S16998   6.863   5.710   8.077 -0.0922  2.0764  1.0796
  153SAPE  C22016999   6.695   5.585   8.137 -0.3111  0.2933  0.7697
  153SAPE  H20R17000   6.736   5.506   8.070  0.9151  1.9274 -0.4563
  153SAPE  H20S17001   6.585   5.585   8.121  0.1154 -1.0956 -2.7237
  153SAPE  H20T17002   6.713   5.551   8.241  1.7586  1.2812  0.7589
  153SAPE   C3317003   5.777   5.559   7.058  0.2184  0.6423 -0.0446
  153SAPE   H3X17004   5.787   5.449   7.060 -1.2349  0.5056 -0.1774
  153SAPE   H3Y17005   5.674   5.589   7.086 -0.2550  0.9008 -1.9757
  153SAPE   C3417006   5.867   5.635   7.150  0.5006 -0.0796 -1.1386
  153SAPE   H4X17007   5.900   5.733   7.110  1.7527  0.1542  0.3911
  153SAPE   H4Y17008   5.954   5.569   7.170  0.7375  0.6903  0.4154
  153SAPE   C3517009   5.799   5.688   7.282 -0.0790  0.2727 -0.6701
  153SAPE   H5X17010   5.723   5.621   7.326  1.1482 -0.3275  0.5620
  153SAPE   H5Y17011   5.750   5.782   7.248 -2.8731 -2.0191 -3.2554
  153SAPE   C3617012   5.904   5.713   7.384  0.0874  0.5966  0.3588
  153SAPE   H6X17013   5.986   5.776   7.344  0.3036 -0.3234 -0.6530
  153SAPE   H6Y17014   5.954   5.621   7.419 -1.9872 -0.2148  1.3089
  153SAPE   C3717015   5.832   5.787   7.502  0.2704  0.1731  0.4740
  153SAPE   H7X17016   5.738   5.730   7.514 -0.0368  0.6501  0.3752
  153SAPE   H7Y17017   5.795   5.882   7.458 -0.0775 -0.3440 -0.3574
  153SAPE   C3817018   5.911   5.802   7.636 -0.4889 -0.5745  0.4817
  153SAPE   H8X17019   5.857   5.860   7.713 -0.8053 -0.4515  0.1693
  153SAPE   H8Y17020   6.001   5.864   7.615 -1.7209  1.4032  0.9327
  153SAPE   C3917021   5.928   5.664   7.696 -0.6146 -0.6836 -0.4636
  153SAPE   H9X17022   6.012   5.607   7.650  0.1486 -0.6360  0.8690
  153SAPE   H9Y17023   5.832   5.615   7.668 -1.6314  0.6931  0.5767
  153SAPE  C31017024   5.969   5.670   7.847  0.7123  0.4502  0.0847
  153SAPE  H10X17025   5.955   5.573   7.900 -1.3073  1.4752  1.4916
  153SAPE  H10Y17026   5.898   5.743   7.891 -0.8981 -0.4928 -0.8994
  153SAPE  C31117027   6.105   5.732   7.871  0.2138 -0.0742  0.0729
  153SAPE  H11X17028   6.118   5.825   7.810 -1.9626  0.6251  0.6173
  153SAPE  H11Y17029   6.194   5.671   7.843 -0.2152 -1.2489  1.2741
  153SAPE  C31217030   6.130   5.766   8.020 -0.6164  0.2836  0.2743
  153SAPE  H12X17031   6.128   5.676   8.085  0.7468  0.2477  0.2737
  153SAPE  H12Y17032   6.041   5.828   8.046  0.0926  1.7843 -0.7628
  153SAPE  C31317033   6.262   5.836   8.043  0.6548 -0.2949 -0.1696
  153SAPE  H13X17034   6.261   5.933   7.990 -1.2807 -0.2598 -0.0756
  153SAPE  H13Y17035   6.340   5.763   8.012 -0.3237 -1.5679  0.3016
  153SAPE  C31417036   6.275   5.865   8.186 -0.4394 -0.4884  0.4290
  153SAPE  H14X17037   6.291   5.773   8.246  1.6346 -0.7256 -0.4284
  153SAPE  H14Y17038   6.183   5.917   8.221 -0.2530 -1.3561  2.2500
  153SAPE  C31517039   6.396   5.958   8.216 -0.3576 -0.1258 -0.1728
  153SAPE  H15X17040   6.374   6.056   8.169  1.8565 -0.4070 -1.8503
  153SAPE  H15Y17041   6.486   5.926   8.160  0.0233  2.0552 -0.8670
  153SAPE  C31617042   6.433   5.966   8.369  0.0638  0.6364  0.3107
  153SAPE  H16X17043   6.474   5.867   8.399 -0.2540  0.5843  0.5800
  153SAPE  H16Y17044   6.337   5.982   8.422 -0.8724  0.0644 -1.1525
  153SAPE  C31717045   6.514   6.084   8.420 -0.3701  0.2535  0.3645
  153SAPE  H17X17046   6.507   6.095   8.530 -3.1599 -0.1995  0.2740
  153SAPE  H17Y17047   6.463   6.176   8.382 -1.1599 -2.6382 -6.3416
  153SAPE  C31817048   6.662   6.094   8.357 -0.1945 -0.2663  0.1797
  153SAPE  H18X17049   6.668   6.051   8.255 -1.4897 -0.4705  0.1726
  153SAPE  H18Y17050   6.731   6.040   8.426  1.1016  0.2728 -0.6829
  153SAPE  H18Z17051   6.691   6.200   8.343  3.8161 -1.4547 -1.1249
  154SAPE     N17052   3.854   4.630   6.245  0.2129  0.1572 -1.4352
  154SAPE   HN117053   3.776   4.564   6.226  0.2657 -0.2537 -0.2385
  154SAPE   HN217054   3.920   4.590   6.175 -0.0618 -1.6688 -0.6712
  154SAPE   HN317055   3.889   4.628   6.343  1.3111 -0.7609 -1.8330
  154SAPE   C1217056   3.814   4.774   6.221 -0.0546  0.1610  0.2408
  154SAPE  H12A17057   3.709   4.774   6.256  0.0819 -1.4407  0.6527
  154SAPE  H12B17058   3.813   4.795   6.111 -0.4006 -2.3730 -0.2685
  154SAPE   C1117059   3.905   4.875   6.292  0.0541  0.3291 -0.5893
  154SAPE  H11A17060   3.967   4.826   6.370  1.4724 -0.6014 -2.2678
  154SAPE  H11B17061   3.846   4.950   6.349  0.8863  1.0399 -0.6583
  154SAPE     P17062   4.005   5.089   6.172 -0.3329  0.1823 -0.2003
  154SAPE   O1317063   4.145   5.124   6.152  0.1106 -0.0951  0.2204
  154SAPE   O1417064   3.902   5.136   6.076  0.5437  0.0572  0.2147
  154SAPE   O1217065   3.993   4.932   6.195  0.2372 -0.5689  0.3165
  154SAPE   O1117066   3.972   5.146   6.316  0.0373  0.1146  0.2846
  154SAPE    C117067   3.889   5.265   6.317  0.1709 -0.1127  0.4827
  154SAPE    HA17068   3.936   5.351   6.264  0.0555 -1.4556 -1.8624
  154SAPE    HB17069   3.797   5.247   6.258  1.5226 -1.1767 -1.3576
  154SAPE    C217070   3.844   5.314   6.458 -0.0854 -1.0412  0.2741
  154SAPE    HS17071   3.785   5.407   6.441 -0.5901 -0.9136  2.5841
  154SAPE   O2117072   3.954   5.330   6.543 -0.2817  0.0288 -0.0407
  154SAPE   C2117073   4.009   5.449   6.538  0.3388  0.1017  0.3516
  154SAPE   O2217074   3.973   5.534   6.453 -0.1646 -0.6566 -0.5154
  154SAPE   C2217075   4.129   5.461   6.636  0.0218  0.1471  0.6940
  154SAPE   H2R17076   4.084   5.447   6.736 -0.5915  1.8983  0.6703
  154SAPE   H2S17077   4.183   5.365   6.621 -0.7235 -0.3707  1.3099
  154SAPE    C317078   3.757   5.212   6.519  0.4170 -0.2431  0.4547
  154SAPE    HX17079   3.828   5.139   6.564  0.5780  0.1320  0.8102
  154SAPE    HY17080   3.693   5.167   6.440 -0.0841  0.6593  0.3375
  154SAPE   O3117081   3.670   5.263   6.623  0.2099  0.7627  0.3234
  154SAPE   C3117082   3.623   5.171   6.700 -0.0523  0.3569  0.2829
  154SAPE   O3217083   3.626   5.049   6.685  0.0778 -0.1049  0.2799
  154SAPE   C3217084   3.565   5.250   6.813  0.3250  0.1107 -0.0506
  154SAPE   H2X17085   3.465   5.292   6.789  0.3153  0.6076  0.8487
  154SAPE   H2Y17086   3.633   5.335   6.834  0.7596 -0.1957 -0.2094
  154SAPE   C2317087   4.222   5.582   6.601 -0.8532  0.3972  0.0801
  154SAPE   H3R17088   4.163   5.675   6.595 -3.1746 -1.0440  0.2273
  154SAPE   H3S17089   4.259   5.551   6.501 -2.2203 -1.6901  0.1883
  154SAPE   C2417090   4.349   5.593   6.684 -0.5110  0.2821 -0.1848
  154SAPE   H4R17091   4.421   5.509   6.673 -0.2020  0.3930  0.9339
  154SAPE   H4S17092   4.309   5.595   6.788  1.2664  0.4676  0.4993
  154SAPE   C2517093   4.423   5.723   6.660  0.2430  0.0231 -0.2991
  154SAPE   H5R17094   4.462   5.736   6.558 -0.0855  0.8259 -0.3207
  154SAPE   C2617095   4.447   5.820   6.748 -0.5578  0.0781 -0.0429
  154SAPE   H6R17096   4.513   5.902   6.716 -0.1484  0.6394  2.1473
  154SAPE   C2717097   4.403   5.823   6.896  0.1530  0.4114  0.0734
  154SAPE   H7R17098   4.447   5.733   6.946 -1.2194 -0.8409 -0.9325
  154SAPE   H7S17099   4.293   5.810   6.907  0.0751  0.5334 -0.5891
  154SAPE   C2817100   4.451   5.945   6.971 -0.0025 -0.2559  0.3296
  154SAPE   H8R17101   4.432   6.034   6.910 -0.0079  0.2860  1.1080
  154SAPE   C2917102   4.491   5.960   7.097 -0.2422  0.6021 -0.5467
  154SAPE   H9R17103   4.525   6.057   7.136 -1.0339  1.0146 -0.8606
  154SAPE  C21017104   4.523   5.856   7.195  0.2650 -0.6657 -0.0505
  154SAPE  H10R17105   4.626   5.872   7.232  0.4230 -0.4387 -0.5880
  154SAPE  H10S17106   4.521   5.754   7.152  0.1611 -0.3152 -0.8949
  154SAPE  C21117107   4.431   5.860   7.315 -0.4820 -0.8525  0.1328
  154SAPE  H11R17108   4.344   5.795   7.297 -1.2171  0.0026  0.5374
  154SAPE  C21217109   4.442   5.923   7.430 -1.5246 -0.0181  0.1978
  154SAPE  H12R17110   4.351   5.918   7.493 -1.3835 -2.4600  0.2593
  154SAPE  C21317111   4.561   6.010   7.480  0.4739 -0.0779  0.0313
  154SAPE  H13R17112   4.520   6.096   7.536  3.3624  0.1401  1.9268
  154SAPE  H13S17113   4.615   6.050   7.391  4.0527  0.1588  2.1804
  154SAPE  C21417114   4.659   5.922   7.550 -0.1168  0.1376 -1.0878
  154SAPE  H14R17115   4.730   5.868   7.485  1.4223 -0.1236  0.7819
  154SAPE  C21517116   4.676   5.916   7.681 -0.5420  0.2518 -0.2756
  154SAPE  H15R17117   4.746   5.842   7.723 -1.0664  0.2884  0.6799
  154SAPE  C21617118   4.592   5.975   7.788  0.2377 -0.7696  0.2263
  154SAPE  H16R17119   4.518   6.042   7.738  0.1342 -0.0362  1.3368
  154SAPE  H16S17120   4.651   6.039   7.858 -0.4437  0.6353 -0.4719
  154SAPE  C21717121   4.517   5.871   7.877 -0.2602 -0.0108 -0.2048
  154SAPE  H17R17122   4.441   5.811   7.823 -1.0432  1.9550 -1.3315
  154SAPE  H17S17123   4.466   5.940   7.948 -1.0157 -1.7595  0.9986
  154SAPE  C21817124   4.620   5.788   7.959  0.0917 -0.7136  0.8182
  154SAPE  H18R17125   4.711   5.850   7.972 -0.9829  0.7454  1.6105
  154SAPE  H18S17126   4.640   5.698   7.897 -1.9167  0.9932 -2.4486
  154SAPE  C21917127   4.565   5.766   8.102 -0.7436 -0.3725  0.2107
  154SAPE  H19R17128   4.478   5.697   8.107 -1.6695  0.6069 -1.6310
  154SAPE  H19S17129   4.531   5.860   8.151 -0.2962  0.1844 -0.5409
  154SAPE  C22017130   4.677   5.707   8.189 -0.1133  0.4084  0.0685
  154SAPE  H20R17131   4.643   5.723   8.294  1.2528 -2.4438  0.9951
  154SAPE  H20S17132   4.772   5.759   8.165 -0.3065  1.4800  1.5212
  154SAPE  H20T17133   4.692   5.600   8.165 -0.0122  0.5253 -0.3805
  154SAPE   C3317134   3.543   5.167   6.944 -0.0167  0.3403 -0.3181
  154SAPE   H3X17135   3.644   5.164   6.990  0.2451  3.7669 -0.5438
  154SAPE   H3Y17136   3.508   5.062   6.929 -0.8684  0.6817 -0.7952
  154SAPE   C3417137   3.455   5.238   7.042  0.1301  0.3432 -0.6175
  154SAPE   H4X17138   3.366   5.175   7.062 -0.8259  0.5792 -3.8780
  154SAPE   H4Y17139   3.442   5.346   7.018 -2.2811 -0.2199 -2.0781
  154SAPE   C3517140   3.527   5.232   7.175  0.5725  0.2454  0.0440
  154SAPE   H5X17141   3.452   5.277   7.243  0.7099  1.1085 -0.3609
  154SAPE   H5Y17142   3.623   5.289   7.174  1.3044 -0.9773 -1.2138
  154SAPE   C3617143   3.557   5.084   7.222 -0.2847 -0.6731 -0.2982
  154SAPE   H6X17144   3.647   5.037   7.178 -0.6386  1.7972 -3.8369
  154SAPE   H6Y17145   3.467   5.030   7.186 -0.0779  0.0230 -1.9259
  154SAPE   C3717146   3.570   5.082   7.381  0.1409 -0.1491 -0.2815
  154SAPE   H7X17147   3.469   5.105   7.420 -1.1282 -4.0674 -1.0243
  154SAPE   H7Y17148   3.634   5.166   7.416 -0.5472 -0.3084  1.3868
  154SAPE   C3817149   3.612   4.942   7.431  0.7982  0.1695 -0.0586
  154SAPE   H8X17150   3.682   4.916   7.348 -0.6581 -0.3101 -1.1443
  154SAPE   H8Y17151   3.522   4.878   7.443  0.8042 -0.4939 -3.2609
  154SAPE   C3917152   3.691   4.944   7.564  0.3018 -0.9070 -0.4449
  154SAPE   H9X17153   3.769   5.023   7.570  0.4604 -1.2302  1.9536
  154SAPE   H9Y17154   3.735   4.845   7.589 -1.4062 -1.0773  2.0107
  154SAPE  C31017155   3.588   4.968   7.672  0.2756 -0.2881  0.0378
  154SAPE  H10X17156   3.510   4.889   7.672  1.1913 -1.2168  1.2873
  154SAPE  H10Y17157   3.541   5.069   7.663  0.5798  0.1589  2.8819
  154SAPE  C31117158   3.659   4.965   7.812 -0.0995 -0.4703 -0.6738
  154SAPE  H11X17159   3.742   5.038   7.809 -0.2442 -0.1971  1.4468
  154SAPE  H11Y17160   3.699   4.861   7.810 -1.7880 -1.1290 -1.7999
  154SAPE  C31217161   3.560   4.985   7.931  0.1190 -0.2535 -0.0352
  154SAPE  H12X17162   3.472   4.918   7.924 -1.1264  1.2248  1.1510
  154SAPE  H12Y17163   3.527   5.091   7.923  1.5296  0.2587  0.7023
  154SAPE  C31317164   3.625   4.974   8.067  0.0840  0.8071  0.5551
  154SAPE  H13X17165   3.679   5.068   8.091  0.9730  0.7006 -0.9372
  154SAPE  H13Y17166   3.709   4.900   8.066 -1.3061 -0.7978 -0.6440
  154SAPE  C31417167   3.517   4.950   8.179  0.4310 -0.4513 -0.6337
  154SAPE  H14X17168   3.500   4.843   8.203 -1.6632  0.0568  0.2771
  154SAPE  H14Y17169   3.417   4.977   8.140  0.6855 -1.2250 -1.8260
  154SAPE  C31517170   3.541   5.026   8.311  0.6840 -0.5774 -0.2402
  154SAPE  H15X17171   3.637   4.991   8.353  0.3106 -1.0154  0.2526
  154SAPE  H15Y17172   3.464   4.990   8.383  1.8399 -0.7361  0.9265
  154SAPE  C31617173   3.536   5.176   8.308  1.0702  0.1181  0.2066
  154SAPE  H16X17174   3.599   5.223   8.230  1.3152 -1.9186 -0.8797
  154SAPE  H16Y17175   3.567   5.217   8.406 -1.9325  1.3132  0.6978
  154SAPE  C31717176   3.392   5.232   8.286 -0.0549  0.0360  0.1383
  154SAPE  H17X17177   3.337   5.226   8.383  2.1335  0.4568  1.4383
  154SAPE  H17Y17178   3.344   5.148   8.231  1.8949  0.3671 -2.1418
  154SAPE  C31817179   3.370   5.360   8.198  0.1220 -0.1831  0.5460
  154SAPE  H18X17180   3.435   5.449   8.214  1.0304 -0.5697 -0.9365
  154SAPE  H18Y17181   3.264   5.389   8.213  0.3000  0.7722 -0.0433
  154SAPE  H18Z17182   3.393   5.327   8.095  1.8418 -1.1858  1.2176
  155SAPE     N17183   4.660   5.880   6.269  0.1395 -0.2815  0.2120
  155SAPE   HN117184   4.737   5.848   6.206 -0.6227  0.3565 -1.0724
  155SAPE   HN217185   4.699   5.898   6.363  1.6664  0.0504 -0.4666
  155SAPE   HN317186   4.604   5.792   6.275 -0.4555  0.1151  0.5315
  155SAPE   C1217187   4.586   5.994   6.215  0.5402 -0.5307 -0.2404
  155SAPE  H12A17188   4.568   5.984   6.106  0.2725 -2.4014 -0.0326
  155SAPE  H12B17189   4.655   6.082   6.218  0.2680 -0.3534  1.8063
  155SAPE   C1117190   4.450   6.031   6.282 -0.3980  0.2413  0.3631
  155SAPE  H11A17191   4.373   5.957   6.253  0.8616 -0.8113 -0.3382
  155SAPE  H11B17192   4.412   6.130   6.247 -1.0183 -0.2447 -0.3708
  155SAPE     P17193   4.518   6.142   6.515  0.0061 -0.3424 -0.2540
  155SAPE   O1317194   4.601   6.103   6.633  0.0590  0.7846  0.7470
  155SAPE   O1417195   4.576   6.242   6.420 -0.0876 -0.1951 -0.3837
  155SAPE   O1217196   4.466   6.023   6.426  0.1795  0.5415  0.3415
  155SAPE   O1117197   4.379   6.208   6.567 -0.0567  0.0449  0.1207
  155SAPE    C117198   4.275   6.113   6.610  0.2766 -0.0397  0.1335
  155SAPE    HA17199   4.251   6.042   6.529  0.6146 -2.7632  2.3491
  155SAPE    HB17200   4.296   6.067   6.709 -0.0162 -0.6344 -0.0832
  155SAPE    C217201   4.138   6.184   6.632 -0.1277  0.1383 -0.5406
  155SAPE    HS17202   4.105   6.228   6.536 -2.3857  1.8675  0.9844
  155SAPE   O2117203   4.154   6.289   6.733  0.2822  0.2565 -0.6050
  155SAPE   C2117204   4.076   6.391   6.711 -0.2254 -0.7130 -0.8496
  155SAPE   O2217205   3.974   6.394   6.641 -0.2861  0.0001 -0.2444
  155SAPE   C2217206   4.117   6.501   6.810  0.0227 -0.1917  0.2923
  155SAPE   H2R17207   4.223   6.524   6.788 -0.5028  3.4298  1.1371
  155SAPE   H2S17208   4.052   6.587   6.782 -0.7813 -0.8319  0.1535
  155SAPE    C317209   4.025   6.086   6.681 -0.3981 -0.3322  0.2301
  155SAPE    HX17210   4.037   6.010   6.601  0.4677 -0.7686  0.7671
  155SAPE    HY17211   3.924   6.131   6.666  0.3006  2.3914  3.1235
  155SAPE   O3117212   4.048   6.025   6.810 -0.3811 -0.5818  0.1981
  155SAPE   C3117213   3.994   6.088   6.910  0.0864 -0.0383  0.8173
  155SAPE   O3217214   3.902   6.164   6.903  0.2751  0.9512 -0.7783
  155SAPE   C3217215   4.066   6.042   7.034 -0.3610  0.4975 -0.0353
  155SAPE   H2X17216   4.173   6.071   7.026 -0.2105 -0.4866 -2.0430
  155SAPE   H2Y17217   4.058   5.931   7.042 -1.7032  0.6168  0.3122
  155SAPE   C2317218   4.108   6.470   6.958  0.0008  0.3267 -0.4722
  155SAPE   H3R17219   4.177   6.387   6.984 -0.3612  0.2433  0.2282
  155SAPE   H3S17220   4.005   6.431   6.976  0.6890 -1.5325 -0.5292
  155SAPE   C2417221   4.134   6.597   7.050  0.1458  0.2233 -0.7199
  155SAPE   H4R17222   4.102   6.564   7.151  0.4738  0.7670 -0.4354
  155SAPE   H4S17223   4.067   6.679   7.016 -2.3289 -1.4280  0.0418
  155SAPE   C2517224   4.271   6.656   7.037  0.0285  0.1454 -0.2181
  155SAPE   H5R17225   4.281   6.752   6.984  0.7454 -0.5638 -1.4075
  155SAPE   C2617226   4.374   6.601   7.100 -0.2487  0.1648  0.6648
  155SAPE   H6R17227   4.459   6.670   7.103  0.0011 -0.1598  1.1822
  155SAPE   C2717228   4.379   6.478   7.183 -0.3960  0.2545 -0.0491
  155SAPE   H7R17229   4.296   6.407   7.161  1.8273 -2.0261 -1.4227
  155SAPE   H7S17230   4.360   6.500   7.290 -1.3704 -0.1005 -0.1432
  155SAPE   C2817231   4.508   6.405   7.153  0.5387 -0.5322 -0.2566
  155SAPE   H8R17232   4.526   6.378   7.048 -1.4466  0.1881 -0.8089
  155SAPE   C2917233   4.606   6.377   7.236  0.6383  0.3538  0.9922
  155SAPE   H9R17234   4.677   6.303   7.197 -0.5729 -0.5572  0.4821
  155SAPE  C21017235   4.606   6.417   7.385 -0.5734 -0.1994  0.4423
  155SAPE  H10R17236   4.504   6.429   7.429  0.5311  2.7760  2.2828
  155SAPE  H10S17237   4.658   6.514   7.396 -0.7030  0.0170 -0.7761
  155SAPE  C21117238   4.687   6.316   7.468  0.6383  0.1154  0.3383
  155SAPE  H11R17239   4.709   6.220   7.419  2.2712  0.2602  0.7868
  155SAPE  C21217240   4.702   6.322   7.599  0.4748 -0.1275 -0.3008
  155SAPE  H12R17241   4.738   6.238   7.659  1.9029  0.9246  0.3387
  155SAPE  C21317242   4.654   6.437   7.682  0.4587 -0.8971 -0.4144
  155SAPE  H13R17243   4.569   6.494   7.638  1.8724  2.1269  0.6284
  155SAPE  H13S17244   4.735   6.512   7.695 -1.3096  1.1023 -0.6846
  155SAPE  C21417245   4.602   6.392   7.815  0.4018  0.1975 -0.7037
  155SAPE  H14R17246   4.493   6.394   7.832  0.5773 -0.3183  0.4937
  155SAPE  C21517247   4.673   6.355   7.923  0.2141 -0.0353 -0.5968
  155SAPE  H15R17248   4.618   6.324   8.013  1.4417 -0.3000  0.0815
  155SAPE  C21617249   4.817   6.359   7.931  0.4863  0.4613 -0.5257
  155SAPE  H16R17250   4.851   6.446   7.991  0.2319 -0.5027  1.0583
  155SAPE  H16S17251   4.854   6.378   7.828 -0.8618  0.3756 -1.0385
  155SAPE  C21717252   4.884   6.230   7.978 -0.1355  0.3818  0.6538
  155SAPE  H17R17253   4.992   6.256   7.988  0.0659 -0.3971  0.4822
  155SAPE  H17S17254   4.878   6.152   7.899  1.5200  0.4071  0.4826
  155SAPE  C21817255   4.825   6.172   8.111 -0.3417 -0.0592 -0.3236
  155SAPE  H18R17256   4.878   6.075   8.117  2.1476  1.2650 -0.3228
  155SAPE  H18S17257   4.715   6.152   8.117 -0.1404 -1.5256 -1.2976
  155SAPE  C21917258   4.862   6.235   8.241 -0.0603 -0.1742 -0.1068
  155SAPE  H19R17259   4.966   6.275   8.239  0.0606 -0.4809 -0.0315
  155SAPE  H19S17260   4.857   6.166   8.329  0.1386 -0.6593 -0.4715
  155SAPE  C22017261   4.775   6.360   8.279  0.3835  0.5661 -0.4939
  155SAPE  H20R17262   4.796   6.391   8.384  1.1909  1.2197 -0.8403
  155SAPE  H20S17263   4.667   6.334   8.287  1.3832 -3.2068  2.1881
  155SAPE  H20T17264   4.780   6.446   8.209 -1.7308  1.5031  0.4881
  155SAPE   C3317265   4.013   6.106   7.164 -0.2798 -0.4290  0.5049
  155SAPE   H3X17266   3.921   6.046   7.185  0.7712 -1.4138  2.4873
  155SAPE   H3Y17267   3.986   6.208   7.130  2.1375  0.7585  2.0547
  155SAPE   C3417268   4.109   6.114   7.275 -0.0798 -0.3026 -0.0500
  155SAPE   H4X17269   4.191   6.184   7.248 -0.9137 -0.0404 -1.9270
  155SAPE   H4Y17270   4.157   6.014   7.283 -0.9750 -0.5994  1.7962
  155SAPE   C3517271   4.045   6.157   7.409  0.4989  0.4339  0.5642
  155SAPE   H5X17272   3.951   6.101   7.425 -0.1022  1.1354 -0.4587
  155SAPE   H5Y17273   4.009   6.261   7.396  0.6166  0.5893  1.4280
  155SAPE   C3617274   4.158   6.144   7.517  0.1310 -0.0894 -0.7679
  155SAPE   H6X17275   4.238   6.219   7.497  1.4506 -1.2596  0.0057
  155SAPE   H6Y17276   4.219   6.051   7.513  1.3878  0.5417  2.3528
  155SAPE   C3717277   4.099   6.150   7.658 -0.2835 -0.0338 -0.3283
  155SAPE   H7X17278   4.020   6.078   7.689 -1.4197  1.6425  0.8388
  155SAPE   H7Y17279   4.050   6.250   7.665  0.7209  0.3964  0.7345
  155SAPE   C3817280   4.211   6.156   7.764 -0.3321  0.0062 -0.4583
  155SAPE   H8X17281   4.271   6.244   7.733 -1.3443  1.8214  2.4862
  155SAPE   H8Y17282   4.273   6.065   7.776  1.2726  1.1371 -0.0396
  155SAPE   C3917283   4.168   6.195   7.909  0.7931  0.2219 -0.1725
  155SAPE   H9X17284   4.101   6.116   7.949 -2.0895  2.2671 -0.8642
  155SAPE   H9Y17285   4.107   6.287   7.903  0.8609  0.3373  0.8394
  155SAPE  C31017286   4.288   6.226   8.007  0.7417 -0.0923  0.7172
  155SAPE  H10X17287   4.369   6.277   7.951  0.7600 -0.3384  0.5181
  155SAPE  H10Y17288   4.324   6.122   8.027 -0.7149 -0.9505 -0.9695
  155SAPE  C31117289   4.247   6.300   8.126  0.8063  0.1659  0.2901
  155SAPE  H11X17290   4.154   6.254   8.164  0.7076  0.2008  0.0929
  155SAPE  H11Y17291   4.207   6.402   8.107 -0.0856  0.4050  3.1938
  155SAPE  C31217292   4.368   6.313   8.218 -0.3386 -0.0137 -0.5860
  155SAPE  H12X17293   4.347   6.392   8.292  2.9294 -1.0638  1.5453
  155SAPE  H12Y17294   4.458   6.355   8.169  0.4945 -1.9291 -0.7324
  155SAPE  C31317295   4.423   6.189   8.293 -0.0863  0.2056 -0.0120
  155SAPE  H13X17296   4.525   6.200   8.335 -0.7335 -1.9673  2.2397
  155SAPE  H13Y17297   4.437   6.104   8.223 -1.4448 -0.1473  0.1296
  155SAPE  C31417298   4.335   6.151   8.410  0.1433  0.8038 -0.2112
  155SAPE  H14X17299   4.386   6.066   8.461 -2.5689  1.6653  4.2164
  155SAPE  H14Y17300   4.231   6.126   8.380  0.3252  0.3947 -0.4993
  155SAPE  C31517301   4.311   6.261   8.514 -0.9563  0.1355  0.3413
  155SAPE  H15X17302   4.239   6.333   8.471 -1.0538  2.5486  4.3367
  155SAPE  H15Y17303   4.405   6.315   8.536  0.1259 -2.3674  2.1302
  155SAPE  C31617304   4.269   6.206   8.654 -0.0243 -0.1018  0.1102
  155SAPE  H16X17305   4.298   6.274   8.736  1.3665 -1.7563  1.0261
  155SAPE  H16Y17306   4.332   6.115   8.662  0.5889  0.1813 -1.3090
  155SAPE  C31717307   4.120   6.168   8.667 -0.9241 -0.3009 -0.7588
  155SAPE  H17X17308   4.121   6.072   8.612  2.1938 -1.3631  1.0382
  155SAPE  H17Y17309   4.054   6.242   8.616 -1.4779  1.2518  2.0857
  155SAPE  C31817310   4.080   6.162   8.809 -0.2273  0.2302 -0.3974
  155SAPE  H18X17311   4.104   6.256   8.862 -1.1573  0.2182  0.0625
  155SAPE  H18Y17312   4.125   6.073   8.859 -2.9809 -0.0141  1.7485
  155SAPE  H18Z17313   3.969   6.158   8.818 -0.3919  3.9795  0.0206
  156SAPE     N17314   1.686   0.626   6.327  0.3089  0.2748 -0.1875
  156SAPE   HN117315   1.733   0.719   6.327 -1.3106  1.1292 -1.3778
  156SAPE   HN217316   1.756   0.555   6.299  1.4500  0.2525  2.5703
  156SAPE   HN317317   1.615   0.632   6.251  3.1406 -2.2464 -3.1309
  156SAPE   C1217318   1.617   0.603   6.458  0.1029 -0.3890 -1.1429
  156SAPE  H12A17319   1.518   0.557   6.436  0.0944 -1.7044  1.5179
  156SAPE  H12B17320   1.616   0.701   6.509  0.2997 -1.0830  0.2142
  156SAPE   C1117321   1.706   0.519   6.552  0.6081  0.1009 -0.2774
  156SAPE  H11A17322   1.655   0.526   6.650  0.1419  0.7047 -0.5536
  156SAPE  H11B17323   1.803   0.572   6.544  1.0452 -0.7970 -1.0095
  156SAPE     P17324   1.852   0.304   6.535 -0.3823  0.1930 -0.0771
  156SAPE   O1317325   1.841   0.176   6.466  0.1672 -0.5559 -0.3766
  156SAPE   O1417326   1.969   0.382   6.511 -0.6014  0.4030  0.3777
  156SAPE   O1217327   1.716   0.384   6.513  0.0593 -0.0180  0.1112
  156SAPE   O1117328   1.853   0.282   6.697 -0.4696 -0.0112 -0.1545
  156SAPE    C117329   1.884   0.156   6.751  0.1090  0.1649  0.1135
  156SAPE    HA17330   1.933   0.085   6.681  0.1618 -1.7869  2.0802
  156SAPE    HB17331   1.947   0.173   6.842  0.1933  0.4374  0.0061
  156SAPE    C217332   1.755   0.080   6.796 -0.0885 -0.0638  0.4183
  156SAPE    HS17333   1.694   0.052   6.707 -1.3450  0.9002  0.9587
  156SAPE   O2117334   1.666   0.146   6.890 -0.2861 -0.0843  0.3033
  156SAPE   C2117335   1.585   0.237   6.842 -0.2075 -0.1247  0.2100
  156SAPE   O2217336   1.537   0.240   6.730 -0.6727 -0.3040  0.5804
  156SAPE   C2217337   1.546   0.340   6.948  0.2357  0.7890 -0.5984
  156SAPE   H2R17338   1.493   0.291   7.032  1.2153 -0.8401 -0.8982
  156SAPE   H2S17339   1.641   0.377   6.993 -0.4160 -0.4250  1.8858
  156SAPE    C317340   1.790  -0.053   6.867 -0.5559  0.3001 -0.3125
  156SAPE    HX17341   1.848  -0.103   6.786 -1.2866  1.7262 -1.7439
  156SAPE    HY17342   1.699  -0.111   6.892  1.0841 -2.1000  0.2310
  156SAPE   O3117343   1.858  -0.038   6.998  0.9468  0.2187  0.3812
  156SAPE   C3117344   1.889  -0.156   7.064 -0.2121 -0.8752 -0.2817
  156SAPE   O3217345   1.876  -0.265   7.017 -0.4585 -0.1235  0.0956
  156SAPE   C3217346   1.938  -0.136   7.202 -0.1579 -0.0849  0.0876
  156SAPE   H2X17347   2.039  -0.090   7.213  0.4819 -0.6383 -2.9584
  156SAPE   H2Y17348   1.953  -0.233   7.256  0.6294  0.5168  0.9665
  156SAPE   C2317349   1.464   0.457   6.889  0.0790 -0.4211  0.1012
  156SAPE   H3R17350   1.376   0.431   6.825  0.2724  2.2020 -1.3049
  156SAPE   H3S17351   1.527   0.524   6.827 -0.0936  0.2542  0.6538
  156SAPE   C2417352   1.413   0.543   7.002 -0.1580  0.1900  0.4540
  156SAPE   H4R17353   1.358   0.471   7.067 -2.9196 -1.6741 -3.6696
  156SAPE   H4S17354   1.325   0.604   6.971  0.1847 -0.0574 -1.0254
  156SAPE   C2517355   1.517   0.636   7.052 -0.2372 -0.6746 -0.0970
  156SAPE   H5R17356   1.583   0.680   6.976 -2.1943  0.9393 -0.9117
  156SAPE   C2617357   1.542   0.668   7.178  0.0516  0.3454  0.3322
  156SAPE   H6R17358   1.608   0.755   7.193  1.7398 -0.8390 -0.1040
  156SAPE   C2717359   1.461   0.623   7.295 -0.3084 -0.0577  0.5555
  156SAPE   H7R17360   1.542   0.572   7.352  0.4769  0.7178  0.1506
  156SAPE   H7S17361   1.383   0.547   7.272 -1.0609  1.0625 -0.6476
  156SAPE   C2817362   1.406   0.738   7.382  0.2235  0.7719  0.3439
  156SAPE   H8R17363   1.358   0.820   7.326 -2.1786  1.3111  3.0806
  156SAPE   C2917364   1.396   0.735   7.517 -0.4690 -0.4064  0.6418
  156SAPE   H9R17365   1.357   0.824   7.569  0.0575 -0.0481  0.4316
  156SAPE  C21017366   1.453   0.623   7.607  0.5420  0.5051 -0.2356
  156SAPE  H10R17367   1.486   0.669   7.702  1.7391 -0.2812 -0.2725
  156SAPE  H10S17368   1.538   0.569   7.561  0.1882 -0.6138  0.4043
  156SAPE  C21117369   1.352   0.516   7.633  0.1590 -0.2896  0.8839
  156SAPE  H11R17370   1.329   0.452   7.546  2.3663 -0.4244  0.3593
  156SAPE  C21217371   1.299   0.485   7.752  0.3862 -0.2131 -0.3048
  156SAPE  H12R17372   1.204   0.432   7.739 -1.1512  2.2756  0.4415
  156SAPE  C21317373   1.332   0.553   7.886  0.3898  0.4222 -0.0488
  156SAPE  H13R17374   1.274   0.648   7.874 -0.1467  0.1404  0.2812
  156SAPE  H13S17375   1.440   0.577   7.897  0.9135 -1.9358  0.0886
  156SAPE  C21417376   1.310   0.470   8.012 -0.4798 -0.7942 -0.0918
  156SAPE  H14R17377   1.345   0.366   8.000  1.2388  0.2485 -5.0890
  156SAPE  C21517378   1.232   0.497   8.113  0.5515 -0.8193  0.0844
  156SAPE  H15R17379   1.225   0.431   8.201 -1.8932  1.0673  1.3723
  156SAPE  C21617380   1.152   0.627   8.131  0.5984  0.0665 -0.0715
  156SAPE  H16R17381   1.060   0.620   8.069  0.0967 -1.5845  0.8381
  156SAPE  H16S17382   1.206   0.711   8.083 -2.9636  1.3686 -1.9988
  156SAPE  C21717383   1.113   0.654   8.270  0.2455 -0.2254  0.0967
  156SAPE  H17R17384   1.209   0.660   8.325  1.1578  0.1615 -1.4928
  156SAPE  H17S17385   1.060   0.565   8.310 -0.0513  1.1370  2.8266
  156SAPE  C21817386   1.029   0.786   8.287 -0.5904 -0.5104 -1.1268
  156SAPE  H18R17387   0.931   0.751   8.247 -0.2223 -0.5066 -2.0331
  156SAPE  H18S17388   1.075   0.863   8.221 -0.2352  0.2050 -0.0578
  156SAPE  C21917389   1.010   0.832   8.431  0.2352  0.6804  0.2106
  156SAPE  H19R17390   0.947   0.765   8.493  0.4834  0.5779  0.3553
  156SAPE  H19S17391   0.962   0.932   8.418 -0.5226  0.5274  1.7582
  156SAPE  C22017392   1.144   0.855   8.497  0.1003  0.4532  0.5489
  156SAPE  H20R17393   1.125   0.930   8.577 -1.0069 -0.6328  1.3290
  156SAPE  H20S17394   1.207   0.900   8.418  0.1106 -0.9884 -0.2849
  156SAPE  H20T17395   1.179   0.763   8.548  0.4499  0.7162  0.7860
  156SAPE   C3317396   1.838  -0.058   7.294  0.1583  0.1327 -0.2573
  156SAPE   H3X17397   1.736  -0.092   7.265 -1.2845  2.1055  2.2939
  156SAPE   H3Y17398   1.847   0.049   7.266  2.5810  0.5622  2.0538
  156SAPE   C3417399   1.862  -0.072   7.440 -0.6236 -0.4079 -0.3619
  156SAPE   H4X17400   1.956  -0.014   7.457 -0.0847 -1.1533 -0.7720
  156SAPE   H4Y17401   1.890  -0.174   7.474  1.6138  0.1851 -0.3610
  156SAPE   C3517402   1.750  -0.020   7.526  0.2720  0.1330 -0.9405
  156SAPE   H5X17403   1.671  -0.098   7.525 -1.2307  1.4949  2.5197
  156SAPE   H5Y17404   1.715   0.076   7.481 -0.3853  0.0701 -0.5774
  156SAPE   C3617405   1.805  -0.013   7.673  0.1521 -0.0386 -0.5962
  156SAPE   H6X17406   1.880   0.068   7.681  0.7373 -0.5995 -0.3399
  156SAPE   H6Y17407   1.855  -0.107   7.705 -2.0596 -1.2336 -0.5647
  156SAPE   C3717408   1.689   0.024   7.763 -0.0179 -0.6270  0.5796
  156SAPE   H7X17409   1.605  -0.049   7.753 -0.3407 -0.3886  1.5095
  156SAPE   H7Y17410   1.653   0.121   7.723  2.3779  0.0010 -0.0919
  156SAPE   C3817411   1.720   0.045   7.918 -0.2557 -0.7191  0.3309
  156SAPE   H8X17412   1.649   0.120   7.959  0.1482  0.9130 -1.8760
  156SAPE   H8Y17413   1.823   0.083   7.932  0.0794 -0.5434 -2.3225
  156SAPE   C3917414   1.700  -0.083   7.997 -0.2997 -0.0801 -0.2336
  156SAPE   H9X17415   1.775  -0.159   7.968 -0.0809  0.1913 -0.3744
  156SAPE   H9Y17416   1.604  -0.129   7.964  1.4728 -4.2445  0.0941
  156SAPE  C31017417   1.711  -0.056   8.145  0.4871 -0.2438  0.1648
  156SAPE  H10X17418   1.631   0.008   8.187  3.5657  5.1767 -1.7885
  156SAPE  H10Y17419   1.810  -0.007   8.152  0.7922 -1.0250  1.4003
  156SAPE  C31117420   1.715  -0.182   8.223 -0.8529  0.6244 -0.1601
  156SAPE  H11X17421   1.770  -0.259   8.165 -0.3950  2.5192 -2.3105
  156SAPE  H11Y17422   1.611  -0.211   8.250 -0.6384 -3.3650 -3.1705
  156SAPE  C31217423   1.796  -0.171   8.357 -0.8556 -0.0372 -0.8908
  156SAPE  H12X17424   1.752  -0.098   8.429 -0.8363 -0.8300 -0.0682
  156SAPE  H12Y17425   1.902  -0.147   8.333 -0.7315 -0.2090 -0.5264
  156SAPE  C31317426   1.794  -0.300   8.437  1.0696 -0.2379 -0.7329
  156SAPE  H13X17427   1.818  -0.384   8.368  1.4842  0.8255 -1.9051
  156SAPE  H13Y17428   1.691  -0.299   8.477  1.3652  3.0708  0.0057
  156SAPE  C31417429   1.896  -0.308   8.552  0.1947  0.3307  0.1001
  156SAPE  H14X17430   1.887  -0.214   8.610  0.1465 -0.0677  0.7391
  156SAPE  H14Y17431   2.001  -0.303   8.513 -0.0170  0.7726 -0.4263
  156SAPE  C31517432   1.883  -0.428   8.656 -0.1957  0.1522  0.6884
  156SAPE  H15X17433   1.861  -0.524   8.605  1.1737 -0.3499  1.0173
  156SAPE  H15Y17434   1.801  -0.392   8.722 -0.8621  2.9797 -1.5920
  156SAPE  C31617435   2.000  -0.445   8.747  0.3347  1.0686 -0.1192
  156SAPE  H16X17436   1.992  -0.367   8.826  0.5263  0.1395  0.8193
  156SAPE  H16Y17437   2.102  -0.434   8.703  1.4048 -2.8969  1.2154
  156SAPE  C31717438   1.994  -0.589   8.803 -0.1087  0.0222  0.3376
  156SAPE  H17X17439   2.077  -0.646   8.756 -0.9640  0.4125 -1.7121
  156SAPE  H17Y17440   1.889  -0.622   8.789  0.2743 -0.8964 -0.4529
  156SAPE  C31817441   2.004  -0.582   8.956 -0.3659 -0.0967 -0.5885
  156SAPE  H18X17442   2.000  -0.677   9.013 -4.2561  1.2102  1.5269
  156SAPE  H18Y17443   1.909  -0.534   8.989 -0.6011 -1.4153  0.6852
  156SAPE  H18Z17444   2.088  -0.522   8.996  0.7716 -2.6192  0.8913
  157SAPE     N17445   6.497   1.047   6.331 -0.2975 -0.0533 -0.1483
  157SAPE   HN117446   6.437   1.013   6.409 -0.7994 -0.3855 -0.6668
  157SAPE   HN217447   6.509   0.964   6.269  2.0854 -0.4682  0.8396
  157SAPE   HN317448   6.594   1.069   6.361 -0.6482  0.5892  0.5184
  157SAPE   C1217449   6.450   1.158   6.241  0.6653  0.5155 -0.2664
  157SAPE  H12A17450   6.362   1.120   6.185 -0.4339  1.1030  1.0419
  157SAPE  H12B17451   6.531   1.176   6.167  0.3216 -2.2850 -1.3962
  157SAPE   C1117452   6.404   1.294   6.304  0.3309  0.7602  0.1606
  157SAPE  H11A17453   6.488   1.331   6.366 -0.4508  2.2335  0.3615
  157SAPE  H11B17454   6.316   1.274   6.370  0.9673 -0.2725  0.7147
  157SAPE     P17455   6.219   1.421   6.176 -0.4296 -0.1779 -0.1150
  157SAPE   O1317456   6.199   1.543   6.093  0.0228 -0.0919  0.8349
  157SAPE   O1417457   6.144   1.295   6.136  0.0043  0.0547  0.3889
  157SAPE   O1217458   6.370   1.388   6.207 -0.1199  0.7567  0.3885
  157SAPE   O1117459   6.171   1.464   6.325  0.0611 -0.4055 -0.1289
  157SAPE    C117460   6.250   1.567   6.389 -0.2532 -0.1469  0.5351
  157SAPE    HA17461   6.358   1.546   6.408 -0.4271 -1.4979  0.0491
  157SAPE    HB17462   6.253   1.661   6.329  2.8348 -1.1267 -0.9485
  157SAPE    C217463   6.198   1.609   6.529 -0.5109  0.1612 -0.2137
  157SAPE    HS17464   6.285   1.647   6.586  0.2066 -0.4280 -0.9121
  157SAPE   O2117465   6.147   1.491   6.593  0.0376  0.5724  0.5194
  157SAPE   C2117466   6.239   1.417   6.656 -0.0226  0.0960  0.6068
  157SAPE   O2217467   6.355   1.450   6.665  0.0313  0.3179 -0.5614
  157SAPE   C2217468   6.182   1.291   6.714  0.5026  0.4262 -0.2831
  157SAPE   H2R17469   6.092   1.329   6.767 -0.0472 -1.9589  0.5376
  157SAPE   H2S17470   6.149   1.229   6.628 -1.4336  2.4254 -1.0295
  157SAPE    C317471   6.093   1.713   6.521  0.2946 -0.3324  0.5803
  157SAPE    HX17472   6.015   1.679   6.450  1.7701  0.3109 -1.3809
  157SAPE    HY17473   6.137   1.805   6.478  0.3617 -0.8300 -0.4251
  157SAPE   O3117474   6.022   1.745   6.645  0.3141  0.3795  0.2410
  157SAPE   C3117475   6.078   1.843   6.719 -0.3749  0.0882  0.1832
  157SAPE   O3217476   6.192   1.885   6.704 -0.8724 -0.1311  0.6348
  157SAPE   C3217477   5.992   1.887   6.837  0.1754 -0.8192  1.0967
  157SAPE   H2X17478   5.907   1.945   6.796  1.2843 -0.0332 -0.1447
  157SAPE   H2Y17479   6.062   1.946   6.899  0.5720  2.0966 -1.9588
  157SAPE   C2317480   6.289   1.219   6.795  0.3313  0.0539  0.8356
  157SAPE   H3R17481   6.394   1.253   6.786 -0.6505  3.2643  0.9210
  157SAPE   H3S17482   6.268   1.113   6.770 -2.2628  1.1955 -2.1795
  157SAPE   C2417483   6.266   1.225   6.949 -0.1106  0.2415  0.1417
  157SAPE   H4R17484   6.333   1.157   7.006 -0.0026  1.6641  1.7663
  157SAPE   H4S17485   6.160   1.192   6.962 -0.0055 -1.0777 -2.1568
  157SAPE   C2517486   6.283   1.361   7.014 -0.1907  0.0573  0.6049
  157SAPE   H5R17487   6.352   1.428   6.960  0.3639 -1.2840 -0.3565
  157SAPE   C2617488   6.247   1.395   7.137 -0.1311  0.1112 -0.0830
  157SAPE   H6R17489   6.275   1.497   7.167  0.7104  0.0065 -0.4790
  157SAPE   C2717490   6.178   1.322   7.245  0.8495  0.6009  0.1067
  157SAPE   H7R17491   6.123   1.232   7.210 -1.7458  1.5204  1.7107
  157SAPE   H7S17492   6.100   1.384   7.293  1.8753 -0.0625  2.7457
  157SAPE   C2817493   6.277   1.269   7.347  0.4026  0.6839  0.2444
  157SAPE   H8R17494   6.332   1.178   7.320 -1.1254 -0.1114 -0.2876
  157SAPE   C2917495   6.318   1.330   7.458 -0.5244  0.3582  0.0070
  157SAPE   H9R17496   6.382   1.272   7.526  2.3354  2.1937 -1.0269
  157SAPE  C21017497   6.281   1.455   7.521 -0.1665  0.0808  0.2402
  157SAPE  H10R17498   6.279   1.539   7.448 -3.1410 -1.4493 -1.4994
  157SAPE  H10S17499   6.353   1.479   7.603  1.2570  1.9288 -1.4877
  157SAPE  C21117500   6.149   1.438   7.597  0.1054  0.6250  0.0474
  157SAPE  H11R17501   6.092   1.347   7.574  0.5643 -0.2595  2.2864
  157SAPE  C21217502   6.109   1.524   7.689 -0.0959 -0.5519 -0.0077
  157SAPE  H12R17503   6.012   1.507   7.737  0.2662  1.4329  1.4611
  157SAPE  C21317504   6.176   1.652   7.729  0.5641 -0.2398  0.1715
  157SAPE  H13R17505   6.133   1.732   7.665 -0.4746 -1.4578 -0.6745
  157SAPE  H13S17506   6.284   1.645   7.704 -0.0620  0.3063 -2.9956
  157SAPE  C21417507   6.157   1.688   7.877 -0.3985  0.0471  0.2463
  157SAPE  H14R17508   6.092   1.772   7.904  1.4406  0.2230  4.4025
  157SAPE  C21517509   6.223   1.633   7.980 -0.6144 -0.0625 -0.9708
  157SAPE  H15R17510   6.198   1.662   8.083 -0.2388 -2.6237 -0.1388
  157SAPE  C21617511   6.333   1.525   7.976  0.1619  0.4445 -0.2975
  157SAPE  H16R17512   6.339   1.478   7.876 -0.3525 -1.5085  0.5433
  157SAPE  H16S17513   6.302   1.445   8.048 -2.1093  0.6687 -0.9950
  157SAPE  C21717514   6.476   1.575   8.002 -0.1147 -0.4494  0.2560
  157SAPE  H17R17515   6.496   1.629   8.097  0.9693  3.3823 -2.0106
  157SAPE  H17S17516   6.496   1.659   7.932  1.1109 -1.8101 -1.0446
  157SAPE  C21817517   6.587   1.474   7.971  0.4788  0.1498  0.3368
  157SAPE  H18R17518   6.680   1.533   7.986  1.0841 -0.1379 -2.0889
  157SAPE  H18S17519   6.578   1.441   7.865  0.4487 -0.4282  0.5181
  157SAPE  C21917520   6.608   1.358   8.057 -0.4640  0.0923  0.6062
  157SAPE  H19R17521   6.709   1.313   8.048 -0.3653  0.6406 -1.0739
  157SAPE  H19S17522   6.529   1.285   8.029 -0.8581  1.1270 -0.9630
  157SAPE  C22017523   6.590   1.390   8.200  0.0923 -0.4562  0.0441
  157SAPE  H20R17524   6.657   1.464   8.249 -1.4222  0.5184  0.6740
  157SAPE  H20S17525   6.609   1.301   8.264  2.2417 -0.0204  0.0375
  157SAPE  H20T17526   6.486   1.429   8.208  1.0013  1.6874  1.6520
  157SAPE   C3317527   5.950   1.759   6.909  0.3666  0.2336  0.3270
  157SAPE   H3X17528   6.033   1.685   6.908 -0.3542 -0.5954  0.7388
  157SAPE   H3Y17529   5.858   1.703   6.880  2.3210 -2.0735 -1.6527
  157SAPE   C3417530   5.928   1.775   7.062  0.4580 -0.2156 -0.3452
  157SAPE   H4X17531   5.851   1.853   7.078  0.8502  0.3187 -1.0458
  157SAPE   H4Y17532   6.027   1.810   7.100  0.2679  0.7050 -0.6967
  157SAPE   C3517533   5.904   1.638   7.126  0.0260 -0.1326  0.6780
  157SAPE   H5X17534   5.988   1.568   7.105 -1.2948 -1.4936 -0.1642
  157SAPE   H5Y17535   5.811   1.591   7.088  0.4232 -1.0409  0.8138
  157SAPE   C3617536   5.895   1.637   7.277  0.6249  0.1815 -0.4592
  157SAPE   H6X17537   5.985   1.685   7.320 -1.8366  3.4620  1.2756
  157SAPE   H6Y17538   5.902   1.532   7.313 -0.8999  0.0328 -0.5232
  157SAPE   C3717539   5.777   1.712   7.344  0.8742  0.9879  0.1113
  157SAPE   H7X17540   5.683   1.654   7.331  0.2838  1.4440  2.1800
  157SAPE   H7Y17541   5.772   1.817   7.307 -0.7568  0.7497 -0.4154
  157SAPE   C3817542   5.799   1.718   7.501 -0.5380  0.4339  0.2823
  157SAPE   H8X17543   5.872   1.800   7.520 -3.3675  2.7822  1.4859
  157SAPE   H8Y17544   5.843   1.626   7.544 -0.5038 -0.4176 -1.5248
  157SAPE   C3917545   5.674   1.765   7.577 -0.1581  0.2706  0.3274
  157SAPE   H9X17546   5.592   1.701   7.538  1.1581 -1.3655  0.2003
  157SAPE   H9Y17547   5.663   1.874   7.559 -1.0393  0.6360  2.7935
  157SAPE  C31017548   5.689   1.734   7.731 -0.2722 -0.3237 -0.1100
  157SAPE  H10X17549   5.702   1.624   7.743  0.3236 -0.0988  1.3907
  157SAPE  H10Y17550   5.589   1.756   7.775 -0.1112  1.0563 -0.4157
  157SAPE  C31117551   5.798   1.806   7.797 -0.3640  0.0415  0.0397
  157SAPE  H11X17552   5.804   1.904   7.744 -2.0549 -0.9360 -2.0232
  157SAPE  H11Y17553   5.894   1.752   7.786 -0.5090 -0.5938  1.8052
  157SAPE  C31217554   5.791   1.819   7.953 -0.1291  0.3519 -0.6327
  157SAPE  H12X17555   5.706   1.885   7.981  0.9036  1.8347 -0.9486
  157SAPE  H12Y17556   5.881   1.871   7.991  0.7142 -0.2414 -1.7953
  157SAPE  C31317557   5.788   1.684   8.024 -0.0341  0.4389  0.1909
  157SAPE  H13X17558   5.873   1.619   7.994 -0.0170  0.5988 -0.1074
  157SAPE  H13Y17559   5.697   1.628   7.993  1.3666 -2.5671  1.2189
  157SAPE  C31417560   5.780   1.702   8.174 -0.3232 -0.2816 -0.4581
  157SAPE  H14X17561   5.756   1.606   8.224 -0.5417 -0.3766 -0.7469
  157SAPE  H14Y17562   5.707   1.773   8.216  1.6547  2.3365 -1.2810
  157SAPE  C31517563   5.924   1.726   8.230 -0.3926 -0.3480  0.0929
  157SAPE  H15X17564   5.980   1.796   8.164  1.4862 -0.4662  1.5295
  157SAPE  H15Y17565   5.984   1.632   8.236 -1.3937 -0.8584  2.4631
  157SAPE  C31617566   5.919   1.770   8.379  1.0252 -0.1748 -0.2427
  157SAPE  H16X17567   5.877   1.871   8.399  0.4009 -0.5010  0.1427
  157SAPE  H16Y17568   6.022   1.774   8.419  0.3104  2.4993  1.5633
  157SAPE  C31717569   5.838   1.679   8.475 -0.1521  0.6079  0.0849
  157SAPE  H17X17570   5.870   1.573   8.463 -1.6883  0.0767  0.4849
  157SAPE  H17Y17571   5.729   1.688   8.453 -0.8990 -2.1354  2.4315
  157SAPE  C31817572   5.834   1.713   8.629  0.1547  0.3854 -0.6925
  157SAPE  H18X17573   5.800   1.814   8.660 -0.7333 -0.0961 -0.0854
  157SAPE  H18Y17574   5.935   1.693   8.671 -0.8197  0.4902  1.7575
  157SAPE  H18Z17575   5.766   1.641   8.678  0.4978  0.5559  0.0354
  158SAPE     N17576   1.478   0.229   6.455  0.2385  0.6853 -0.8751
  158SAPE   HN117577   1.462   0.280   6.545  0.3295 -0.8770  0.0530
  158SAPE   HN217578   1.574   0.247   6.421  2.0015 -3.4400  1.5436
  158SAPE   HN317579   1.410   0.273   6.390 -1.6485  0.1975  0.7315
  158SAPE   C1217580   1.467   0.074   6.472  0.2506  0.1454 -0.6758
  158SAPE  H12A17581   1.559   0.043   6.526  1.7306  0.3327 -3.0231
  158SAPE  H12B17582   1.454   0.033   6.369  0.9062  0.3488 -0.8464
  158SAPE   C1117583   1.338   0.045   6.550 -0.0462 -0.1716 -0.7165
  158SAPE  H11A17584   1.336   0.104   6.644 -1.1504 -0.2038 -0.7152
  158SAPE  H11B17585   1.322  -0.062   6.577  0.4788  0.3329  1.7149
  158SAPE     P17586   1.157   0.025   6.358  0.1799  0.2016  0.1849
  158SAPE   O1317587   1.047   0.113   6.317 -0.1823  0.1557  0.3381
  158SAPE   O1417588   1.264  -0.000   6.258  0.0984 -0.6415 -0.1248
  158SAPE   O1217589   1.227   0.097   6.481 -0.2254  0.0551 -0.6286
  158SAPE   O1117590   1.094  -0.106   6.413  0.1742  0.2286 -0.1007
  158SAPE    C117591   0.955  -0.118   6.422 -0.2501 -0.6272  0.2119
  158SAPE    HA17592   0.899  -0.078   6.335  1.8059 -0.0586 -0.8752
  158SAPE    HB17593   0.939  -0.228   6.416  0.4867 -0.6828 -0.6556
  158SAPE    C217594   0.899  -0.058   6.555 -0.6702  0.6990 -0.4417
  158SAPE    HS17595   0.930   0.048   6.548  1.2389  0.2646  1.0736
  158SAPE   O2117596   0.954  -0.124   6.674  0.6479  0.8329  0.4815
  158SAPE   C2117597   0.965  -0.058   6.778 -1.0883 -0.8540 -1.1398
  158SAPE   O2217598   0.962   0.064   6.790  1.0735 -0.6663  0.6134
  158SAPE   C2217599   0.998  -0.153   6.894 -0.5855 -0.3800  0.1801
  158SAPE   H2R17600   0.984  -0.099   6.990  0.0498  0.4497 -0.1898
  158SAPE   H2S17601   0.925  -0.236   6.885 -0.2537 -0.5211 -1.3002
  158SAPE    C317602   0.739  -0.075   6.569  0.3273  0.3635  0.4627
  158SAPE    HX17603   0.733  -0.186   6.571  2.7365  0.1453 -1.3163
  158SAPE    HY17604   0.694  -0.026   6.480  0.1362  0.4648  0.6135
  158SAPE   O3117605   0.682  -0.022   6.694  0.3566 -0.1159  0.2764
  158SAPE   C3117606   0.666   0.111   6.701  0.1092  0.2682  0.1742
  158SAPE   O3217607   0.694   0.186   6.607 -0.4934 -0.0911  0.0679
  158SAPE   C3217608   0.590   0.158   6.819 -0.0794  0.1220  0.3617
  158SAPE   H2X17609   0.499   0.095   6.827 -0.9862  1.5051  1.0632
  158SAPE   H2Y17610   0.558   0.265   6.825 -1.1531 -0.2018  0.4424
  158SAPE   C2317611   1.134  -0.219   6.884  0.0251 -0.0801 -0.2509
  158SAPE   H3R17612   1.172  -0.224   6.780  1.3687 -0.6613  0.2519
  158SAPE   H3S17613   1.132  -0.325   6.915 -1.5414 -0.6284 -2.1305
  158SAPE   C2417614   1.245  -0.152   6.978 -1.1514  0.1412  0.2804
  158SAPE   H4R17615   1.326  -0.223   6.952 -2.3116 -2.2185  2.8532
  158SAPE   H4S17616   1.228  -0.169   7.086  1.1378  0.3193  0.6841
  158SAPE   C2517617   1.275  -0.008   6.936 -0.4132  0.0715 -0.2827
  158SAPE   H5R17618   1.288   0.009   6.828  0.8971  1.9942  0.1609
  158SAPE   C2617619   1.283   0.094   7.021 -0.0710  1.1049  0.0829
  158SAPE   H6R17620   1.295   0.194   6.976 -1.3718  0.6075 -1.4269
  158SAPE   C2717621   1.269   0.094   7.168 -0.4140 -0.2664  0.0254
  158SAPE   H7R17622   1.174   0.047   7.201 -2.3584  3.8493  0.6669
  158SAPE   H7S17623   1.256   0.199   7.203  0.4683  0.0260 -0.5027
  158SAPE   C2817624   1.389   0.033   7.234  0.7908  0.1059 -1.0948
  158SAPE   H8R17625   1.431  -0.060   7.193  1.1022 -0.6903  0.9743
  158SAPE   C2917626   1.425   0.050   7.367 -0.5143  0.1768 -0.0162
  158SAPE   H9R17627   1.504  -0.011   7.413 -0.1418 -0.9601 -2.1193
  158SAPE  C21017628   1.348   0.145   7.453  0.0707 -0.4759 -0.3056
  158SAPE  H10R17629   1.241   0.114   7.455 -0.2514  0.6568  2.0926
  158SAPE  H10S17630   1.348   0.247   7.409 -1.5458  0.0517  0.8748
  158SAPE  C21117631   1.396   0.161   7.595  0.0424 -0.2121  0.1384
  158SAPE  H11R17632   1.497   0.203   7.602 -0.6287  1.2986  0.9868
  158SAPE  C21217633   1.321   0.130   7.709 -0.2390  0.6636 -0.0651
  158SAPE  H12R17634   1.367   0.148   7.807  0.5247  2.8901 -0.8061
  158SAPE  C21317635   1.178   0.082   7.712  0.1434 -0.5501  0.6782
  158SAPE  H13R17636   1.176  -0.018   7.663 -3.5440  0.1252 -0.7405
  158SAPE  H13S17637   1.111   0.134   7.640 -1.0432 -2.1169  0.6168
  158SAPE  C21417638   1.099   0.086   7.836  0.3304 -0.2391 -0.4068
  158SAPE  H14R17639   1.012   0.153   7.826 -1.0728 -1.4070  2.9972
  158SAPE  C21517640   1.115   0.026   7.961 -0.3677 -1.0803  0.1263
  158SAPE  H15R17641   1.047   0.026   8.047  1.2316  1.2067  1.4443
  158SAPE  C21617642   1.232  -0.067   7.985  0.1611  0.0216 -0.1377
  158SAPE  H16R17643   1.299  -0.074   7.897  0.8976  2.9238  0.1401
  158SAPE  H16S17644   1.194  -0.171   7.992 -0.8545  0.3652 -0.4501
  158SAPE  C21717645   1.310  -0.017   8.099  0.3287 -0.0551 -0.2765
  158SAPE  H17R17646   1.339   0.090   8.111 -0.0263  0.0999 -0.7655
  158SAPE  H17S17647   1.410  -0.064   8.091  1.7431  2.5865  1.2241
  158SAPE  C21817648   1.251  -0.061   8.234 -0.1421  0.7575  0.8263
  158SAPE  H18R17649   1.242  -0.170   8.215 -2.7276  1.2543 -1.1028
  158SAPE  H18S17650   1.154  -0.009   8.248 -0.0918  1.4373 -1.1465
  158SAPE  C21917651   1.344  -0.031   8.346  0.8254 -0.3442  0.7209
  158SAPE  H19R17652   1.371   0.076   8.343  1.6429 -0.5593  0.4331
  158SAPE  H19S17653   1.434  -0.092   8.326 -1.9039 -3.6552 -2.3131
  158SAPE  C22017654   1.291  -0.083   8.483  0.6043  0.6161  0.1820
  158SAPE  H20R17655   1.220  -0.020   8.540 -0.6075  0.8529 -1.5592
  158SAPE  H20S17656   1.377  -0.107   8.550  1.4809 -0.0410 -1.1662
  158SAPE  H20T17657   1.238  -0.179   8.465  1.0331  0.3067  0.5399
  158SAPE   C3317658   0.677   0.116   6.940  0.5689 -0.2383 -1.2231
  158SAPE   H3X17659   0.737   0.023   6.927 -1.4110 -1.4316 -1.9728
  158SAPE   H3Y17660   0.605   0.099   7.023  2.0088  0.5246  0.2051
  158SAPE   C3417661   0.765   0.236   6.987 -0.1459 -0.7946 -0.3974
  158SAPE   H4X17662   0.706   0.317   7.035  1.8460 -0.1546  1.0493
  158SAPE   H4Y17663   0.804   0.292   6.899  0.2710 -0.7956 -0.2164
  158SAPE   C3517664   0.875   0.184   7.082  0.2718 -0.4032 -0.6347
  158SAPE   H5X17665   0.951   0.126   7.025  1.4703  0.4291  0.0856
  158SAPE   H5Y17666   0.832   0.115   7.158 -0.7408  0.0733 -0.7680
  158SAPE   C3617667   0.946   0.304   7.153  0.8241 -0.1879 -0.9205
  158SAPE   H6X17668   0.955   0.379   7.071 -1.9348 -1.5610 -2.5914
  158SAPE   H6Y17669   1.048   0.272   7.181 -0.2508 -2.6534  0.2988
  158SAPE   C3717670   0.872   0.364   7.280  0.1381  0.2220  0.4243
  158SAPE   H7X17671   0.921   0.462   7.301 -0.1482  0.1753  1.3248
  158SAPE   H7Y17672   0.765   0.392   7.262  0.7694  1.9015 -0.9438
  158SAPE   C3817673   0.889   0.290   7.413 -0.3556 -0.0653  0.4751
  158SAPE   H8X17674   0.987   0.239   7.420  0.0811  0.9616  2.2054
  158SAPE   H8Y17675   0.812   0.210   7.420 -1.0657  0.5937  0.2897
  158SAPE   C3917676   0.867   0.394   7.527  0.4272  0.5342  0.3136
  158SAPE   H9X17677   0.758   0.414   7.533  0.6255  1.7782 -0.0670
  158SAPE   H9Y17678   0.922   0.490   7.513 -1.2708  1.5600  0.4741
  158SAPE  C31017679   0.908   0.348   7.666 -0.7439  0.1099  0.1542
  158SAPE  H10X17680   1.014   0.378   7.672 -0.5395 -0.3710 -1.0483
  158SAPE  H10Y17681   0.903   0.237   7.673 -1.0754  0.1260  0.1955
  158SAPE  C31117682   0.829   0.425   7.774 -0.2923  0.1045 -0.0910
  158SAPE  H11X17683   0.720   0.410   7.760 -0.4210 -0.7529  1.6784
  158SAPE  H11Y17684   0.851   0.533   7.761  1.3649  0.4833  4.7738
  158SAPE  C31217685   0.868   0.382   7.919 -0.9140  0.5645 -0.1583
  158SAPE  H12X17686   0.979   0.388   7.924 -0.6580 -3.2007  0.2146
  158SAPE  H12Y17687   0.845   0.276   7.942 -1.8795  0.9129  0.5093
  158SAPE  C31317688   0.797   0.468   8.028 -0.6929  0.0162  0.4473
  158SAPE  H13X17689   0.689   0.451   8.011 -0.2787 -1.3114 -1.0417
  158SAPE  H13Y17690   0.830   0.572   8.006  0.4877 -0.4287  0.0821
  158SAPE  C31417691   0.826   0.433   8.176 -0.1709 -0.3352 -0.7070
  158SAPE  H14X17692   0.773   0.512   8.233  1.3119  0.4641 -0.4028
  158SAPE  H14Y17693   0.934   0.445   8.204 -0.7575 -0.5235  1.8172
  158SAPE  C31517694   0.794   0.289   8.219  1.2323  0.1884 -0.3127
  158SAPE  H15X17695   0.866   0.213   8.182  2.0996 -0.0804  1.8665
  158SAPE  H15Y17696   0.694   0.273   8.173  1.2538  1.1803 -0.7103
  158SAPE  C31617697   0.794   0.288   8.374 -0.4766 -0.0204  0.2771
  158SAPE  H16X17698   0.829   0.385   8.415 -2.3780  0.7051  0.2103
  158SAPE  H16Y17699   0.867   0.214   8.415 -0.0471  0.3681  0.2250
  158SAPE  C31717700   0.658   0.249   8.426 -0.3331  0.3740  0.7491
  158SAPE  H17X17701   0.589   0.317   8.373 -0.6735 -0.4289  0.1625
  158SAPE  H17Y17702   0.652   0.279   8.533 -0.3021  0.6848  0.6632
  158SAPE  C31817703   0.607   0.108   8.395 -0.7587  0.0749 -0.0445
  158SAPE  H18X17704   0.587   0.099   8.286  0.9965 -1.2431 -0.2945
  158SAPE  H18Y17705   0.523   0.081   8.462 -2.8206  1.1205 -2.1271
  158SAPE  H18Z17706   0.683   0.031   8.422  1.0295  0.8790 -2.5512
  159SAPE     N17707   0.885   3.269   6.125 -0.8195  0.5138 -0.4840
  159SAPE   HN117708   0.934   3.353   6.162 -0.3660  0.2232 -0.4181
  159SAPE   HN217709   0.810   3.293   6.057 -1.2651 -0.5376 -0.3789
  159SAPE   HN317710   0.845   3.222   6.208  0.2837  1.2013  0.4497
  159SAPE   C1217711   0.978   3.162   6.078  0.4120  0.0050 -0.6295
  159SAPE  H12A17712   1.044   3.205   6.000  0.0278  2.6460  0.4547
  159SAPE  H12B17713   0.921   3.081   6.028  0.5430  0.8356 -2.1496
  159SAPE   C1117714   1.058   3.113   6.202 -0.1099 -0.8381 -0.0273
  159SAPE  H11A17715   0.981   3.093   6.280 -0.8782 -0.1083 -0.5849
  159SAPE  H11B17716   1.123   3.200   6.225 -0.7197  0.0732 -1.6552
  159SAPE     P17717   1.090   2.861   6.179 -0.0438  0.1387 -0.4988
  159SAPE   O1317718   0.981   2.859   6.084 -0.4253  0.9438 -0.3785
  159SAPE   O1417719   1.212   2.775   6.168  0.4227 -0.0892 -0.0493
  159SAPE   O1217720   1.149   3.009   6.186  0.4029 -0.3729 -0.4161
  159SAPE   O1117721   1.024   2.845   6.325 -0.1033 -0.1295  0.3671
  159SAPE    C117722   1.127   2.885   6.425 -0.6485  0.4384 -0.0287
  159SAPE    HA17723   1.230   2.843   6.421 -0.4999  0.4168  2.7255
  159SAPE    HB17724   1.142   2.995   6.437 -1.5856  0.2999  2.7571
  159SAPE    C217725   1.084   2.826   6.558 -0.9066 -0.8771 -0.3806
  159SAPE    HS17726   1.042   2.727   6.527 -0.0368 -1.2141 -0.5105
  159SAPE   O2117727   0.966   2.893   6.618 -0.4953  0.2049  0.5381
  159SAPE   C2117728   0.972   3.021   6.650  0.0765 -0.6267  0.2317
  159SAPE   O2217729   1.074   3.089   6.634  0.1412 -0.1197  0.3591
  159SAPE   C2217730   0.838   3.053   6.717 -0.3179  0.2442 -0.5121
  159SAPE   H2R17731   0.779   3.109   6.642 -1.7680 -0.3431  0.1747
  159SAPE   H2S17732   0.780   2.965   6.752  0.8765 -0.1621  0.4841
  159SAPE    C317733   1.195   2.788   6.665  0.2076  0.2349  0.1057
  159SAPE    HX17734   1.254   2.879   6.687  0.5163  0.1520 -0.3965
  159SAPE    HY17735   1.266   2.718   6.616 -3.3820 -3.1033 -0.5927
  159SAPE   O3117736   1.134   2.704   6.771  0.7714  0.0060 -0.2876
  159SAPE   C3117737   1.177   2.742   6.892  0.6346  0.1508  0.2845
  159SAPE   O3217738   1.248   2.836   6.916  0.4455  0.0947 -0.9337
  159SAPE   C3217739   1.099   2.661   6.996 -0.0783  0.4313 -0.2474
  159SAPE   H2X17740   1.142   2.559   7.001  1.9375  1.3506  2.2082
  159SAPE   H2Y17741   0.991   2.652   6.969 -0.5354 -0.8692  1.8146
  159SAPE   C2317742   0.858   3.157   6.831  0.2627  0.2705 -0.8293
  159SAPE   H3R17743   0.756   3.192   6.857  0.4990 -0.1299  0.6401
  159SAPE   H3S17744   0.912   3.245   6.791  2.8916 -1.5686 -1.4687
  159SAPE   C2417745   0.931   3.105   6.964 -0.0699 -0.6566 -0.5347
  159SAPE   H4R17746   0.934   3.202   7.019 -1.3768 -0.7859 -0.2196
  159SAPE   H4S17747   1.035   3.078   6.939  0.6801  0.2924  1.4719
  159SAPE   C2517748   0.865   3.009   7.056  0.2424 -0.6166  0.3086
  159SAPE   H5R17749   0.832   2.921   6.998  0.3678  0.3868 -1.2956
  159SAPE   C2617750   0.845   3.012   7.186  0.3510  0.9594 -0.3225
  159SAPE   H6R17751   0.801   2.924   7.234 -0.8026  2.5244  1.5667
  159SAPE   C2717752   0.893   3.118   7.283  0.1139  0.1415 -0.7796
  159SAPE   H7R17753   0.911   3.212   7.225 -1.3022 -0.0501 -1.5518
  159SAPE   H7S17754   0.987   3.088   7.332 -0.4778 -2.5260 -1.2242
  159SAPE   C2817755   0.780   3.153   7.381  0.5347 -0.4463  0.2277
  159SAPE   H8R17756   0.706   3.226   7.345  1.0905  0.2076  0.4037
  159SAPE   C2917757   0.766   3.115   7.513 -0.3319 -0.4816 -0.2701
  159SAPE   H9R17758   0.685   3.165   7.568 -1.1631 -1.3436 -0.7019
  159SAPE  C21017759   0.851   3.021   7.596 -0.2006 -1.3889 -0.0545
  159SAPE  H10R17760   0.956   3.052   7.574 -1.3373  3.1548  0.4287
  159SAPE  H10S17761   0.839   2.918   7.555 -2.8428 -0.8697 -0.6386
  159SAPE  C21117762   0.822   3.038   7.747  0.1993  0.1759  0.3436
  159SAPE  H11R17763   0.715   3.026   7.768  0.5754  0.1295  2.3285
  159SAPE  C21217764   0.909   3.041   7.852  0.3123 -0.6199 -0.3078
  159SAPE  H12R17765   0.866   3.057   7.952  0.9659 -0.2205 -0.0865
  159SAPE  C21317766   1.055   3.043   7.835 -0.2409 -0.0414  0.0377
  159SAPE  H13R17767   1.093   3.116   7.911 -0.9680  0.3621  0.0173
  159SAPE  H13S17768   1.109   3.074   7.743  1.8910  0.3065  1.3602
  159SAPE  C21417769   1.112   2.906   7.854 -0.1600  0.2571 -0.1252
  159SAPE  H14R17770   1.058   2.836   7.788 -0.4596  0.9828 -0.6458
  159SAPE  C21517771   1.216   2.866   7.935  0.6534 -0.3021 -0.2495
  159SAPE  H15R17772   1.251   2.762   7.933  2.1959  0.2045 -0.0544
  159SAPE  C21617773   1.305   2.958   8.020  0.0336 -0.4460  0.3437
  159SAPE  H16R17774   1.252   3.050   8.053  1.2248  0.0369  0.9428
  159SAPE  H16S17775   1.399   2.993   7.972 -0.0483 -0.2484  0.3262
  159SAPE  C21717776   1.361   2.904   8.153 -0.1493  0.1937 -0.2736
  159SAPE  H17R17777   1.416   2.809   8.135  0.7224  0.3065  1.6491
  159SAPE  H17S17778   1.287   2.883   8.234  2.1078 -0.1635  1.7489
  159SAPE  C21817779   1.473   2.982   8.215 -0.3057  0.1409 -0.3944
  159SAPE  H18R17780   1.510   3.049   8.134 -1.2114 -0.0035 -0.9291
  159SAPE  H18S17781   1.561   2.918   8.235 -1.4354 -0.9801  1.0142
  159SAPE  C21917782   1.434   3.064   8.343 -0.3000  0.2733  0.4286
  159SAPE  H19R17783   1.382   3.156   8.310  1.0452  0.5727 -0.9052
  159SAPE  H19S17784   1.527   3.095   8.395 -0.4423 -2.1620  2.2288
  159SAPE  C22017785   1.361   2.985   8.451  0.4387  0.0345  0.0468
  159SAPE  H20R17786   1.407   2.890   8.485 -0.8352 -0.8314 -0.6356
  159SAPE  H20S17787   1.255   2.962   8.430  0.6466  0.4078 -1.4740
  159SAPE  H20T17788   1.352   3.046   8.544 -2.0337  0.1629 -0.2614
  159SAPE   C3317789   1.113   2.716   7.139 -0.1487  0.7075  0.4302
  159SAPE   H3X17790   1.025   2.699   7.205 -0.7593  2.1298  0.0218
  159SAPE   H3Y17791   1.120   2.827   7.137  1.4572  0.6152  0.3866
  159SAPE   C3417792   1.245   2.665   7.206  0.0189 -0.4049  0.3367
  159SAPE   H4X17793   1.330   2.677   7.135  1.2724 -1.0103  1.7099
  159SAPE   H4Y17794   1.246   2.556   7.223 -0.8824 -0.3160  0.9848
  159SAPE   C3517795   1.273   2.738   7.341 -0.5608 -0.5095  0.0535
  159SAPE   H5X17796   1.198   2.693   7.410 -0.4950 -1.4943 -0.5111
  159SAPE   H5Y17797   1.259   2.848   7.331  2.3660  0.1106  2.0162
  159SAPE   C3617798   1.411   2.732   7.396 -0.2807  0.0541 -0.3748
  159SAPE   H6X17799   1.481   2.803   7.345 -2.1365  2.6524  0.5878
  159SAPE   H6Y17800   1.445   2.627   7.402 -1.1992 -0.1534  1.3586
  159SAPE   C3717801   1.398   2.775   7.544 -0.9802  0.0208 -0.0429
  159SAPE   H7X17802   1.329   2.702   7.591 -0.5214 -1.2040 -1.2244
  159SAPE   H7Y17803   1.353   2.876   7.552 -2.0272 -0.3164 -1.4321
  159SAPE   C3817804   1.529   2.768   7.620 -0.3952 -0.6198  0.3993
  159SAPE   H8X17805   1.612   2.813   7.561 -1.9073 -0.3636 -1.5583
  159SAPE   H8Y17806   1.539   2.658   7.632  1.1368 -0.5154  0.2400
  159SAPE   C3917807   1.534   2.838   7.759 -0.1930 -0.0850  0.3186
  159SAPE   H9X17808   1.454   2.789   7.818 -0.9274  0.7946  0.0705
  159SAPE   H9Y17809   1.498   2.943   7.751 -4.0618 -1.3537  0.2928
  159SAPE  C31017810   1.672   2.839   7.836 -0.3392 -0.3992 -0.6693
  159SAPE  H10X17811   1.674   2.901   7.928  0.6720  0.3632 -1.1963
  159SAPE  H10Y17812   1.746   2.858   7.755  2.0206 -3.3444  0.7025
  159SAPE  C31117813   1.709   2.700   7.878 -0.7656  0.0871  0.3474
  159SAPE  H11X17814   1.818   2.706   7.898 -0.4463 -2.0839 -0.5427
  159SAPE  H11Y17815   1.679   2.621   7.805 -2.4533  0.9973  0.0267
  159SAPE  C31217816   1.655   2.654   8.016  0.1744 -0.0460 -0.3264
  159SAPE  H12X17817   1.544   2.655   8.010  0.1330 -0.2816  0.4462
  159SAPE  H12Y17818   1.695   2.724   8.092  0.0869 -0.5480  0.1832
  159SAPE  C31317819   1.705   2.513   8.052 -0.7413 -0.2729 -0.1872
  159SAPE  H13X17820   1.816   2.515   8.045 -0.7709  0.4657 -0.5404
  159SAPE  H13Y17821   1.664   2.439   7.980  0.0142  0.3575 -1.2837
  159SAPE  C31417822   1.676   2.466   8.194 -0.6471  0.2886 -0.0446
  159SAPE  H14X17823   1.568   2.478   8.214 -0.6029 -1.5941  1.3820
  159SAPE  H14Y17824   1.736   2.527   8.265  1.7446 -1.4775 -0.4739
  159SAPE  C31517825   1.725   2.322   8.221 -0.1420  0.4932 -1.1165
  159SAPE  H15X17826   1.835   2.312   8.222  0.0525  2.1845  2.7316
  159SAPE  H15Y17827   1.688   2.249   8.145 -0.9840 -0.6658  0.3907
  159SAPE  C31617828   1.684   2.270   8.360 -0.3131  0.2548  0.4688
  159SAPE  H16X17829   1.576   2.246   8.364  0.0255 -1.6788 -1.1183
  159SAPE  H16Y17830   1.693   2.347   8.439 -0.6887 -0.4507  1.2128
  159SAPE  C31717831   1.766   2.147   8.397 -0.0958 -1.0011  0.1610
  159SAPE  H17X17832   1.757   2.071   8.316 -3.5011  0.9447 -1.3842
  159SAPE  H17Y17833   1.719   2.115   8.492 -1.8511 -0.1207 -0.4029
  159SAPE  C31817834   1.918   2.182   8.421 -0.0380 -0.0131 -0.1213
  159SAPE  H18X17835   1.936   2.281   8.467  0.8608 -1.0148  1.7320
  159SAPE  H18Y17836   1.979   2.183   8.328  0.0842 -1.6417 -0.0825
  159SAPE  H18Z17837   1.950   2.103   8.492 -0.9379  0.2045  0.5478
  160SAPE     N17838   2.060   0.780   6.073  0.6259  0.9866  0.2099
  160SAPE   HN117839   2.055   0.728   5.983  1.0709  0.3597  0.5478
  160SAPE   HN217840   2.155   0.820   6.065  1.6294 -1.6154 -1.2825
  160SAPE   HN317841   2.060   0.708   6.148  0.5700  1.0389  0.2599
  160SAPE   C1217842   1.955   0.888   6.084 -0.1870  0.0403 -0.4568
  160SAPE  H12A17843   1.859   0.841   6.117  0.4091 -1.2866 -0.6051
  160SAPE  H12B17844   1.945   0.929   5.982  0.9146 -1.5192 -1.2033
  160SAPE   C1117845   2.006   1.007   6.177  0.3138  0.1567  0.8609
  160SAPE  H11A17846   1.920   1.077   6.183 -0.8858 -1.3493  1.4832
  160SAPE  H11B17847   2.093   1.056   6.129 -0.1269 -0.1480 -0.2791
  160SAPE     P17848   1.921   0.921   6.406 -0.0008 -0.0843 -0.2780
  160SAPE   O1317849   1.798   0.877   6.335 -0.4886 -0.6628 -0.1091
  160SAPE   O1417850   1.965   0.834   6.519  0.2354  0.2530 -0.7602
  160SAPE   O1217851   2.042   0.958   6.305 -0.2966  0.3918 -0.0072
  160SAPE   O1117852   1.912   1.068   6.463  0.2342 -0.2370  0.3780
  160SAPE    C117853   2.012   1.113   6.542 -0.3744 -0.1401  0.3214
  160SAPE    HA17854   2.112   1.069   6.524 -0.6253 -0.5592 -0.0845
  160SAPE    HB17855   2.021   1.223   6.529 -1.1349 -0.2104 -0.9516
  160SAPE    C217856   1.995   1.095   6.696  0.0992 -0.3636  0.5879
  160SAPE    HS17857   2.011   0.985   6.703 -0.6945 -0.4981  0.3047
  160SAPE   O2117858   1.858   1.132   6.736  0.0399  0.3379  0.2226
  160SAPE   C2117859   1.809   1.052   6.827  0.1475 -0.1550 -0.1584
  160SAPE   O2217860   1.860   0.947   6.865 -0.0334 -0.0148 -0.2296
  160SAPE   C2217861   1.683   1.108   6.888  0.1038 -0.1832  0.2960
  160SAPE   H2R17862   1.722   1.204   6.929 -1.4693  0.7886 -0.4152
  160SAPE   H2S17863   1.602   1.109   6.812 -1.0690 -0.1733  1.5371
  160SAPE    C317864   2.105   1.178   6.777  1.2059 -0.0236  0.6390
  160SAPE    HX17865   2.120   1.276   6.729  0.7981  0.0801  0.7204
  160SAPE    HY17866   2.206   1.133   6.765  1.1713  0.4488 -1.5444
  160SAPE   O3117867   2.065   1.196   6.912  0.2011  0.3450 -0.2360
  160SAPE   C3117868   1.984   1.288   6.949  0.0483 -0.2641 -0.1526
  160SAPE   O3217869   1.934   1.372   6.870 -0.3784 -0.0465 -0.3622
  160SAPE   C3217870   1.968   1.283   7.096 -0.1956  0.4686 -0.4881
  160SAPE   H2X17871   2.063   1.249   7.144 -0.4873  3.1478  2.1455
  160SAPE   H2Y17872   1.899   1.201   7.124  1.7039 -1.5690 -1.6199
  160SAPE   C2317873   1.630   1.009   6.996 -0.1981 -0.1479 -0.1377
  160SAPE   H3R17874   1.703   1.001   7.078 -1.6985  0.9487  1.3505
  160SAPE   H3S17875   1.603   0.912   6.949 -1.3087 -0.3064  0.7861
  160SAPE   C2417876   1.497   1.066   7.056  0.2789 -0.5181  0.6722
  160SAPE   H4R17877   1.460   0.987   7.124 -0.4157 -1.0768 -0.3465
  160SAPE   H4S17878   1.419   1.078   6.977  0.9876  0.0075  0.0360
  160SAPE   C2517879   1.515   1.191   7.138 -0.3115 -0.5192 -0.6865
  160SAPE   H5R17880   1.529   1.278   7.072  3.0951  1.2590  2.1906
  160SAPE   C2617881   1.494   1.205   7.270 -0.3734  0.2295  0.1365
  160SAPE   H6R17882   1.497   1.310   7.304  0.2870  0.5731 -0.9300
  160SAPE   C2717883   1.462   1.102   7.377  0.1587  0.1427 -0.3913
  160SAPE   H7R17884   1.553   1.057   7.420 -1.1086 -0.1090  2.0942
  160SAPE   H7S17885   1.416   1.009   7.336  0.0936 -0.0954  0.2150
  160SAPE   C2817886   1.366   1.157   7.485  0.7094  0.3726  0.3524
  160SAPE   H8R17887   1.259   1.170   7.462  0.3640 -1.5876  0.7250
  160SAPE   C2917888   1.394   1.183   7.613  0.0649  0.6659 -0.1558
  160SAPE   H9R17889   1.315   1.228   7.674  1.0342  0.7854  1.0258
  160SAPE  C21017890   1.528   1.158   7.676  0.1505  0.1257 -0.2771
  160SAPE  H10R17891   1.551   1.241   7.746  0.5983 -0.2772  0.0582
  160SAPE  H10S17892   1.617   1.157   7.610  2.8269  0.7994  3.1890
  160SAPE  C21117893   1.526   1.035   7.754 -0.2643  0.3518  0.6325
  160SAPE  H11R17894   1.513   0.952   7.683 -0.1666 -0.9758  2.1473
  160SAPE  C21217895   1.538   1.003   7.886  0.3003 -0.7044  0.9136
  160SAPE  H12R17896   1.527   0.894   7.899 -2.5714 -0.5617  0.1006
  160SAPE  C21317897   1.548   1.096   8.006 -0.1641  0.6210 -0.1503
  160SAPE  H13R17898   1.546   1.201   7.971 -2.4689  1.0153  1.0946
  160SAPE  H13S17899   1.647   1.078   8.052 -0.5363 -1.6322 -0.1682
  160SAPE  C21417900   1.428   1.093   8.096 -0.2651  0.1607 -0.5013
  160SAPE  H14R17901   1.331   1.118   8.050 -0.3280  1.3951  0.2748
  160SAPE  C21517902   1.430   1.052   8.224  0.3839 -0.0702 -0.0287
  160SAPE  H15R17903   1.340   1.057   8.287 -1.2748  2.0748 -2.4769
  160SAPE  C21617904   1.559   1.019   8.300  0.6510  0.3581 -0.3598
  160SAPE  H16R17905   1.601   1.112   8.345  1.0747 -0.2795  0.5819
  160SAPE  H16S17906   1.640   0.992   8.229  0.9562 -0.0715  0.1528
  160SAPE  C21717907   1.533   0.908   8.401  1.1469 -0.9646 -0.3333
  160SAPE  H17R17908   1.470   0.826   8.360  0.2791 -1.5572  2.1056
  160SAPE  H17S17909   1.472   0.946   8.486 -2.7031 -3.5342 -1.7997
  160SAPE  C21817910   1.667   0.854   8.449  0.3313  0.1529  0.3575
  160SAPE  H18R17911   1.719   0.936   8.503  0.3577  0.0215  0.5314
  160SAPE  H18S17912   1.720   0.811   8.362 -2.9346 -3.1616 -0.1520
  160SAPE  C21917913   1.661   0.744   8.557 -0.1332 -0.9487 -0.3485
  160SAPE  H19R17914   1.762   0.698   8.563  0.2376  0.0074  0.9902
  160SAPE  H19S17915   1.594   0.664   8.519 -0.9763 -1.1129  1.4031
  160SAPE  C22017916   1.615   0.794   8.692 -0.6323 -0.0194 -0.2986
  160SAPE  H20R17917   1.561   0.712   8.743  2.2574 -1.3954  0.6493
  160SAPE  H20S17918   1.552   0.886   8.689 -1.4290 -0.5244  0.7101
  160SAPE  H20T17919   1.706   0.810   8.754 -0.9079 -0.5220  0.2431
  160SAPE   C3317920   1.933   1.421   7.157 -0.0091 -0.3615 -0.4829
  160SAPE   H3X17921   1.849   1.469   7.102 -1.1995  1.2246  2.5567
  160SAPE   H3Y17922   2.019   1.490   7.144 -0.4435  0.4055  0.6086
  160SAPE   C3417923   1.879   1.404   7.300  0.8417 -1.1827  0.3624
  160SAPE   H4X17924   1.961   1.384   7.372 -0.1987 -2.8076  1.1351
  160SAPE   H4Y17925   1.805   1.321   7.298 -0.4240 -0.0628  0.1806
  160SAPE   C3517926   1.799   1.514   7.359  0.6674 -0.3270  0.0080
  160SAPE   H5X17927   1.701   1.498   7.309 -0.6230  0.7395  2.1335
  160SAPE   H5Y17928   1.848   1.611   7.335  0.0434  0.1764  0.7639
  160SAPE   C3617929   1.789   1.510   7.508  0.3254 -0.4944  0.3811
  160SAPE   H6X17930   1.888   1.491   7.553  0.7062 -1.5980 -0.8886
  160SAPE   H6Y17931   1.726   1.427   7.546 -0.3758  0.3437  1.0609
  160SAPE   C3717932   1.746   1.648   7.562  0.3400  0.2165  0.0956
  160SAPE   H7X17933   1.648   1.681   7.522 -0.1500 -1.4098 -0.0457
  160SAPE   H7Y17934   1.823   1.721   7.528 -2.3881  2.1233 -2.2032
  160SAPE   C3817935   1.734   1.649   7.710 -0.2643  0.3614 -0.0002
  160SAPE   H8X17936   1.830   1.635   7.763  0.0350  1.3121 -0.2705
  160SAPE   H8Y17937   1.679   1.561   7.750  0.3722 -0.2241 -0.4082
  160SAPE   C3917938   1.662   1.773   7.761  0.3068  0.6650 -0.2809
  160SAPE   H9X17939   1.552   1.759   7.753  0.5262 -1.4379  0.0402
  160SAPE   H9Y17940   1.705   1.857   7.701  1.1519  0.3779 -0.0886
  160SAPE  C31017941   1.680   1.787   7.915  1.0026 -0.7468  0.0525
  160SAPE  H10X17942   1.787   1.815   7.924  0.9316 -0.5716  0.3702
  160SAPE  H10Y17943   1.655   1.695   7.971  4.1323 -1.2534  0.7255
  160SAPE  C31117944   1.600   1.904   7.974  0.2088  0.2810 -0.6435
  160SAPE  H11X17945   1.505   1.905   7.917  0.3928  0.3642 -0.9506
  160SAPE  H11Y17946   1.637   2.008   7.966 -2.2623  1.3269  1.1757
  160SAPE  C31217947   1.564   1.867   8.126  0.5898 -0.0026  0.3982
  160SAPE  H12X17948   1.655   1.858   8.189  0.8484  2.1514  0.3551
  160SAPE  H12Y17949   1.521   1.764   8.132 -0.1684  0.3546  1.3207
  160SAPE  C31317950   1.475   1.972   8.183  0.4271 -0.3000 -0.0430
  160SAPE  H13X17951   1.375   1.980   8.136  0.7668  0.8521 -0.5810
  160SAPE  H13Y17952   1.523   2.071   8.170  2.2756 -1.4620 -2.4009
  160SAPE  C31417953   1.455   1.943   8.335  0.2977  0.2423  0.6912
  160SAPE  H14X17954   1.414   2.039   8.372 -2.1330  0.0556 -1.3605
  160SAPE  H14Y17955   1.554   1.912   8.373 -0.1646 -2.0731  0.0946
  160SAPE  C31517956   1.343   1.835   8.352 -0.0662 -0.0598  0.0550
  160SAPE  H15X17957   1.354   1.733   8.311  0.1441 -0.0249  0.0234
  160SAPE  H15Y17958   1.254   1.886   8.309  1.0242  1.9858  0.1547
  160SAPE  C31617959   1.310   1.814   8.503 -0.1452 -0.1007  0.6830
  160SAPE  H16X17960   1.393   1.762   8.556  0.3743 -1.3190 -1.2655
  160SAPE  H16Y17961   1.231   1.736   8.495 -0.9275  0.7629 -0.0725
  160SAPE  C31717962   1.264   1.928   8.594  0.1276  0.3898  0.3913
  160SAPE  H17X17963   1.199   1.882   8.673  1.8640 -1.1055  0.9832
  160SAPE  H17Y17964   1.197   1.991   8.531 -0.6425  0.7580  1.5628
  160SAPE  C31817965   1.384   2.005   8.657 -0.5161 -0.4189  0.0129
  160SAPE  H18X17966   1.450   2.048   8.580 -1.8696 -0.3455 -1.1318
  160SAPE  H18Y17967   1.439   1.919   8.701 -0.8398 -0.3807  0.4926
  160SAPE  H18Z17968   1.353   2.081   8.732  0.5326 -0.7144  0.7567
  161SOPE     N17969   6.704   3.478  10.591  0.0070 -0.3347 -0.0956
  161SOPE   HN117970   6.676   3.526  10.503 -0.5321 -2.6204 -1.2171
  161SOPE   HN217971   6.667   3.535  10.671 -1.6032 -1.1137 -0.2510
  161SOPE   HN317972   6.808   3.476  10.592 -0.0024 -0.9372  1.6491
  161SOPE   C1217973   6.655   3.343  10.594  0.6198  0.3475  0.0197
  161SOPE  H12A17974   6.550   3.341  10.557  1.6497 -0.0897 -3.0285
  161SOPE  H12B17975   6.647   3.308  10.699  1.4278 -1.9333 -0.6479
  161SOPE   C1117976   6.746   3.253  10.514 -0.0220  0.5245  0.0763
  161SOPE  H11A17977   6.750   3.289  10.409 -2.2414  0.4302 -0.0488
  161SOPE  H11B17978   6.693   3.157  10.497  0.1527  0.2713  0.9048
  161SOPE     P17979   6.900   3.106  10.673 -0.0107  0.4239  0.4397
  161SOPE   O1317980   6.779   3.090  10.752 -0.4961  0.5626 -0.0800
  161SOPE   O1417981   7.027   3.122  10.752  0.0324  0.5554 -0.5867
  161SOPE   O1217982   6.880   3.238  10.573 -0.1088 -0.1342 -0.0773
  161SOPE   O1117983   6.891   2.976  10.572 -0.6214  0.1159 -0.2972
  161SOPE    C117984   7.002   2.949  10.489 -0.0966 -0.4324 -0.2653
  161SOPE    HA17985   7.000   2.841  10.464  0.3620 -0.1515 -1.5681
  161SOPE    HB17986   7.102   2.967  10.534  0.7553 -1.5571 -1.6622
  161SOPE    C217987   6.994   3.020  10.349  0.1851  1.1240 -0.2448
  161SOPE    HS17988   6.972   3.127  10.368  0.9670  1.2534 -0.0945
  161SOPE   O2117989   6.887   2.949  10.275 -0.0079  0.4653 -0.8567
  161SOPE   C2117990   6.815   3.026  10.198 -0.1256  0.1772 -0.3660
  161SOPE   O2217991   6.815   3.149  10.210  0.8109  0.0927 -0.3356
  161SOPE   C2217992   6.742   2.950  10.088  0.7231 -0.5836 -0.7952
  161SOPE   H2R17993   6.655   2.893  10.128 -1.3148  2.8158 -0.1593
  161SOPE   H2S17994   6.819   2.873  10.066  1.4364 -0.7586  2.0954
  161SOPE    C317995   7.129   3.000  10.270 -0.8245 -0.0994  0.1747
  161SOPE    HX17996   7.145   2.890  10.274 -0.1450  0.0062  0.3140
  161SOPE    HY17997   7.216   3.043  10.323 -0.0833 -2.7094  1.1959
  161SOPE   O3117998   7.108   3.053  10.140 -0.0040 -0.2155 -0.0882
  161SOPE   C3117999   7.133   2.969  10.044  0.9864 -0.4377 -0.4572
  161SOPE   O3218000   7.190   2.862  10.057  0.0037 -0.1836  0.4334
  161SOPE   C3218001   7.076   3.033   9.918  0.5817 -0.5291  0.2763
  161SOPE   H2X18002   6.998   3.109   9.940  0.7746 -0.0341 -0.6948
  161SOPE   H2Y18003   7.013   2.952   9.875  0.1638 -0.5631  0.9407
  161SOPE   C2318004   6.700   3.038   9.965 -0.1300 -0.1335  0.7014
  161SOPE   H3R18005   6.778   3.101   9.919 -1.0491 -0.7231 -1.7359
  161SOPE   H3S18006   6.626   3.114   9.998 -0.9109 -0.2032 -0.8555
  161SOPE   C2418007   6.641   2.959   9.854  0.2078  0.0259 -0.1235
  161SOPE   H4R18008   6.723   2.893   9.818 -0.3857 -1.5595  1.3814
  161SOPE   H4S18009   6.567   2.896   9.907  0.0622 -0.2406 -0.6430
  161SOPE   C2518010   6.586   3.052   9.742 -0.4895  0.7017  0.6286
  161SOPE   H5R18011   6.511   3.116   9.792  0.4266  1.4773  1.0306
  161SOPE   H5S18012   6.669   3.111   9.698 -1.2017  0.2375 -1.3941
  161SOPE   C2618013   6.525   2.976   9.627 -0.1093  0.2966 -0.1046
  161SOPE   H6R18014   6.434   2.917   9.651  0.6725  0.4949  3.6087
  161SOPE   H6S18015   6.500   3.051   9.549  2.4008 -0.2648 -1.5003
  161SOPE   C2718016   6.620   2.876   9.568 -0.0817 -0.6682  0.0796
  161SOPE   H7R18017   6.721   2.920   9.559  0.6825 -2.6841 -1.6143
  161SOPE   H7S18018   6.617   2.785   9.632 -1.0870 -0.0033  1.0087
  161SOPE   C2818019   6.577   2.833   9.424  0.4323 -0.4547 -0.3697
  161SOPE   H8R18020   6.566   2.926   9.364  2.5174  0.7041  1.0080
  161SOPE   H8S18021   6.664   2.777   9.383  1.0649 -0.3407  0.8208
  161SOPE   C2918022   6.453   2.743   9.424 -0.6058  0.5252  0.7617
  161SOPE   H9118023   6.487   2.641   9.447  3.7900  1.7070 -0.1675
  161SOPE  C21018024   6.326   2.761   9.391 -0.2942 -0.8883  0.4806
  161SOPE  H10118025   6.258   2.674   9.393 -1.5215 -0.0394 -2.2097
  161SOPE  C21118026   6.259   2.886   9.351  0.3949  0.0806 -0.0101
  161SOPE  H11R18027   6.331   2.963   9.318 -0.4236  2.0276  2.5680
  161SOPE  H11S18028   6.203   2.910   9.444  2.5714 -0.9589  1.6137
  161SOPE  C21218029   6.152   2.853   9.245  0.6944  0.3417  0.3691
  161SOPE  H12R18030   6.073   2.925   9.275  0.5218  0.3468 -0.0891
  161SOPE  H12S18031   6.108   2.751   9.257  0.6911  0.0237 -2.0706
  161SOPE  C21318032   6.188   2.881   9.103  0.0669  0.4606 -0.1399
  161SOPE  H13R18033   6.249   2.794   9.069 -0.0062 -0.3032  1.5924
  161SOPE  H13S18034   6.250   2.973   9.102 -1.0685  1.2197 -1.0940
  161SOPE  C21418035   6.067   2.899   9.013  0.5707  0.0335  1.0754
  161SOPE  H14R18036   6.026   2.999   9.035 -3.1887 -1.0180 -0.7994
  161SOPE  H14S18037   5.992   2.821   9.037 -1.3528  1.2010 -1.0144
  161SOPE  C21518038   6.103   2.892   8.861  0.2257  0.6372 -0.5404
  161SOPE  H15R18039   6.141   2.788   8.850 -1.9267 -0.3719  1.1472
  161SOPE  H15S18040   6.172   2.971   8.824  1.2407 -0.2785 -0.6504
  161SOPE  C21618041   5.982   2.890   8.771 -0.2039 -0.5107 -0.6031
  161SOPE  H16R18042   5.908   2.973   8.772  0.6573  0.2755 -0.7670
  161SOPE  H16S18043   5.929   2.800   8.808 -2.0801 -0.4696 -3.0547
  161SOPE  C21718044   6.023   2.842   8.632  1.0437 -0.5150  0.4081
  161SOPE  H17R18045   6.112   2.776   8.632  1.1464 -0.3751 -0.3055
  161SOPE  H17S18046   6.048   2.940   8.585 -1.6397 -0.2501 -0.6016
  161SOPE  C21818047   5.901   2.779   8.561  0.2964  0.4061  0.4525
  161SOPE  H18R18048   5.809   2.841   8.561  1.1143  1.6395 -0.1026
  161SOPE  H18S18049   5.868   2.687   8.615  1.0244  0.8688  1.7078
  161SOPE  H18T18050   5.925   2.749   8.457 -2.2270 -0.0257 -0.0182
  161SOPE   C3318051   7.170   3.087   9.815  0.3735 -0.3957 -0.3333
  161SOPE   H3X18052   7.246   3.024   9.764 -0.0233 -0.3602 -0.9680
  161SOPE   H3Y18053   7.226   3.157   9.881  0.5069  0.6578 -1.5476
  161SOPE   C3418054   7.099   3.162   9.704 -0.6067 -0.3381 -0.6813
  161SOPE   H4X18055   7.157   3.257   9.700 -1.4256  0.1782 -0.3564
  161SOPE   H4Y18056   6.994   3.188   9.730  0.3705  1.8174  1.2440
  161SOPE   C3518057   7.103   3.096   9.568  0.1842 -0.6869 -0.4315
  161SOPE   H5X18058   7.212   3.084   9.552 -0.2023 -2.7294 -1.5887
  161SOPE   H5Y18059   7.058   3.158   9.488  1.7807 -0.0704 -0.8707
  161SOPE   C3618060   7.036   2.955   9.560 -0.4874  0.0920  0.5576
  161SOPE   H6X18061   6.940   2.945   9.616  0.6198 -0.5676  2.4022
  161SOPE   H6Y18062   7.094   2.888   9.627 -1.0375 -0.0264  0.9211
  161SOPE   C3718063   7.004   2.910   9.416 -0.7100 -0.2172  0.3826
  161SOPE   H7X18064   6.943   2.991   9.372 -0.6077  0.7867  2.0259
  161SOPE   H7Y18065   6.941   2.818   9.418 -0.7625 -0.1622  1.5564
  161SOPE   C3818066   7.132   2.890   9.341 -0.3826  0.1976 -0.8255
  161SOPE   H8X18067   7.182   2.799   9.381 -1.7013 -0.4274 -0.6020
  161SOPE   H8Y18068   7.200   2.978   9.346  2.6741 -2.2162  3.9373
  161SOPE   C3918069   7.111   2.860   9.187  0.0138  0.0789  0.0892
  161SOPE   H9X18070   7.068   2.955   9.150 -1.9284 -0.7326  0.1977
  161SOPE   H9Y18071   7.040   2.774   9.182 -0.6286  0.5142  1.5464
  161SOPE  C31018072   7.235   2.831   9.107 -0.1869 -0.4328  0.0733
  161SOPE  H10X18073   7.220   2.811   8.999  1.2922 -2.1551  0.1669
  161SOPE  H10Y18074   7.275   2.738   9.153 -1.4831 -0.0518  2.0303
  161SOPE  C31118075   7.354   2.932   9.143  0.0973  0.1450  0.2288
  161SOPE  H11X18076   7.394   2.919   9.246  1.2512  0.1350 -0.2147
  161SOPE  H11Y18077   7.311   3.034   9.145 -2.0817 -0.7495  0.5129
  161SOPE  C31218078   7.460   2.913   9.034  0.3086 -0.5095 -0.4465
  161SOPE  H12X18079   7.491   2.809   9.014  0.8108 -0.4905  0.2511
  161SOPE  H12Y18080   7.549   2.972   9.064  0.8551 -2.5446  2.0188
  161SOPE  C31318081   7.425   2.980   8.899 -0.1228 -0.2066 -0.5936
  161SOPE  H13X18082   7.353   3.061   8.923  0.8342  1.0161 -1.8298
  161SOPE  H13Y18083   7.361   2.920   8.830 -0.9419  1.9773 -1.7722
  161SOPE  C31418084   7.535   3.048   8.819  0.4469  0.7693  0.0378
  161SOPE  H14X18085   7.617   2.981   8.785 -0.5879 -0.5989  0.1490
  161SOPE  H14Y18086   7.569   3.131   8.885 -1.5644  0.4374  1.5583
  161SOPE  C31518087   7.472   3.111   8.690 -0.4028  0.2013  0.1121
  161SOPE  H15X18088   7.376   3.158   8.722 -0.2723  0.4773  0.1029
  161SOPE  H15Y18089   7.435   3.050   8.605  0.4967  1.5138 -1.2483
  161SOPE  C31618090   7.560   3.228   8.638  0.4645  0.2898 -0.1862
  161SOPE  H16X18091   7.653   3.184   8.596  0.8322  0.8273  0.0466
  161SOPE  H16Y18092   7.595   3.279   8.731  2.8722 -3.2923  0.9598
  161SOPE  C31718093   7.485   3.318   8.546  0.1546  0.3770 -0.3257
  161SOPE  H17X18094   7.528   3.420   8.551  1.4270 -0.0620 -1.8378
  161SOPE  H17Y18095   7.377   3.321   8.572  0.5207  2.0698  1.0349
  161SOPE  C31818096   7.510   3.279   8.396 -0.8707  0.2081 -0.6039
  161SOPE  H18X18097   7.610   3.294   8.350 -0.4250 -1.3253 -0.1550
  161SOPE  H18Y18098   7.436   3.341   8.342 -0.9372  2.1056  1.5610
  161SOPE  H18Z18099   7.481   3.172   8.387 -0.3944 -0.3426  3.2345
  162SOPE     N18100   5.777   2.379  10.813 -0.2054  0.0681 -0.2775
  162SOPE   HN118101   5.713   2.447  10.766 -0.7317  1.2862  2.0859
  162SOPE   HN218102   5.832   2.345  10.732 -0.7156  0.7916 -0.9389
  162SOPE   HN318103   5.715   2.304  10.851 -0.2146  0.1724 -0.0898
  162SOPE   C1218104   5.874   2.439  10.911  0.4478 -0.5980 -0.3551
  162SOPE  H12A18105   5.917   2.351  10.964 -0.6722 -0.9432 -0.0061
  162SOPE  H12B18106   5.821   2.501  10.987  0.6233  0.6372 -1.2398
  162SOPE   C1118107   5.991   2.509  10.835 -0.2662 -0.4494 -0.5240
  162SOPE  H11A18108   6.039   2.434  10.769  1.0589 -0.6627  0.6596
  162SOPE  H11B18109   6.065   2.552  10.906 -3.7883  1.8166  1.9567
  162SOPE     P18110   5.917   2.757  10.821  0.0476 -0.0246 -0.5790
  162SOPE   O1318111   6.039   2.793  10.897  0.1647 -0.3181 -0.4275
  162SOPE   O1418112   5.797   2.750  10.905  0.1379  0.7119  0.0081
  162SOPE   O1218113   5.935   2.611  10.752  0.4507 -0.3764  0.5000
  162SOPE   O1118114   5.898   2.864  10.707  0.0743  0.0040 -0.5128
  162SOPE    C118115   5.782   2.909  10.638 -0.3071 -0.0648  0.4102
  162SOPE    HA18116   5.813   2.988  10.567  1.0530 -1.4198 -0.5262
  162SOPE    HB18117   5.707   2.952  10.708 -0.9153  0.7315 -0.7108
  162SOPE    C218118   5.728   2.798  10.541 -0.5368 -0.0245 -0.0499
  162SOPE    HS18119   5.693   2.715  10.606 -1.7752  0.4881 -0.0612
  162SOPE   O2118120   5.841   2.750  10.463 -0.3715  0.1679  0.4596
  162SOPE   C2118121   5.818   2.629  10.413 -0.1751 -0.2039 -0.0826
  162SOPE   O2218122   5.726   2.554  10.442 -0.1725 -0.0842 -1.0617
  162SOPE   C2218123   5.929   2.606  10.314 -0.1016 -0.1106 -0.2763
  162SOPE   H2R18124   6.022   2.647  10.357 -0.0280 -0.1951 -0.3559
  162SOPE   H2S18125   5.908   2.677  10.231  2.4125  2.3336  1.0920
  162SOPE    C318126   5.605   2.858  10.466  0.0357 -0.6740 -0.3002
  162SOPE    HX18127   5.637   2.953  10.418 -1.3358 -2.0987 -4.2471
  162SOPE    HY18128   5.522   2.883  10.535 -0.1392 -0.6940 -0.5038
  162SOPE   O3118129   5.560   2.772  10.363  0.4512 -0.1949 -0.0473
  162SOPE   C3118130   5.457   2.693  10.381 -0.0076 -0.4011  0.1784
  162SOPE   O3218131   5.398   2.679  10.485  0.6725  0.0273 -0.6965
  162SOPE   C3218132   5.442   2.623  10.249 -0.0106  0.1213  0.2550
  162SOPE   H2X18133   5.531   2.562  10.225 -1.0974 -0.2959 -2.9104
  162SOPE   H2Y18134   5.438   2.705  10.175 -0.0349  1.6709  1.9225
  162SOPE   C2318135   5.953   2.459  10.265 -0.2706 -0.0504 -0.5920
  162SOPE   H3R18136   5.931   2.391  10.350  0.6898  0.5361  0.1330
  162SOPE   H3S18137   6.055   2.447  10.224 -0.8263 -2.3280 -1.4012
  162SOPE   C2418138   5.844   2.429  10.158 -0.9872 -1.0508 -0.5753
  162SOPE   H4R18139   5.743   2.437  10.204 -1.0845  1.5546 -1.1675
  162SOPE   H4S18140   5.848   2.502  10.075 -2.2561 -0.2603  0.0400
  162SOPE   C2518141   5.864   2.285  10.109 -0.6548 -0.0656 -0.1996
  162SOPE   H5R18142   5.882   2.217  10.195 -4.5287  0.2838  0.9793
  162SOPE   H5S18143   5.764   2.244  10.081  0.6810 -2.1057 -2.1133
  162SOPE   C2618144   5.965   2.280   9.991  0.1311  1.0168  0.5997
  162SOPE   H6R18145   5.932   2.354   9.915  1.9411 -0.1979 -1.4381
  162SOPE   H6S18146   6.068   2.319  10.008 -0.8678  3.2731  1.6063
  162SOPE   C2718147   5.969   2.153   9.914 -0.2195  0.6182  0.3346
  162SOPE   H7R18148   5.871   2.107   9.887 -0.7042  1.1667  1.1211
  162SOPE   H7S18149   6.014   2.181   9.817 -0.8938  3.0296  0.6852
  162SOPE   C2818150   6.051   2.037   9.978 -0.3477  0.0964 -0.0669
  162SOPE   H8R18151   6.153   2.078   9.965 -1.1562  1.7185 -1.5477
  162SOPE   H8S18152   6.018   2.040  10.084  0.1933 -0.2825  0.1178
  162SOPE   C2918153   6.042   1.900   9.917 -0.4279  0.0467 -0.2267
  162SOPE   H9118154   5.976   1.835   9.976 -1.0656  0.6187 -0.2986
  162SOPE  C21018155   6.105   1.854   9.810  0.9489  0.3757 -0.7078
  162SOPE  H10118156   6.107   1.746   9.793 -0.7844  0.1104  0.7302
  162SOPE  C21118157   6.200   1.929   9.724 -0.0650 -0.1795  0.2676
  162SOPE  H11R18158   6.302   1.910   9.764  0.2319  3.0276  1.1473
  162SOPE  H11S18159   6.174   2.036   9.732 -0.2233 -0.0623 -1.6541
  162SOPE  C21218160   6.194   1.892   9.577 -0.1109 -0.6503  0.4479
  162SOPE  H12R18161   6.228   1.788   9.559  0.2803 -0.4858  0.2217
  162SOPE  H12S18162   6.276   1.956   9.538 -1.3703  3.1921  3.6715
  162SOPE  C21318163   6.064   1.923   9.507 -0.3457 -0.1576 -0.6225
  162SOPE  H13R18164   6.028   2.024   9.535 -2.5148 -0.5709 -1.7890
  162SOPE  H13S18165   5.984   1.850   9.534  0.6578 -0.8860  0.3985
  162SOPE  C21418166   6.077   1.928   9.355  0.0013 -0.3075  0.2809
  162SOPE  H14R18167   5.973   1.928   9.316 -0.1918  0.6126  0.7778
  162SOPE  H14S18168   6.127   1.835   9.319  3.8090  1.4196  0.8564
  162SOPE  C21518169   6.147   2.060   9.297  0.1654 -0.2081  1.0714
  162SOPE  H15R18170   6.244   2.062   9.352  0.3665  1.1808  0.6743
  162SOPE  H15S18171   6.092   2.153   9.321 -1.6077 -0.9657  0.0159
  162SOPE  C21618172   6.164   2.060   9.147 -0.1407  0.1209  0.7830
  162SOPE  H16R18173   6.060   2.060   9.108  0.0407 -1.8527  0.2656
  162SOPE  H16S18174   6.217   1.969   9.111  0.7189 -0.3869  3.2838
  162SOPE  C21718175   6.242   2.181   9.090  0.0503  0.1050  0.3406
  162SOPE  H17R18176   6.347   2.162   9.123 -0.5386 -1.0507  1.5875
  162SOPE  H17S18177   6.206   2.270   9.146 -0.5119 -0.1339  0.3614
  162SOPE  C21818178   6.235   2.201   8.944 -0.6185 -0.2653 -0.8640
  162SOPE  H18R18179   6.276   2.112   8.892 -3.5907 -1.9215 -0.4758
  162SOPE  H18S18180   6.309   2.280   8.919 -0.1836 -0.2038  0.5843
  162SOPE  H18T18181   6.130   2.220   8.912 -1.5075 -2.1753  0.8272
  162SOPE   C3318182   5.317   2.532  10.240  0.6860  0.3521  0.0022
  162SOPE   H3X18183   5.222   2.582  10.266 -0.2261 -1.6044  0.5736
  162SOPE   H3Y18184   5.322   2.447  10.312 -2.2889  0.2131  0.0849
  162SOPE   C3418185   5.297   2.478  10.094 -0.5777 -1.0941  0.2300
  162SOPE   H4X18186   5.289   2.562  10.021  1.4129 -2.0657 -1.1697
  162SOPE   H4Y18187   5.204   2.419  10.079 -0.2438 -1.2550 -1.3070
  162SOPE   C3518188   5.415   2.391  10.058 -0.6058 -0.9651  0.0529
  162SOPE   H5X18189   5.438   2.312  10.133 -0.0408 -2.0822 -1.2826
  162SOPE   H5Y18190   5.512   2.444  10.045 -0.5833 -0.8398  0.7286
  162SOPE   C3618191   5.393   2.317   9.925  0.3732  0.1328  0.4833
  162SOPE   H6X18192   5.292   2.271   9.924  0.6992 -0.6086  0.4931
  162SOPE   H6Y18193   5.463   2.230   9.916  0.5250  0.1483  1.4642
  162SOPE   C3718194   5.396   2.408   9.795  0.4197 -0.1824 -0.5993
  162SOPE   H7X18195   5.493   2.462   9.792 -0.6418  1.9306  1.2998
  162SOPE   H7Y18196   5.317   2.485   9.807 -1.1191 -1.8543  0.2940
  162SOPE   C3818197   5.390   2.328   9.665  0.6794  0.7941  0.4161
  162SOPE   H8X18198   5.296   2.269   9.662  0.3669  1.2719  0.6975
  162SOPE   H8Y18199   5.469   2.250   9.669 -0.2780 -0.1088  3.0445
  162SOPE   C3918200   5.389   2.421   9.543  0.1014 -0.2584  0.2405
  162SOPE   H9X18201   5.493   2.462   9.544 -0.6702  1.7437 -0.3965
  162SOPE   H9Y18202   5.318   2.505   9.559 -1.2679 -1.6819  1.8331
  162SOPE  C31018203   5.376   2.347   9.409 -0.1455 -0.4324  0.0248
  162SOPE  H10X18204   5.284   2.286   9.402  1.3206 -2.6911 -0.0430
  162SOPE  H10Y18205   5.464   2.279   9.404  0.4505  0.3045  0.2397
  162SOPE  C31118206   5.385   2.444   9.287 -0.2490  0.0146 -0.2857
  162SOPE  H11X18207   5.470   2.516   9.295  0.0205 -0.2778 -0.4948
  162SOPE  H11Y18208   5.292   2.503   9.279 -0.1612  0.1256 -0.4753
  162SOPE  C31218209   5.403   2.363   9.159 -0.5524 -0.3671 -0.1188
  162SOPE  H12X18210   5.305   2.311   9.156  0.1525 -1.8147  1.0083
  162SOPE  H12Y18211   5.491   2.296   9.170  0.8398  1.4744  0.2309
  162SOPE  C31318212   5.420   2.452   9.033 -0.4737 -0.0084 -0.0901
  162SOPE  H13X18213   5.516   2.507   9.037 -0.7055  0.4072 -0.1416
  162SOPE  H13Y18214   5.345   2.534   9.038 -0.3851  0.0889 -0.3517
  162SOPE  C31418215   5.422   2.389   8.890  0.6158 -0.0352  0.0096
  162SOPE  H14X18216   5.316   2.374   8.859 -0.1045 -0.7155  2.6620
  162SOPE  H14Y18217   5.466   2.287   8.891 -1.1088 -0.8090  1.9685
  162SOPE  C31518218   5.495   2.480   8.791  0.0790 -0.2742  0.3001
  162SOPE  H15X18219   5.605   2.494   8.801 -0.3764  3.8601  0.3801
  162SOPE  H15Y18220   5.448   2.580   8.798  1.4597  0.2767  2.0279
  162SOPE  C31618221   5.477   2.435   8.641  0.5420 -0.5630 -0.1862
  162SOPE  H16X18222   5.368   2.435   8.618  0.3234  2.3415  0.7009
  162SOPE  H16Y18223   5.526   2.337   8.622  0.3350 -0.9079  1.0531
  162SOPE  C31718224   5.520   2.535   8.541  0.1170  0.6752  0.3144
  162SOPE  H17X18225   5.624   2.556   8.573 -0.0110 -0.3649  1.4606
  162SOPE  H17Y18226   5.463   2.624   8.574 -0.9554 -0.0381  0.4172
  162SOPE  C31818227   5.509   2.517   8.390  0.2086  0.5539 -0.4280
  162SOPE  H18X18228   5.542   2.416   8.356  0.5271  0.3404  0.4889
  162SOPE  H18Y18229   5.575   2.590   8.340  0.0761  2.0350  1.5062
  162SOPE  H18Z18230   5.404   2.545   8.367 -0.4349  0.2071  1.9088
  163SOPE     N18231   5.179   0.065  11.007 -0.5404  0.8168 -0.2128
  163SOPE   HN118232   5.250  -0.009  10.987 -2.0774 -0.1945 -2.0706
  163SOPE   HN218233   5.204   0.133  11.082 -0.0818 -1.7662  2.0644
  163SOPE   HN318234   5.087   0.020  11.027 -0.2519  0.3813  0.1383
  163SOPE   C1218235   5.172   0.134  10.871  0.0055  0.5936 -0.3450
  163SOPE  H12A18236   5.081   0.196  10.877  0.4025  1.0792  0.7754
  163SOPE  H12B18237   5.170   0.049  10.800 -1.1516  0.0829  0.3083
  163SOPE   C1118238   5.286   0.230  10.850 -0.5892 -0.2976  0.5112
  163SOPE  H11A18239   5.269   0.328  10.898 -0.4319 -0.4659  0.9135
  163SOPE  H11B18240   5.275   0.251  10.741 -0.8366 -0.4332  0.5101
  163SOPE     P18241   5.536   0.252  10.879  0.1642  0.3003 -0.4572
  163SOPE   O1318242   5.625   0.195  10.987 -0.6529 -0.1541 -0.4366
  163SOPE   O1418243   5.496   0.397  10.883  0.0964  0.3390  0.2510
  163SOPE   O1218244   5.416   0.161  10.878  0.1035  0.1108  0.1034
  163SOPE   O1118245   5.607   0.233  10.740 -0.8398 -0.2773 -0.4652
  163SOPE    C118246   5.540   0.211  10.619  0.1234  0.4566  0.2575
  163SOPE    HA18247   5.491   0.304  10.582  0.7478  0.4377 -0.6384
  163SOPE    HB18248   5.451   0.146  10.625  0.0012  0.1429 -3.6488
  163SOPE    C218249   5.643   0.146  10.519  0.7832  0.0263 -0.5554
  163SOPE    HS18250   5.739   0.203  10.513  1.8838 -1.6126  1.1710
  163SOPE   O2118251   5.577   0.126  10.389 -0.1056 -0.1771  0.5052
  163SOPE   C2118252   5.663   0.114  10.289 -0.6598  0.1484  0.1387
  163SOPE   O2218253   5.784   0.147  10.292  0.0928  0.1140  0.2737
  163SOPE   C2218254   5.585   0.064  10.166 -0.2862  0.2754  0.1052
  163SOPE   H2R18255   5.492   0.125  10.155 -0.6700 -0.6837 -2.3021
  163SOPE   H2S18256   5.557  -0.038  10.197 -0.4435  0.5915  0.9994
  163SOPE    C318257   5.683   0.005  10.572  0.5725 -0.1503 -0.1472
  163SOPE    HX18258   5.589  -0.055  10.580  1.3392 -1.4037 -0.4016
  163SOPE    HY18259   5.717   0.023  10.677  1.1217  2.3665 -0.7354
  163SOPE   O3118260   5.790  -0.070  10.505 -0.0200  0.2862 -0.1298
  163SOPE   C3118261   5.761  -0.168  10.425 -0.3564  0.3361 -0.3085
  163SOPE   O3218262   5.651  -0.204  10.400  0.7803 -0.9022  0.0120
  163SOPE   C3218263   5.879  -0.228  10.369 -0.5550 -0.4713 -0.9232
  163SOPE   H2X18264   5.888  -0.339  10.379  0.9604 -0.4053 -1.3252
  163SOPE   H2Y18265   5.960  -0.181  10.428 -0.1330  2.2954 -3.5872
  163SOPE   C2318266   5.665   0.062  10.033 -0.8599  0.6047  0.0848
  163SOPE   H3R18267   5.764   0.020  10.061 -2.0949 -2.5972 -0.1902
  163SOPE   H3S18268   5.676   0.169  10.007 -0.5848  1.2267  2.6338
  163SOPE   C2418269   5.593  -0.011   9.923  0.2829 -0.1715  0.2729
  163SOPE   H4R18270   5.597  -0.121   9.940  1.6747  0.2756  3.1588
  163SOPE   H4S18271   5.485   0.012   9.914  0.2289 -1.0868 -1.9241
  163SOPE   C2518272   5.655   0.007   9.780  0.6608  0.5372 -0.1795
  163SOPE   H5R18273   5.681   0.113   9.760  0.4404  0.0655 -3.1273
  163SOPE   H5S18274   5.755  -0.038   9.796 -0.4830 -2.3137 -0.9189
  163SOPE   C2618275   5.576  -0.050   9.663 -0.0460  0.1197  0.4149
  163SOPE   H6R18276   5.542  -0.154   9.682 -0.9511  0.5274  1.0771
  163SOPE   H6S18277   5.484   0.008   9.644  0.8299  1.5654  0.5415
  163SOPE   C2718278   5.661  -0.047   9.535  0.3424  0.8101  0.3096
  163SOPE   H7R18279   5.710   0.051   9.515  1.5467  0.1545 -0.0589
  163SOPE   H7S18280   5.748  -0.114   9.551  0.9878  1.5222 -0.1467
  163SOPE   C2818281   5.580  -0.091   9.414  0.3078 -0.0719 -0.2315
  163SOPE   H8R18282   5.546  -0.197   9.423 -0.4123  0.2745  1.2316
  163SOPE   H8S18283   5.488  -0.028   9.411 -0.2168 -0.7484  1.3644
  163SOPE   C2918284   5.657  -0.086   9.272  0.6235 -0.1718  0.3012
  163SOPE   H9118285   5.752  -0.032   9.275  0.3461  0.2202  2.0761
  163SOPE  C21018286   5.608  -0.134   9.152 -1.0648 -0.1991 -0.1042
  163SOPE  H10118287   5.669  -0.135   9.060 -3.0830 -0.5964 -1.4627
  163SOPE  C21118288   5.469  -0.202   9.141 -0.2013  0.0564  0.6450
  163SOPE  H11R18289   5.400  -0.165   9.221 -2.8490 -0.0380 -1.5139
  163SOPE  H11S18290   5.487  -0.311   9.153  1.4108  0.1961 -0.3636
  163SOPE  C21218291   5.402  -0.164   9.006 -0.8464  0.0945 -0.0993
  163SOPE  H12R18292   5.298  -0.200   9.017 -0.7245 -0.4176 -0.5618
  163SOPE  H12S18293   5.438  -0.227   8.921  0.6471 -2.7599  2.5607
  163SOPE  C21318294   5.394  -0.020   8.969 -0.1339 -0.2107 -0.3659
  163SOPE  H13R18295   5.492   0.008   8.926  0.4301 -0.4240  0.7576
  163SOPE  H13S18296   5.377   0.041   9.060 -1.3666 -3.0784  1.3967
  163SOPE  C21418297   5.279   0.001   8.876  0.4231  0.4668  0.0895
  163SOPE  H14R18298   5.189   0.009   8.940 -0.6275  0.3503 -1.3725
  163SOPE  H14S18299   5.269  -0.087   8.809  0.2842 -1.2772  2.3426
  163SOPE  C21518300   5.279   0.132   8.793 -0.0972 -0.4059 -0.1709
  163SOPE  H15R18301   5.190   0.123   8.727  1.7319 -2.0195 -2.4728
  163SOPE  H15S18302   5.367   0.127   8.726 -0.4401  0.0944 -0.6663
  163SOPE  C21618303   5.273   0.267   8.884  0.1317  0.3697  0.7512
  163SOPE  H16R18304   5.370   0.290   8.934  0.8511  1.6483 -1.1459
  163SOPE  H16S18305   5.187   0.247   8.951  0.8361 -1.1072  1.2377
  163SOPE  C21718306   5.241   0.403   8.809 -0.2440 -0.2190 -0.0179
  163SOPE  H17R18307   5.225   0.468   8.897  0.5274 -1.3824  0.9983
  163SOPE  H17S18308   5.142   0.383   8.761 -0.5222 -0.6525  0.7234
  163SOPE  C21818309   5.339   0.460   8.706  0.4534  0.2095  1.1801
  163SOPE  H18R18310   5.334   0.569   8.686  2.8684  0.0683 -0.4586
  163SOPE  H18S18311   5.332   0.404   8.610 -0.3704  0.7210  0.9445
  163SOPE  H18T18312   5.441   0.448   8.750 -0.1182 -1.6205  2.0593
  163SOPE   C3318313   5.920  -0.196  10.218  0.2294  0.1561 -0.0584
  163SOPE   H3X18314   6.024  -0.224  10.190  0.1530 -0.1106 -0.0705
  163SOPE   H3Y18315   5.920  -0.085  10.206 -0.8617  0.2814  1.0404
  163SOPE   C3418316   5.826  -0.268  10.126 -0.2976  0.9258 -0.3986
  163SOPE   H4X18317   5.721  -0.235  10.142 -0.9116 -2.0768  2.1820
  163SOPE   H4Y18318   5.829  -0.377  10.146 -1.4171  0.7008 -1.4443
  163SOPE   C3518319   5.884  -0.257   9.981  0.0277 -0.0717 -0.4745
  163SOPE   H5X18320   5.986  -0.300   9.971  0.1835  0.4573 -1.2069
  163SOPE   H5Y18321   5.879  -0.150   9.952  0.6089 -0.0708 -0.5858
  163SOPE   C3618322   5.796  -0.331   9.873 -0.0138 -0.1829 -0.3379
  163SOPE   H6X18323   5.699  -0.278   9.870 -1.0937 -2.0642  0.3319
  163SOPE   H6Y18324   5.777  -0.433   9.913  0.8760  0.4006  1.6742
  163SOPE   C3718325   5.877  -0.346   9.744 -0.2415  0.5999  0.3098
  163SOPE   H7X18326   5.970  -0.402   9.769 -0.5445 -0.3945 -0.7195
  163SOPE   H7Y18327   5.905  -0.246   9.704  1.1731  0.4082  0.7860
  163SOPE   C3818328   5.803  -0.420   9.627 -0.8028  0.0251 -0.0082
  163SOPE   H8X18329   5.695  -0.394   9.626 -0.5507  1.0656 -1.0903
  163SOPE   H8Y18330   5.819  -0.528   9.648 -1.6531 -0.3022 -0.9724
  163SOPE   C3918331   5.865  -0.393   9.497 -0.2581 -0.4680 -0.4530
  163SOPE   H9X18332   5.974  -0.415   9.489 -0.1673 -0.1434 -0.1317
  163SOPE   H9Y18333   5.860  -0.285   9.472  2.9287 -0.4328 -1.1993
  163SOPE  C31018334   5.805  -0.476   9.387  0.3406 -0.0479  0.4146
  163SOPE  H10X18335   5.699  -0.448   9.367  0.1640 -1.0973 -0.1399
  163SOPE  H10Y18336   5.821  -0.584   9.406 -3.1572 -0.8687 -0.9709
  163SOPE  C31118337   5.869  -0.465   9.248  0.0699  0.6051 -0.1268
  163SOPE  H11X18338   5.977  -0.484   9.265 -0.3736 -2.4064 -0.4373
  163SOPE  H11Y18339   5.874  -0.359   9.215  2.2740  1.2131  2.0003
  163SOPE  C31218340   5.800  -0.553   9.143  0.1321 -0.2306 -0.1787
  163SOPE  H12X18341   5.695  -0.516   9.133  0.8206  1.7115 -0.3948
  163SOPE  H12Y18342   5.794  -0.660   9.173 -0.5573 -0.4934 -1.2240
  163SOPE  C31318343   5.861  -0.556   8.999  0.0219 -0.7114 -0.4224
  163SOPE  H13X18344   5.943  -0.630   9.013  0.3118 -0.2059  0.6508
  163SOPE  H13Y18345   5.904  -0.458   8.968 -1.0915  0.6779  2.2761
  163SOPE  C31418346   5.750  -0.593   8.894 -0.2587  0.4835 -0.6063
  163SOPE  H14X18347   5.672  -0.514   8.901 -0.3756  0.3036  0.1483
  163SOPE  H14Y18348   5.702  -0.692   8.910  1.1867 -0.1877 -0.3380
  163SOPE  C31518349   5.816  -0.598   8.756  0.1549  0.0181  0.7135
  163SOPE  H15X18350   5.900  -0.670   8.751  0.9935  1.1331 -3.2192
  163SOPE  H15Y18351   5.856  -0.496   8.738  2.1413 -0.9428 -0.4085
  163SOPE  C31618352   5.712  -0.616   8.640 -0.4393  0.2414 -0.4211
  163SOPE  H16X18353   5.634  -0.538   8.653 -0.4142  0.5087 -1.7904
  163SOPE  H16Y18354   5.671  -0.719   8.643  1.0679 -0.3602  0.2180
  163SOPE  C31718355   5.766  -0.581   8.505  0.8510  0.3455  0.4649
  163SOPE  H17X18356   5.854  -0.648   8.494  2.0303  2.0153 -0.4266
  163SOPE  H17Y18357   5.813  -0.482   8.487 -0.2609  1.0168  1.2008
  163SOPE  C31818358   5.666  -0.609   8.386  0.6276 -0.0649 -0.2845
  163SOPE  H18X18359   5.608  -0.702   8.403  1.4444 -0.6940 -0.9274
  163SOPE  H18Y18360   5.715  -0.625   8.287  0.5145  1.9583 -0.7004
  163SOPE  H18Z18361   5.582  -0.536   8.381  1.2823  0.7896  0.9031
  164SOPE     N18362   1.660   5.571  10.671 -0.4604 -0.1917 -0.0528
  164SOPE   HN118363   1.608   5.658  10.651 -1.1308 -0.3770  0.8420
  164SOPE   HN218364   1.597   5.503  10.718 -1.0205  1.0781  1.0579
  164SOPE   HN318365   1.722   5.595  10.751  0.1099  0.1247 -0.5823
  164SOPE   C1218366   1.732   5.538  10.544 -0.2165  0.2024  0.9736
  164SOPE  H12A18367   1.653   5.523  10.466  3.0063 -0.5230 -2.2757
  164SOPE  H12B18368   1.793   5.447  10.562  0.5183  0.1615 -1.4841
  164SOPE   C1118369   1.827   5.647  10.500  0.3398 -0.0816  0.2850
  164SOPE  H11A18370   1.769   5.737  10.471  0.0762 -0.1690  0.5488
  164SOPE  H11B18371   1.886   5.622  10.409  0.3602 -2.0075  0.8101
  164SOPE     P18372   2.042   5.602  10.656  0.0186 -0.1899 -0.1115
  164SOPE   O1318373   2.002   5.473  10.718  0.2641 -0.3571 -0.0785
  164SOPE   O1418374   2.122   5.700  10.739  0.1839 -0.4648 -0.1874
  164SOPE   O1218375   1.912   5.681  10.609 -0.1231  0.0933  0.0680
  164SOPE   O1118376   2.122   5.571  10.530  0.4142 -0.1176  0.6008
  164SOPE    C118377   2.207   5.669  10.477 -0.4487 -0.0196  0.3040
  164SOPE    HA18378   2.286   5.702  10.548  0.1469  0.5177 -0.6074
  164SOPE    HB18379   2.152   5.760  10.445  0.0220 -0.0382 -0.5673
  164SOPE    C218380   2.281   5.620  10.351 -0.1056  0.3302  1.5842
  164SOPE    HS18381   2.360   5.547  10.381  0.2731 -0.2272 -0.6318
  164SOPE   O2118382   2.336   5.731  10.285  0.4034  0.0544 -0.4896
  164SOPE   C2118383   2.434   5.697  10.201 -0.3917 -0.8794  0.3604
  164SOPE   O2218384   2.488   5.591  10.197  0.4342  0.1217  0.0136
  164SOPE   C2218385   2.458   5.818  10.105 -0.8328 -0.2256 -0.3670
  164SOPE   H2R18386   2.544   5.870  10.154  0.0472 -0.2307 -1.8702
  164SOPE   H2S18387   2.370   5.884  10.115 -0.3381  0.1568  1.5620
  164SOPE    C318388   2.170   5.545  10.264  0.8239  0.0089  0.2290
  164SOPE    HX18389   2.090   5.619  10.241  1.4127  0.4767 -0.3331
  164SOPE    HY18390   2.136   5.463  10.331  0.9954  0.3213  0.7047
  164SOPE   O3118391   2.215   5.497  10.140 -0.5241 -0.1338  0.8442
  164SOPE   C3118392   2.259   5.368  10.136  0.1096 -0.4990 -0.0119
  164SOPE   O3218393   2.267   5.295  10.233  0.5345  0.0044  0.0562
  164SOPE   C3218394   2.279   5.320   9.994  0.4369 -0.1776 -0.3512
  164SOPE   H2X18395   2.227   5.388   9.923  1.6380  2.4861  1.2389
  164SOPE   H2Y18396   2.233   5.222   9.969 -2.1829  1.2381 -1.2551
  164SOPE   C2318397   2.493   5.775   9.965  1.0107  0.4163  0.8299
  164SOPE   H3R18398   2.399   5.726   9.931  2.3297 -2.1838  0.8144
  164SOPE   H3S18399   2.571   5.697   9.960 -0.0708 -0.6366  0.2547
  164SOPE   C2418400   2.529   5.889   9.872 -0.3216 -0.2592 -0.3535
  164SOPE   H4R18401   2.461   5.973   9.898 -0.6145 -1.0586  1.5875
  164SOPE   H4S18402   2.629   5.925   9.904 -0.2215 -0.9434  0.1246
  164SOPE   C2518403   2.515   5.870   9.725  0.3896 -0.2751  0.3707
  164SOPE   H5R18404   2.409   5.842   9.708  0.6030 -0.3982 -0.8095
  164SOPE   H5S18405   2.530   5.973   9.686 -3.1491 -0.4792 -1.7256
  164SOPE   C2618406   2.629   5.783   9.679 -0.4953  0.5728  0.2419
  164SOPE   H6R18407   2.728   5.831   9.696 -0.3982  0.6314 -0.4671
  164SOPE   H6S18408   2.640   5.688   9.737  3.6847  0.5460 -0.4030
  164SOPE   C2718409   2.616   5.771   9.528 -0.1115  0.3515  0.1220
  164SOPE   H7R18410   2.519   5.731   9.491 -0.2583  1.9611 -1.3113
  164SOPE   H7S18411   2.627   5.875   9.492 -1.1258  0.7212  0.8523
  164SOPE   C2818412   2.743   5.694   9.473  0.4971 -0.4046 -0.4121
  164SOPE   H8R18413   2.818   5.775   9.474 -1.4505  1.4523  2.5808
  164SOPE   H8S18414   2.770   5.607   9.536  1.9818  0.7239  0.5363
  164SOPE   C2918415   2.719   5.626   9.337  0.5498  0.2532 -0.3907
  164SOPE   H9118416   2.717   5.517   9.326 -1.4859  0.2253  0.0994
  164SOPE  C21018417   2.731   5.692   9.218  0.4229  0.2121  0.2554
  164SOPE  H10118418   2.719   5.633   9.126  0.3735  2.0238 -0.9493
  164SOPE  C21118419   2.765   5.837   9.191 -0.1847 -0.0771  0.6281
  164SOPE  H11R18420   2.767   5.895   9.286 -4.3168  1.4987 -0.1401
  164SOPE  H11S18421   2.691   5.884   9.123 -0.2714 -0.5620  0.3919
  164SOPE  C21218422   2.897   5.850   9.100  0.4274 -0.4901 -0.8316
  164SOPE  H12R18423   2.976   5.798   9.158 -0.0012  0.1637  0.3554
  164SOPE  H12S18424   2.909   5.960   9.108  0.1611 -0.6352  1.7923
  164SOPE  C21318425   2.871   5.798   8.954  0.1935  0.9304 -0.3199
  164SOPE  H13R18426   2.774   5.838   8.918 -0.9759 -0.7337  0.8411
  164SOPE  H13S18427   2.860   5.687   8.958 -1.2512  1.0980  0.7740
  164SOPE  C21418428   2.987   5.862   8.871 -0.2912  0.3763  0.0132
  164SOPE  H14R18429   2.983   5.810   8.773 -0.6040  1.0049 -0.3115
  164SOPE  H14S18430   3.091   5.859   8.909 -0.2582  0.3960 -0.0737
  164SOPE  C21518431   2.961   6.015   8.842  0.4774  0.1279 -0.3152
  164SOPE  H15R18432   2.989   6.064   8.937  0.9143 -2.4305  0.9078
  164SOPE  H15S18433   2.851   6.022   8.839  0.2003 -0.6475  4.9213
  164SOPE  C21618434   3.038   6.074   8.721 -0.0032  0.6016  0.0660
  164SOPE  H16R18435   3.146   6.050   8.735  0.1968 -0.7046 -3.2793
  164SOPE  H16S18436   3.034   6.184   8.710 -1.2431  0.6614  1.0090
  164SOPE  C21718437   3.004   6.013   8.589  0.1281  0.0617  0.4811
  164SOPE  H17R18438   3.028   5.906   8.606  1.2352  0.4201  1.2502
  164SOPE  H17S18439   3.074   6.046   8.509 -0.6954  1.9633  0.5202
  164SOPE  C21818440   2.857   6.037   8.546 -0.0692 -0.1653 -0.1225
  164SOPE  H18R18441   2.844   6.142   8.513  3.4985  0.1890 -0.5575
  164SOPE  H18S18442   2.792   6.019   8.634 -0.9436  2.1322 -0.2645
  164SOPE  H18T18443   2.823   5.963   8.471  1.5758 -1.0291 -0.0400
  164SOPE   C3318444   2.422   5.349   9.948 -0.3687 -0.7480 -0.3993
  164SOPE   H3X18445   2.497   5.281   9.993  1.3115  0.7768 -0.8246
  164SOPE   H3Y18446   2.457   5.451   9.977 -1.0744  0.1078 -2.4557
  164SOPE   C3418447   2.442   5.353   9.796 -0.1664 -0.5802  0.8068
  164SOPE   H4X18448   2.547   5.384   9.775 -0.8336  0.0575 -1.7643
  164SOPE   H4Y18449   2.373   5.423   9.745 -0.2323 -0.7805  0.6169
  164SOPE   C3518450   2.414   5.215   9.736  0.0337  0.4324 -0.4182
  164SOPE   H5X18451   2.307   5.186   9.743  0.5905 -1.9292 -1.2023
  164SOPE   H5Y18452   2.482   5.141   9.783 -0.0521  1.0673  0.7248
  164SOPE   C3618453   2.426   5.220   9.581 -0.2839 -0.0053 -0.3854
  164SOPE   H6X18454   2.431   5.117   9.539  2.7254 -0.0177 -0.1627
  164SOPE   H6Y18455   2.522   5.263   9.544 -0.8992  2.2980  0.6590
  164SOPE   C3718456   2.300   5.289   9.512 -0.0208 -0.4828 -0.9445
  164SOPE   H7X18457   2.301   5.396   9.541 -0.2178 -0.7860  0.1708
  164SOPE   H7Y18458   2.206   5.249   9.556 -0.7159  0.8675 -1.1760
  164SOPE   C3818459   2.309   5.289   9.360 -0.0139  0.0315 -0.6527
  164SOPE   H8X18460   2.214   5.319   9.312  0.0607 -1.6013 -1.8397
  164SOPE   H8Y18461   2.341   5.194   9.312  2.5773  1.3977 -1.7211
  164SOPE   C3918462   2.424   5.368   9.302 -0.4868  0.0798  0.1896
  164SOPE   H9X18463   2.521   5.320   9.326 -0.8252 -1.1524 -0.8423
  164SOPE   H9Y18464   2.426   5.475   9.334 -0.4846 -0.2320  1.2678
  164SOPE  C31018465   2.398   5.371   9.147  0.0013  0.1082  0.1829
  164SOPE  H10X18466   2.495   5.396   9.098 -0.3256  1.8707  0.3893
  164SOPE  H10Y18467   2.320   5.447   9.127 -0.8944 -0.0597  2.8103
  164SOPE  C31118468   2.359   5.238   9.069 -0.7997 -0.3966 -0.2240
  164SOPE  H11X18469   2.266   5.210   9.122  0.3691 -2.9257  0.5726
  164SOPE  H11Y18470   2.442   5.164   9.077 -0.1208  0.4150  0.2809
  164SOPE  C31218471   2.327   5.259   8.925 -0.1918 -0.3205 -0.8065
  164SOPE  H12X18472   2.366   5.169   8.873  1.0838 -0.1505 -0.1719
  164SOPE  H12Y18473   2.377   5.349   8.882  0.2736 -0.2420 -0.1063
  164SOPE  C31318474   2.177   5.268   8.903  0.6829 -0.6199  0.0765
  164SOPE  H13X18475   2.138   5.371   8.919 -0.9629 -1.2251  0.0458
  164SOPE  H13Y18476   2.118   5.199   8.966  0.5254 -0.9731 -0.4550
  164SOPE  C31418477   2.145   5.236   8.760  0.6838  0.0725  0.1781
  164SOPE  H14X18478   2.173   5.130   8.740  0.3159 -0.3050  1.5980
  164SOPE  H14Y18479   2.200   5.302   8.689  1.1324 -1.9918 -1.4366
  164SOPE  C31518480   1.991   5.253   8.723  0.0141  0.3318  0.4613
  164SOPE  H15X18481   1.960   5.353   8.761  0.6458  0.2810  1.1396
  164SOPE  H15Y18482   1.923   5.186   8.781  0.4896 -0.6504 -0.1155
  164SOPE  C31618483   1.958   5.243   8.573 -0.3076  0.3721  0.1930
  164SOPE  H16X18484   2.016   5.315   8.512 -0.9179  0.5762 -0.1456
  164SOPE  H16Y18485   1.850   5.269   8.567 -0.2711  0.6485  0.7269
  164SOPE  C31718486   1.974   5.100   8.508 -0.2001 -0.4329  0.7980
  164SOPE  H17X18487   1.911   5.036   8.573  0.3416 -0.9516  0.8158
  164SOPE  H17Y18488   2.079   5.066   8.515  0.1829  0.5290 -0.1105
  164SOPE  C31818489   1.917   5.090   8.358  0.1923  0.1336  0.0615
  164SOPE  H18X18490   1.970   5.153   8.284 -0.1018  0.7053  0.3284
  164SOPE  H18Y18491   1.812   5.128   8.364  0.0956 -0.1464  0.1584
  164SOPE  H18Z18492   1.902   4.986   8.323 -1.0459 -0.3815  2.0380
  165SOPE     N18493   0.271   5.678  10.884  0.0611 -0.4108  0.4897
  165SOPE   HN118494   0.241   5.758  10.944  1.1552 -0.0254  0.5388
  165SOPE   HN218495   0.330   5.718  10.808  1.5696  1.0816  2.3787
  165SOPE   HN318496   0.185   5.628  10.853 -0.0003  0.6711 -1.1493
  165SOPE   C1218497   0.358   5.588  10.971 -0.2017 -0.8484 -0.0313
  165SOPE  H12A18498   0.417   5.522  10.904 -0.2669  1.2207 -2.2146
  165SOPE  H12B18499   0.289   5.530  11.035 -3.2067  0.4573 -1.9770
  165SOPE   C1118500   0.463   5.670  11.056  0.8141  0.0386 -0.1493
  165SOPE  H11A18501   0.524   5.587  11.098  1.6787  0.4861 -0.4971
  165SOPE  H11B18502   0.412   5.733  11.131 -1.8688 -0.9385 -1.0682
  165SOPE     P18503   0.663   5.832  11.020 -0.2448 -0.1023  0.4155
  165SOPE   O1318504   0.788   5.748  11.000  0.1511  0.2737  0.4230
  165SOPE   O1418505   0.628   5.858  11.162 -0.5646 -0.1232 -0.0579
  165SOPE   O1218506   0.536   5.751  10.965 -0.4063 -0.4016  0.0273
  165SOPE   O1118507   0.665   5.973  10.948  0.2142  0.6308  1.2538
  165SOPE    C118508   0.586   6.004  10.831  0.0819  0.1972  0.1936
  165SOPE    HA18509   0.506   6.078  10.853  0.7956  1.0469 -0.0039
  165SOPE    HB18510   0.530   5.916  10.794 -1.0522  0.3432  1.5170
  165SOPE    C218511   0.664   6.063  10.709 -0.5583  0.5760  0.5667
  165SOPE    HS18512   0.697   6.168  10.704  0.3771  0.2518 -0.1053
  165SOPE   O2118513   0.614   6.023  10.581 -0.0162 -0.2910 -0.0772
  165SOPE   C2118514   0.498   6.074  10.550  0.9316  0.1377 -0.3970
  165SOPE   O2218515   0.436   6.154  10.617  0.3022 -0.6819  0.2367
  165SOPE   C2218516   0.447   6.004  10.431 -0.1440  0.1439 -0.0467
  165SOPE   H2R18517   0.509   5.916  10.404  1.7343  1.4541 -0.1225
  165SOPE   H2S18518   0.450   6.078  10.349  3.0254  0.4514  0.2711
  165SOPE    C318519   0.804   6.004  10.718  0.0861  0.3880  0.3104
  165SOPE    HX18520   0.800   5.893  10.712  1.6532  0.3287  0.0810
  165SOPE    HY18521   0.849   6.030  10.817 -0.7578 -0.5056  0.9402
  165SOPE   O3118522   0.897   6.052  10.620 -0.0857  0.4953 -0.2305
  165SOPE   C3118523   0.918   5.977  10.510  0.5856  0.0152 -1.0318
  165SOPE   O3218524   0.893   5.860  10.494 -0.2061 -0.2346  0.0842
  165SOPE   C3218525   0.997   6.055  10.405 -0.8511 -0.0693 -0.1649
  165SOPE   H2X18526   1.097   6.007  10.396 -0.2699  0.9503  0.7315
  165SOPE   H2Y18527   1.012   6.160  10.440 -0.9984  0.5991 -2.0313
  165SOPE   C2318528   0.290   5.971  10.442  0.1720  0.1374 -0.0091
  165SOPE   H3R18529   0.232   6.064  10.458  0.9111  0.8842 -1.5329
  165SOPE   H3S18530   0.282   5.894  10.522  0.4573 -2.2805 -2.2198
  165SOPE   C2418531   0.247   5.899  10.313 -0.5467 -0.6623  0.4619
  165SOPE   H4R18532   0.321   5.824  10.279  0.7045  0.6374  0.2627
  165SOPE   H4S18533   0.160   5.835  10.339 -0.7537 -0.9558 -0.8888
  165SOPE   C2518534   0.211   5.992  10.194  0.1989  0.4786  0.0127
  165SOPE   H5R18535   0.113   6.036  10.223  0.8743  0.3851  2.5999
  165SOPE   H5S18536   0.277   6.080  10.181 -0.1978  0.6347 -0.9453
  165SOPE   C2618537   0.209   5.923  10.051 -0.5477 -0.0450  0.0546
  165SOPE   H6R18538   0.300   5.861  10.040 -1.1474 -1.3039  2.0697
  165SOPE   H6S18539   0.112   5.869  10.053 -0.2846 -0.7279 -3.2172
  165SOPE   C2718540   0.205   6.026   9.940  0.4116  0.0734  0.7497
  165SOPE   H7R18541   0.118   6.094   9.951 -0.4305 -0.7566 -0.6925
  165SOPE   H7S18542   0.284   6.101   9.961  0.7740 -0.0388 -0.1748
  165SOPE   C2818543   0.205   5.967   9.801 -0.4937 -0.0553 -0.4525
  165SOPE   H8R18544   0.249   6.041   9.730 -0.0075  1.8386  1.7538
  165SOPE   H8S18545   0.273   5.879   9.804 -0.5583 -0.0566  1.5325
  165SOPE   C2918546   0.069   5.914   9.766  0.5127  0.5157  0.5496
  165SOPE   H9118547   0.035   5.829   9.827  1.4501 -1.7982 -2.0693
  165SOPE  C21018548  -0.011   5.960   9.672 -0.9681 -0.7016  0.6421
  165SOPE  H10118549  -0.108   5.912   9.652 -1.5205  0.7312 -0.1975
  165SOPE  C21118550   0.017   6.083   9.583 -0.2515 -0.4933 -0.5021
  165SOPE  H11R18551   0.110   6.138   9.610 -1.6032  1.7530 -0.3242
  165SOPE  H11S18552  -0.066   6.153   9.605 -1.1913 -2.1284  1.3400
  165SOPE  C21218553   0.025   6.056   9.433 -0.5757  0.3116 -0.1445
  165SOPE  H12R18554  -0.071   6.016   9.393 -0.1923 -1.4257  0.5940
  165SOPE  H12S18555   0.106   5.981   9.425 -0.5636  0.3850 -0.7227
  165SOPE  C21318556   0.069   6.180   9.356  0.3276 -0.4259  0.7901
  165SOPE  H13R18557   0.178   6.195   9.371  0.6377 -2.0572  0.2710
  165SOPE  H13S18558   0.025   6.267   9.409 -0.5098  1.4755 -2.8704
  165SOPE  C21418559   0.039   6.183   9.202 -0.8183  0.4314 -0.1865
  165SOPE  H14R18560  -0.064   6.146   9.182 -0.0101 -2.2607  0.3973
  165SOPE  H14S18561   0.105   6.102   9.165 -0.3848  0.3110  0.8291
  165SOPE  C21518562   0.072   6.313   9.126 -0.1093  0.4096  0.2147
  165SOPE  H15R18563   0.177   6.345   9.137 -0.3723  1.1003  0.7155
  165SOPE  H15S18564   0.015   6.400   9.165 -1.6117 -1.0688  1.3730
  165SOPE  C21618565   0.041   6.303   8.983  0.0806  0.3692  0.0292
  165SOPE  H16R18566   0.095   6.209   8.956  2.2024  2.0907 -2.0020
  165SOPE  H16S18567   0.083   6.384   8.920 -2.6337  0.6025 -1.5654
  165SOPE  C21718568  -0.106   6.289   8.926 -0.2643 -0.3255 -0.1634
  165SOPE  H17R18569  -0.173   6.375   8.950 -1.0842 -0.7798 -0.8260
  165SOPE  H17S18570  -0.144   6.191   8.961 -0.5603  0.0866  0.6715
  165SOPE  C21818571  -0.117   6.266   8.778  0.1965 -0.3332  0.6789
  165SOPE  H18R18572  -0.218   6.228   8.749  0.1223 -0.8886  1.6491
  165SOPE  H18S18573  -0.052   6.181   8.750 -0.7982 -0.9267  0.1259
  165SOPE  H18T18574  -0.097   6.349   8.707  1.8108 -2.3213 -1.2619
  165SOPE   C3318575   0.930   6.043  10.265  0.8883  1.3938  0.6939
  165SOPE   H3X18576   0.886   5.944  10.241  1.9909  1.0421  0.1347
  165SOPE   H3Y18577   1.010   6.067  10.192  2.5495 -2.6746  1.0177
  165SOPE   C3418578   0.808   6.142  10.255 -0.3082  0.4812 -0.0877
  165SOPE   H4X18579   0.848   6.242  10.285 -0.0155  0.2276  0.3729
  165SOPE   H4Y18580   0.727   6.112  10.324 -1.0385 -0.3034 -1.2717
  165SOPE   C3518581   0.752   6.132  10.111 -0.2298  1.0947  0.3604
  165SOPE   H5X18582   0.725   6.025  10.098 -2.2433  1.7697 -1.1136
  165SOPE   H5Y18583   0.832   6.167  10.042 -0.9984 -0.8174 -1.5589
  165SOPE   C3618584   0.633   6.218  10.080  0.2607 -0.3756 -0.5295
  165SOPE   H6X18585   0.656   6.326  10.091 -0.2672 -0.0349 -2.4961
  165SOPE   H6Y18586   0.550   6.187  10.147 -0.1408  0.9287 -0.4074
  165SOPE   C3718587   0.596   6.195   9.928  0.1229  0.3363 -0.5391
  165SOPE   H7X18588   0.491   6.222   9.907  0.4548  2.0319 -0.0444
  165SOPE   H7Y18589   0.606   6.085   9.915 -3.3053 -0.0788  0.0342
  165SOPE   C3818590   0.693   6.269   9.823 -0.0087  0.8113 -0.4377
  165SOPE   H8X18591   0.800   6.260   9.851  0.7860  2.3175 -2.8205
  165SOPE   H8Y18592   0.665   6.377   9.820 -0.4662  0.7506  1.2271
  165SOPE   C3918593   0.682   6.219   9.678 -0.0359  0.2074 -0.8048
  165SOPE   H9X18594   0.584   6.253   9.640 -1.0522 -0.1427  1.4072
  165SOPE   H9Y18595   0.679   6.108   9.685  2.6085 -0.0200 -2.6317
  165SOPE  C31018596   0.808   6.245   9.597  0.6125  0.3491  0.7111
  165SOPE  H10X18597   0.899   6.205   9.646  0.5618 -3.1915 -1.8640
  165SOPE  H10Y18598   0.832   6.352   9.577  0.5499  0.0335 -1.1221
  165SOPE  C31118599   0.795   6.174   9.468 -0.4525  0.2417  0.9486
  165SOPE  H11X18600   0.702   6.204   9.415 -1.9307  1.7248  4.2422
  165SOPE  H11Y18601   0.780   6.066   9.488 -3.0844  0.2152 -0.9246
  165SOPE  C31218602   0.897   6.201   9.364 -0.0643 -0.3707 -0.4136
  165SOPE  H12X18603   0.997   6.225   9.405  0.5811 -0.3540 -1.9789
  165SOPE  H12Y18604   0.865   6.292   9.311 -1.3480  0.0244  0.9919
  165SOPE  C31318605   0.907   6.087   9.259  0.1937 -0.1863  0.3402
  165SOPE  H13X18606   0.806   6.043   9.245  0.6596 -1.5387  1.1673
  165SOPE  H13Y18607   0.968   6.003   9.297  3.1218  2.5788  1.9581
  165SOPE  C31418608   0.959   6.123   9.117  0.0971  0.0942 -0.1739
  165SOPE  H14X18609   1.054   6.178   9.132 -0.5955  2.4989 -3.7928
  165SOPE  H14Y18610   0.880   6.189   9.075 -0.2833  0.7584  1.5541
  165SOPE  C31518611   1.007   6.013   9.025 -0.6333  0.2547  0.4153
  165SOPE  H15X18612   0.927   5.945   8.988 -0.6807  1.2459 -1.3884
  165SOPE  H15Y18613   1.087   5.958   9.078  0.7450  3.4836  1.7771
  165SOPE  C31618614   1.077   6.069   8.894 -0.3205 -0.0008 -0.4335
  165SOPE  H16X18615   1.128   5.981   8.850  0.3922 -0.3991  1.1599
  165SOPE  H16Y18616   1.144   6.151   8.927 -0.1651 -0.4061  0.2702
  165SOPE  C31718617   0.984   6.130   8.794  0.2377 -0.5129 -0.2084
  165SOPE  H17X18618   0.936   6.214   8.849  2.3117 -0.7217  2.0198
  165SOPE  H17Y18619   0.912   6.051   8.764 -1.8516  0.7257  1.3985
  165SOPE  C31818620   1.044   6.195   8.667 -0.6192  0.9748 -0.1698
  165SOPE  H18X18621   0.976   6.251   8.599 -1.6473  0.2653  0.2591
  165SOPE  H18Y18622   1.107   6.119   8.615  0.8852  3.0950 -1.5363
  165SOPE  H18Z18623   1.096   6.287   8.701 -0.1898  0.1430  1.4630
  166SOPE     N18624   3.865   5.941  10.932 -0.7144 -0.2952  0.6249
  166SOPE   HN118625   3.924   6.007  10.877  1.4871 -2.9362 -0.2419
  166SOPE   HN218626   3.923   5.856  10.946 -2.0238 -1.0085  1.8779
  166SOPE   HN318627   3.791   5.925  10.861 -0.1172  2.2553 -0.6326
  166SOPE   C1218628   3.816   6.010  11.050 -0.0635 -0.7355  0.3313
  166SOPE  H12A18629   3.906   6.015  11.116  0.1462 -0.7836  0.0503
  166SOPE  H12B18630   3.747   5.942  11.105 -0.8237  0.6700  1.1526
  166SOPE   C1118631   3.750   6.151  11.023  0.7809 -0.1183 -0.0804
  166SOPE  H11A18632   3.837   6.213  10.994  1.3639 -0.0169  1.8177
  166SOPE  H11B18633   3.705   6.191  11.116  1.8333  0.1084  0.3298
  166SOPE     P18634   3.601   6.293  10.876  0.0977 -0.0988  0.2568
  166SOPE   O1318635   3.600   6.391  10.985  0.6916  0.5505  0.1403
  166SOPE   O1418636   3.476   6.281  10.802 -0.3480 -0.0146  0.1051
  166SOPE   O1218637   3.650   6.149  10.929  0.3622  0.0613  0.1345
  166SOPE   O1118638   3.720   6.327  10.784 -0.0914  1.2442  0.4326
  166SOPE    C118639   3.755   6.256  10.660  0.4475 -0.9128 -0.8533
  166SOPE    HA18640   3.663   6.275  10.601 -0.2395 -0.0925  0.4638
  166SOPE    HB18641   3.769   6.147  10.673 -0.6407 -1.1009 -1.2815
  166SOPE    C218642   3.871   6.333  10.594  0.5120  0.4489 -0.6807
  166SOPE    HS18643   3.941   6.332  10.681  1.7718 -0.8454 -1.6786
  166SOPE   O2118644   3.825   6.471  10.569 -0.1910  0.4009 -0.5381
  166SOPE   C2118645   3.920   6.559  10.553 -1.4941  0.4325 -0.8725
  166SOPE   O2218646   4.038   6.545  10.571 -0.1854  0.2191 -0.2565
  166SOPE   C2218647   3.856   6.698  10.520 -0.2782 -0.4681  0.4670
  166SOPE   H2R18648   3.936   6.773  10.506 -0.1361 -0.8921 -1.0658
  166SOPE   H2S18649   3.804   6.719  10.616 -0.9292  0.2762 -0.0399
  166SOPE    C318650   3.950   6.278  10.475 -0.3207 -0.5441 -1.0196
  166SOPE    HX18651   3.989   6.181  10.514  1.6458  0.7246  0.2673
  166SOPE    HY18652   4.037   6.344  10.454 -1.2894  0.6815 -1.2234
  166SOPE   O3118653   3.874   6.256  10.350 -0.0670 -0.0013  0.5932
  166SOPE   C3118654   3.821   6.135  10.341  0.3790  0.5731  0.4404
  166SOPE   O3218655   3.835   6.048  10.430 -0.1222 -0.0989  0.1323
  166SOPE   C3218656   3.704   6.142  10.230 -0.2862  0.5418 -0.3198
  166SOPE   H2X18657   3.661   6.043  10.257  3.5712 -0.4990  2.4975
  166SOPE   H2Y18658   3.742   6.131  10.127 -1.3559 -1.0732 -0.5722
  166SOPE   C2318659   3.752   6.691  10.399 -0.6607 -0.2415  0.2451
  166SOPE   H3R18660   3.703   6.790  10.414 -0.1298  0.6814 -3.5696
  166SOPE   H3S18661   3.685   6.606  10.425  0.2301 -0.6238  1.2902
  166SOPE   C2418662   3.820   6.671  10.269 -0.4805 -0.8497  0.3473
  166SOPE   H4R18663   3.883   6.580  10.275  0.0493 -0.9478 -4.2415
  166SOPE   H4S18664   3.739   6.658  10.194  0.4526  0.0846 -0.8411
  166SOPE   C2518665   3.902   6.790  10.228 -0.0895  0.3184 -0.1534
  166SOPE   H5R18666   3.845   6.884  10.238  0.1833  0.3113  1.5874
  166SOPE   H5S18667   3.994   6.793  10.290 -1.2537  0.2843  1.6015
  166SOPE   C2618668   3.943   6.779  10.079  0.4027  0.1326 -0.2901
  166SOPE   H6R18669   4.039   6.831  10.059 -0.7580  2.1036 -0.9023
  166SOPE   H6S18670   3.959   6.670  10.064  1.3938 -0.0461  1.8061
  166SOPE   C2718671   3.831   6.835   9.988  0.4545 -0.7542  0.1894
  166SOPE   H7R18672   3.740   6.773  10.004  0.7834 -1.8531 -1.9574
  166SOPE   H7S18673   3.800   6.939  10.016  0.7438 -0.0917 -1.8862
  166SOPE   C2818674   3.883   6.836   9.842  0.5484  0.1694  0.0721
  166SOPE   H8R18675   3.803   6.876   9.774  0.9480 -1.8913 -1.6641
  166SOPE   H8S18676   3.967   6.908   9.849 -0.2433  1.0672  0.5878
  166SOPE   C2918677   3.928   6.712   9.780  0.9051 -0.0135 -0.4760
  166SOPE   H9118678   3.962   6.637   9.852  1.1600 -2.2589 -2.8812
  166SOPE  C21018679   3.924   6.673   9.648  0.0995 -0.2718 -0.1037
  166SOPE  H10118680   3.961   6.572   9.626 -0.3426 -0.1512 -1.4293
  166SOPE  C21118681   3.868   6.746   9.534 -1.3686 -0.4475 -0.7927
  166SOPE  H11R18682   3.920   6.842   9.514  0.4442 -1.2085  0.0977
  166SOPE  H11S18683   3.763   6.774   9.554 -0.2988  2.8648  0.6371
  166SOPE  C21218684   3.886   6.656   9.409 -0.2427 -0.0626 -0.2382
  166SOPE  H12R18685   3.994   6.635   9.395  0.0995 -0.4119  2.6641
  166SOPE  H12S18686   3.849   6.724   9.329  1.1237  2.4780  1.2206
  166SOPE  C21318687   3.811   6.524   9.396 -0.2526  0.1856 -0.3189
  166SOPE  H13R18688   3.710   6.533   9.441  0.1865  2.3374  0.2737
  166SOPE  H13S18689   3.877   6.455   9.453 -0.3221  1.9877  2.0461
  166SOPE  C21418690   3.814   6.459   9.262  0.3249  0.1246 -0.3663
  166SOPE  H14R18691   3.753   6.369   9.279 -0.3217  0.7960  1.0063
  166SOPE  H14S18692   3.916   6.429   9.230  0.6543  1.4518 -0.6039
  166SOPE  C21518693   3.738   6.526   9.144  0.2832 -0.3627  0.4495
  166SOPE  H15R18694   3.788   6.620   9.112 -2.7799  0.8129 -1.2110
  166SOPE  H15S18695   3.636   6.558   9.174  0.3627  0.6986 -0.3865
  166SOPE  C21618696   3.728   6.426   9.021 -1.0304 -0.3182  0.1092
  166SOPE  H16R18697   3.682   6.335   9.066  0.0684 -1.1742 -0.4714
  166SOPE  H16S18698   3.829   6.409   8.978 -2.0318 -3.8966 -0.9635
  166SOPE  C21718699   3.630   6.484   8.916  0.1470  0.0804  0.1566
  166SOPE  H17R18700   3.695   6.565   8.877  0.7222 -1.2266 -1.6280
  166SOPE  H17S18701   3.537   6.525   8.962  1.1435  2.0302  0.4976
  166SOPE  C21818702   3.601   6.403   8.789 -0.3306  0.1322 -0.1727
  166SOPE  H18R18703   3.532   6.454   8.719 -1.3706  2.1064  2.2155
  166SOPE  H18S18704   3.547   6.311   8.819 -2.7965  1.7015  0.4303
  166SOPE  H18T18705   3.700   6.380   8.744  0.0617  1.8351 -0.2302
  166SOPE   C3318706   3.595   6.252  10.262  0.1118  0.0914 -0.4536
  166SOPE   H3X18707   3.594   6.274  10.371  0.5808 -1.9991 -0.0035
  166SOPE   H3Y18708   3.506   6.199  10.222  0.9296  0.0909 -2.3704
  166SOPE   C3418709   3.621   6.377  10.171  0.5732  0.0777  0.4105
  166SOPE   H4X18710   3.725   6.416  10.165 -0.1943  1.9139 -1.1304
  166SOPE   H4Y18711   3.563   6.463  10.210  1.4901  2.4332 -3.1965
  166SOPE   C3518712   3.571   6.355  10.031 -0.1924  0.0145  0.0363
  166SOPE   H5X18713   3.468   6.316  10.047  0.6224 -3.3065 -2.1646
  166SOPE   H5Y18714   3.627   6.281   9.969 -1.7373 -1.4855  0.3973
  166SOPE   C3618715   3.570   6.484   9.959  0.3747  0.4257  0.3676
  166SOPE   H6X18716   3.668   6.534   9.951  1.1243 -0.9264  0.8741
  166SOPE   H6Y18717   3.508   6.555  10.018  2.6569  1.2769  1.7961
  166SOPE   C3718718   3.512   6.480   9.819 -0.3587 -0.7898 -0.4020
  166SOPE   H7X18719   3.412   6.430   9.821 -0.1528 -1.1724  0.5619
  166SOPE   H7Y18720   3.577   6.397   9.781  1.5132 -0.1682  1.3711
  166SOPE   C3818721   3.505   6.601   9.728 -0.5777 -0.4296 -0.0177
  166SOPE   H8X18722   3.611   6.632   9.716 -1.0113  2.0333  2.1411
  166SOPE   H8Y18723   3.441   6.683   9.767 -1.0031  0.0329 -1.6513
  166SOPE   C3918724   3.448   6.562   9.591 -0.1501 -0.3146  0.2067
  166SOPE   H9X18725   3.340   6.541   9.609 -0.3616  0.0865 -0.5813
  166SOPE   H9Y18726   3.505   6.476   9.550  0.6271  0.2885 -0.0049
  166SOPE  C31018727   3.457   6.686   9.494  0.9751 -0.7273  0.5357
  166SOPE  H10X18728   3.562   6.723   9.493  1.1516 -1.2198 -0.4023
  166SOPE  H10Y18729   3.380   6.757   9.532 -0.0946 -1.2321 -0.6476
  166SOPE  C31118730   3.412   6.661   9.347  0.4228 -0.1317  0.0750
  166SOPE  H11X18731   3.303   6.645   9.360  0.2953  1.9540  2.0292
  166SOPE  H11Y18732   3.454   6.563   9.317  0.6715  0.2516 -0.8564
  166SOPE  C31218733   3.453   6.766   9.241 -0.2992  0.1657  0.4576
  166SOPE  H12X18734   3.554   6.742   9.201 -0.2946  0.0604  0.5312
  166SOPE  H12Y18735   3.471   6.866   9.285  2.1505  0.2493 -0.6579
  166SOPE  C31318736   3.349   6.774   9.133  0.6786  0.3341  0.1148
  166SOPE  H13X18737   3.256   6.828   9.160 -1.2504 -2.4734 -0.7041
  166SOPE  H13Y18738   3.319   6.672   9.100  0.0530  0.7398 -0.5699
  166SOPE  C31418739   3.398   6.852   9.011 -0.2263  0.5531  0.6155
  166SOPE  H14X18740   3.492   6.804   8.975 -1.3565 -1.0214 -0.3136
  166SOPE  H14Y18741   3.425   6.957   9.034 -2.3038  0.9186  1.4520
  166SOPE  C31518742   3.286   6.861   8.901  0.2758 -0.2802 -0.1819
  166SOPE  H15X18743   3.327   6.925   8.820  2.2263  0.7020  1.5131
  166SOPE  H15Y18744   3.206   6.916   8.955 -0.8112 -0.3436 -1.7187
  166SOPE  C31618745   3.247   6.730   8.848  0.2397 -0.0698  0.4143
  166SOPE  H16X18746   3.206   6.674   8.935 -1.2960 -1.1916 -0.9833
  166SOPE  H16Y18747   3.338   6.680   8.807  0.0306  0.2927 -0.4922
  166SOPE  C31718748   3.133   6.733   8.739 -0.1115 -0.8093 -0.4151
  166SOPE  H17X18749   3.171   6.764   8.639  1.1997  2.2480  0.9584
  166SOPE  H17Y18750   3.070   6.817   8.773  1.2819  0.2959 -0.5075
  166SOPE  C31818751   3.051   6.608   8.728  0.2271  0.0466  0.0790
  166SOPE  H18X18752   2.954   6.609   8.675 -0.3615 -0.3683  1.1350
  166SOPE  H18Y18753   3.020   6.570   8.828 -0.8961  1.2788  0.2032
  166SOPE  H18Z18754   3.115   6.528   8.684 -1.2845 -1.7971  1.1694
  167SOPE     N18755   5.918   4.399   6.312  0.5460 -0.8551  0.3202
  167SOPE   HN118756   5.842   4.406   6.382  0.4693 -0.1949  0.1738
  167SOPE   HN218757   5.968   4.308   6.320  0.0094 -1.2642 -0.8061
  167SOPE   HN318758   5.987   4.477   6.321 -0.3038 -0.0256 -0.2303
  167SOPE   C1218759   5.851   4.391   6.183  0.3162  0.3670  0.1299
  167SOPE  H12A18760   5.922   4.413   6.100  2.4216  0.7753  1.9707
  167SOPE  H12B18761   5.774   4.471   6.176 -0.0242  0.0735  0.5123
  167SOPE   C1118762   5.789   4.253   6.169  0.4262  0.1058 -0.0217
  167SOPE  H11A18763   5.870   4.179   6.159 -0.3905 -0.6424 -1.2648
  167SOPE  H11B18764   5.731   4.265   6.075 -1.6384  1.1955  1.3286
  167SOPE     P18765   5.607   4.097   6.277 -0.0112  0.3435  0.5046
  167SOPE   O1318766   5.623   4.027   6.148  0.5895 -0.1558  0.0015
  167SOPE   O1418767   5.472   4.133   6.320 -0.1843 -0.1848  0.3048
  167SOPE   O1218768   5.705   4.215   6.284 -0.2722 -0.3006  0.4879
  167SOPE   O1118769   5.660   3.997   6.384 -0.1616  0.3716  0.1399
  167SOPE    C118770   5.794   4.015   6.437 -0.3354  0.4772  0.6589
  167SOPE    HA18771   5.795   4.099   6.509 -1.6842  2.0158 -1.1095
  167SOPE    HB18772   5.863   4.033   6.352 -1.0511  1.7225  0.3417
  167SOPE    C218773   5.823   3.887   6.522  0.4542 -0.2440  0.2485
  167SOPE    HS18774   5.798   3.800   6.457 -0.2995  1.1848 -1.3890
  167SOPE   O2118775   5.734   3.883   6.635  0.7505  0.7191 -0.3015
  167SOPE   C2118776   5.745   3.775   6.706  0.3129 -0.7641  0.0934
  167SOPE   O2218777   5.813   3.676   6.680  0.2128  0.2159 -0.1373
  167SOPE   C2218778   5.658   3.780   6.836  0.0576 -0.3076  0.0924
  167SOPE   H2R18779   5.697   3.858   6.904  1.2587  0.0911 -1.0248
  167SOPE   H2S18780   5.676   3.681   6.885  0.2383  0.9363  2.5931
  167SOPE    C318781   5.979   3.876   6.560 -0.1478  1.1788  0.1447
  167SOPE    HX18782   6.050   3.896   6.477  2.2376  0.6730  1.9894
  167SOPE    HY18783   5.998   3.771   6.591 -3.0641  0.9540  1.2755
  167SOPE   O3118784   6.008   3.951   6.676  0.4421  0.2619 -0.0965
  167SOPE   C3118785   6.134   3.943   6.726  0.2323  0.5391  0.2021
  167SOPE   O3218786   6.224   3.901   6.662 -0.7522 -0.0283  0.3176
  167SOPE   C3218787   6.136   3.997   6.867  0.6480 -0.0790 -0.6841
  167SOPE   H2X18788   6.029   3.997   6.896  0.0810 -1.8443 -2.5910
  167SOPE   H2Y18789   6.174   4.101   6.872 -0.1582  0.1831  0.0012
  167SOPE   C2318790   5.512   3.816   6.812 -0.5560  0.4880  0.2934
  167SOPE   H3R18791   5.467   3.740   6.744  0.9399 -0.5502  0.4615
  167SOPE   H3S18792   5.509   3.916   6.763 -1.9735 -0.0877 -0.8376
  167SOPE   C2418793   5.425   3.816   6.934 -0.1284 -0.1147 -1.0813
  167SOPE   H4R18794   5.442   3.905   6.999  0.5976  1.2293 -3.0493
  167SOPE   H4S18795   5.318   3.827   6.906 -0.5733 -0.1368  0.5270
  167SOPE   C2518796   5.439   3.681   7.018  0.9021 -0.7565  0.2834
  167SOPE   H5R18797   5.409   3.590   6.962 -0.1830 -0.3606  0.2064
  167SOPE   H5S18798   5.544   3.651   7.042  0.4472 -1.5342  1.3733
  167SOPE   C2618799   5.349   3.687   7.141 -0.5726  0.2785 -0.1216
  167SOPE   H6R18800   5.381   3.764   7.214 -0.8003  0.5109 -0.2624
  167SOPE   H6S18801   5.247   3.712   7.104 -1.5573 -1.5215  1.3261
  167SOPE   C2718802   5.333   3.553   7.215 -0.3398 -0.9404  0.2551
  167SOPE   H7R18803   5.256   3.552   7.294  0.8095  0.3152  1.4048
  167SOPE   H7S18804   5.310   3.467   7.148 -0.3192 -2.4417  2.1381
  167SOPE   C2818805   5.461   3.515   7.287 -0.3170 -0.1827  0.4444
  167SOPE   H8R18806   5.547   3.521   7.217  0.1587 -1.5762  0.8963
  167SOPE   H8S18807   5.476   3.599   7.358 -1.2968  0.5302 -0.1634
  167SOPE   C2918808   5.457   3.381   7.358  0.1736  0.5431  0.0206
  167SOPE   H9118809   5.489   3.291   7.303 -0.9980 -1.4405  2.4768
  167SOPE  C21018810   5.411   3.354   7.484 -0.3091  0.2869  0.4754
  167SOPE  H10118811   5.419   3.250   7.521 -1.8593  0.4900  1.3861
  167SOPE  C21118812   5.355   3.471   7.572 -0.6406  0.5441  0.7829
  167SOPE  H11R18813   5.300   3.416   7.652 -2.6326 -1.4973 -1.9018
  167SOPE  H11S18814   5.286   3.538   7.516  0.4087 -0.7863 -2.2276
  167SOPE  C21218815   5.465   3.557   7.637  0.8544  0.3866  0.0283
  167SOPE  H12R18816   5.546   3.568   7.562  1.7661 -0.1645  0.9174
  167SOPE  H12S18817   5.506   3.491   7.717 -0.8097 -1.0893 -0.2943
  167SOPE  C21318818   5.406   3.681   7.694 -0.1586  0.2597 -0.2236
  167SOPE  H13R18819   5.319   3.653   7.757  0.0957 -0.5564 -0.2274
  167SOPE  H13S18820   5.356   3.735   7.611 -1.4165 -0.1441  0.2635
  167SOPE  C21418821   5.504   3.774   7.775  0.3313 -0.2994  0.2045
  167SOPE  H14R18822   5.604   3.778   7.729  0.4043 -2.2797  0.1238
  167SOPE  H14S18823   5.507   3.714   7.869 -1.3955 -1.0360 -0.1757
  167SOPE  C21518824   5.438   3.913   7.806  0.5486  0.5533 -0.0587
  167SOPE  H15R18825   5.329   3.891   7.810  1.2772 -3.1466  1.8353
  167SOPE  H15S18826   5.455   3.971   7.713  1.6617 -1.2702 -1.0207
  167SOPE  C21618827   5.484   3.968   7.939 -0.2901  0.1962 -0.1059
  167SOPE  H16R18828   5.499   3.890   8.017  0.4870 -1.4073 -1.8257
  167SOPE  H16S18829   5.407   4.041   7.971 -0.3805 -0.6911  1.7446
  167SOPE  C21718830   5.608   4.057   7.937 -0.2679  0.3082  0.1785
  167SOPE  H17R18831   5.692   4.005   7.886  0.9361  0.4720  1.9650
  167SOPE  H17S18832   5.646   4.074   8.040 -1.4035 -4.0452  1.3859
  167SOPE  C21818833   5.582   4.186   7.861  0.3721  0.6335  0.1905
  167SOPE  H18R18834   5.521   4.268   7.905 -0.6095 -0.2731  0.5232
  167SOPE  H18S18835   5.536   4.161   7.764  0.3625  2.8195 -0.3887
  167SOPE  H18T18836   5.680   4.230   7.830  0.5350  0.1497  0.0262
  167SOPE   C3318837   6.224   3.912   6.961 -0.3268  0.1400 -0.8590
  167SOPE   H3X18838   6.328   3.935   6.932 -0.1502  0.8308  0.2618
  167SOPE   H3Y18839   6.203   3.803   6.952 -0.2223 -0.1729  2.0941
  167SOPE   C3418840   6.188   3.959   7.106  0.5048  0.1323 -0.4959
  167SOPE   H4X18841   6.081   3.938   7.127  0.2580  0.4440 -1.4297
  167SOPE   H4Y18842   6.212   4.065   7.129  0.9153 -0.2233  0.7763
  167SOPE   C3518843   6.261   3.878   7.211 -0.3936  0.2352 -0.4556
  167SOPE   H5X18844   6.368   3.878   7.180 -0.6352  2.0062 -1.3310
  167SOPE   H5Y18845   6.212   3.778   7.201  1.2676 -0.7810  1.2148
  167SOPE   C3618846   6.233   3.930   7.359 -0.9382  0.9773  0.5575
  167SOPE   H6X18847   6.125   3.926   7.384 -1.9617  1.0452 -3.5121
  167SOPE   H6Y18848   6.263   4.037   7.348  1.4320  0.1901 -0.8984
  167SOPE   C3718849   6.312   3.841   7.455 -0.5171  0.3477  0.3161
  167SOPE   H7X18850   6.402   3.792   7.413 -1.5670 -2.3766  1.1687
  167SOPE   H7Y18851   6.249   3.754   7.484 -0.2053  0.6048  1.8005
  167SOPE   C3818852   6.339   3.902   7.589  0.4380  1.0462 -0.1878
  167SOPE   H8X18853   6.249   3.952   7.630 -0.4400 -0.9837  0.4108
  167SOPE   H8Y18854   6.416   3.982   7.577  2.2343 -0.3915  1.2971
  167SOPE   C3918855   6.399   3.801   7.690  0.2907 -0.3144 -0.2343
  167SOPE   H9X18856   6.488   3.744   7.657  0.9123  0.5724 -0.1058
  167SOPE   H9Y18857   6.320   3.731   7.725 -0.0021 -0.1036 -0.4668
  167SOPE  C31018858   6.441   3.873   7.821 -0.3093 -0.4793 -0.7152
  167SOPE  H10X18859   6.344   3.905   7.866 -0.1974 -1.5558  0.3352
  167SOPE  H10Y18860   6.511   3.957   7.799  1.4549 -1.8676 -0.5331
  167SOPE  C31118861   6.500   3.778   7.930 -0.1294 -0.1810  0.6598
  167SOPE  H11X18862   6.593   3.733   7.888  0.5553  2.3237 -0.6241
  167SOPE  H11Y18863   6.426   3.697   7.948 -2.1562  1.6780  0.9481
  167SOPE  C31218864   6.528   3.860   8.057  0.5822 -0.6275 -0.0867
  167SOPE  H12X18865   6.553   3.796   8.144 -2.5420 -1.1754  0.4632
  167SOPE  H12Y18866   6.435   3.916   8.079  2.4442  2.2138  0.8911
  167SOPE  C31318867   6.636   3.971   8.048  0.0474  0.2320  0.0648
  167SOPE  H13X18868   6.607   4.038   7.964 -1.9144 -1.8172 -0.9581
  167SOPE  H13Y18869   6.740   3.937   8.031  0.1961  0.7329 -0.0500
  167SOPE  C31418870   6.638   4.057   8.168  0.3048 -0.1904 -0.2464
  167SOPE  H14X18871   6.538   4.061   8.217  0.7740  0.9044  0.6199
  167SOPE  H14Y18872   6.662   4.163   8.146 -0.8271  0.2782  0.7063
  167SOPE  C31518873   6.724   3.998   8.279 -0.2248 -1.2415 -1.0411
  167SOPE  H15X18874   6.729   3.887   8.282 -2.7589 -1.3317  1.0307
  167SOPE  H15Y18875   6.703   4.030   8.383 -2.6189 -1.2796 -1.4815
  167SOPE  C31618876   6.878   4.043   8.274 -0.0386 -0.0154 -0.2712
  167SOPE  H16X18877   6.886   4.153   8.264 -0.0482  0.1949  1.8286
  167SOPE  H16Y18878   6.920   4.004   8.179 -3.4615  0.1161 -1.9319
  167SOPE  C31718879   6.959   3.993   8.394  0.1423  0.5406 -0.3666
  167SOPE  H17X18880   6.915   3.902   8.439 -0.3338  1.0265  0.1588
  167SOPE  H17Y18881   6.940   4.064   8.478 -0.6191 -1.7563  1.4531
  167SOPE  C31818882   7.107   3.981   8.371 -0.1799  1.0446  0.2361
  167SOPE  H18X18883   7.157   4.075   8.338  0.1840  1.8602  2.9945
  167SOPE  H18Y18884   7.130   3.902   8.296  1.3110 -1.4538  3.2351
  167SOPE  H18Z18885   7.167   3.950   8.459  1.7997 -0.1954 -1.5145
  168SOPE     N18886   4.789   0.928   6.650 -0.3337  0.1812  0.1993
  168SOPE   HN118887   4.814   0.882   6.561 -0.7072 -0.9611  0.6742
  168SOPE   HN218888   4.733   0.858   6.703  1.0739 -0.2094  1.2015
  168SOPE   HN318889   4.734   1.013   6.627 -1.3036  0.3455  2.8837
  168SOPE   C1218890   4.922   0.946   6.717 -0.4788  0.7530 -0.8955
  168SOPE  H12A18891   4.901   0.962   6.825  1.3132  0.4319 -0.4738
  168SOPE  H12B18892   4.976   1.033   6.673  1.6395 -0.3035 -0.4785
  168SOPE   C1118893   5.013   0.818   6.691  0.4158  0.4480 -0.4134
  168SOPE  H11A18894   4.975   0.732   6.749  4.2125  0.3502  2.0844
  168SOPE  H11B18895   5.110   0.834   6.743  0.5155  2.0231 -1.0317
  168SOPE     P18896   5.160   0.816   6.477 -0.0612  0.6488 -0.0266
  168SOPE   O1318897   5.174   0.959   6.451 -0.4226 -0.0491 -0.0085
  168SOPE   O1418898   5.157   0.724   6.361  0.3970 -0.1356  0.5172
  168SOPE   O1218899   5.021   0.783   6.553 -0.1804 -0.3522  0.2403
  168SOPE   O1118900   5.270   0.769   6.578  0.5398  0.4562  0.4198
  168SOPE    C118901   5.402   0.760   6.536 -0.3227 -0.3731 -0.0564
  168SOPE    HA18902   5.418   0.797   6.432 -1.6349  0.8433  0.1581
  168SOPE    HB18903   5.434   0.654   6.531  0.1141 -0.2372 -0.1894
  168SOPE    C218904   5.512   0.836   6.612  0.5526 -0.2775 -0.1596
  168SOPE    HS18905   5.605   0.776   6.612  0.7188 -0.0733 -2.7342
  168SOPE   O2118906   5.467   0.857   6.751  0.0279 -0.0025 -0.6752
  168SOPE   C2118907   5.470   0.745   6.823  0.3521  1.1159 -0.5058
  168SOPE   O2218908   5.525   0.640   6.791 -0.5844 -0.1866 -0.0072
  168SOPE   C2218909   5.381   0.757   6.948  0.1355 -0.1430 -0.4859
  168SOPE   H2R18910   5.274   0.735   6.932 -0.0572  0.9712 -0.7931
  168SOPE   H2S18911   5.384   0.865   6.975 -1.4000 -0.0700 -0.5645
  168SOPE    C318912   5.537   0.970   6.548 -0.3796 -0.0770  0.9706
  168SOPE    HX18913   5.578   0.959   6.445 -1.1223  0.4717  0.6111
  168SOPE    HY18914   5.627   1.003   6.604 -0.8680 -0.9018  2.2632
  168SOPE   O3118915   5.414   1.054   6.539  0.1742 -0.5916 -0.3558
  168SOPE   C3118916   5.412   1.157   6.625 -0.1921 -0.1090 -0.0999
  168SOPE   O3218917   5.498   1.188   6.701 -0.6697  0.9925 -0.2523
  168SOPE   C3218918   5.283   1.231   6.613  0.3822 -0.3785 -0.6960
  168SOPE   H2X18919   5.237   1.207   6.515  2.3876 -0.5917 -1.6180
  168SOPE   H2Y18920   5.306   1.340   6.623  0.2566 -0.4338  0.2506
  168SOPE   C2318921   5.436   0.685   7.074 -0.3252  0.3920 -0.3511
  168SOPE   H3R18922   5.547   0.676   7.075 -0.3673 -0.1342  1.3872
  168SOPE   H3S18923   5.405   0.578   7.078 -2.9178  1.1086 -0.6950
  168SOPE   C2418924   5.389   0.742   7.210 -0.1378 -0.2839 -0.3434
  168SOPE   H4R18925   5.432   0.844   7.212  0.4238 -0.5349  0.2770
  168SOPE   H4S18926   5.278   0.741   7.219 -0.2483  1.7561 -1.1027
  168SOPE   C2518927   5.455   0.670   7.335  0.3718  0.3288 -0.2365
  168SOPE   H5R18928   5.422   0.564   7.334 -2.7689  1.2496  1.3673
  168SOPE   H5S18929   5.566   0.681   7.330  0.4651  0.2221  1.4253
  168SOPE   C2618930   5.419   0.716   7.474 -0.2829  0.4531  0.1967
  168SOPE   H6R18931   5.422   0.826   7.486 -0.7448  0.3603  1.2339
  168SOPE   H6S18932   5.311   0.701   7.494  0.1169 -0.8537  1.4807
  168SOPE   C2718933   5.487   0.649   7.581 -0.0553  0.1955 -0.2360
  168SOPE   H7R18934   5.480   0.542   7.553 -1.7061  0.4161 -0.7651
  168SOPE   H7S18935   5.592   0.684   7.585 -0.1106  0.4298 -0.6812
  168SOPE   C2818936   5.413   0.662   7.719 -0.1812  0.1045  0.3200
  168SOPE   H8R18937   5.390   0.771   7.726 -1.2646 -0.1088  0.2169
  168SOPE   H8S18938   5.315   0.610   7.715 -0.2984  0.2245  1.5148
  168SOPE   C2918939   5.489   0.602   7.836  0.1052 -0.1326  0.7079
  168SOPE   H9118940   5.551   0.514   7.813 -1.5686 -0.7719 -1.5375
  168SOPE  C21018941   5.491   0.655   7.958  0.0258  0.3123  0.1469
  168SOPE  H10118942   5.547   0.616   8.045  2.6751  0.8579 -1.2516
  168SOPE  C21118943   5.407   0.775   8.001 -0.3510  0.0348  0.5127
  168SOPE  H11R18944   5.397   0.844   7.915 -1.0746  1.2036  1.5188
  168SOPE  H11S18945   5.470   0.835   8.071 -0.1495  0.8564 -0.3645
  168SOPE  C21218946   5.271   0.757   8.074 -0.2065  0.0061 -0.0812
  168SOPE  H12R18947   5.189   0.716   8.011 -2.1320 -0.5724  2.6920
  168SOPE  H12S18948   5.257   0.866   8.092 -1.6588  0.0477 -1.3631
  168SOPE  C21318949   5.279   0.680   8.206  0.9463  0.3372  0.4474
  168SOPE  H13R18950   5.366   0.697   8.272  1.8742  0.7809 -0.8725
  168SOPE  H13S18951   5.281   0.572   8.181 -0.0402  0.2248  0.8266
  168SOPE  C21418952   5.156   0.708   8.300  0.3541 -0.1869  0.0854
  168SOPE  H14R18953   5.067   0.679   8.240 -0.8392  2.2801  0.5960
  168SOPE  H14S18954   5.160   0.815   8.329  1.2386  0.5226 -2.6013
  168SOPE  C21518955   5.145   0.614   8.421 -0.2224 -0.2344  0.0019
  168SOPE  H15R18956   5.209   0.664   8.497 -0.6081 -0.3159  0.3856
  168SOPE  H15S18957   5.194   0.521   8.387 -1.1696 -0.2062 -1.5050
  168SOPE  C21618958   5.001   0.595   8.461 -0.0366 -0.0539  0.0935
  168SOPE  H16R18959   5.003   0.502   8.521  1.0566 -0.3295 -0.3525
  168SOPE  H16S18960   4.939   0.582   8.369  0.7610 -1.5782 -0.2445
  168SOPE  C21718961   4.945   0.715   8.540 -0.2717  0.4177 -0.0663
  168SOPE  H17R18962   4.928   0.798   8.468  2.4730  2.5095  1.5701
  168SOPE  H17S18963   5.015   0.735   8.624  0.6969 -2.9496  0.0260
  168SOPE  C21818964   4.812   0.691   8.611  0.6330  0.5314  0.1816
  168SOPE  H18R18965   4.834   0.610   8.684 -0.0249  2.1070  2.1854
  168SOPE  H18S18966   4.734   0.644   8.546  2.3806  0.5039 -1.9478
  168SOPE  H18T18967   4.763   0.774   8.667 -0.1947  1.4987 -1.9364
  168SOPE   C3318968   5.182   1.191   6.719  1.1156  0.0134 -0.1899
  168SOPE   H3X18969   5.179   1.080   6.726  0.3011  0.0922  0.8929
  168SOPE   H3Y18970   5.079   1.220   6.688 -0.1574 -2.9065  1.0591
  168SOPE   C3418971   5.201   1.234   6.863 -0.4106  0.2180  0.7702
  168SOPE   H4X18972   5.147   1.329   6.885 -2.2823 -1.0266  1.7071
  168SOPE   H4Y18973   5.309   1.247   6.889 -0.2010 -0.5497  0.2976
  168SOPE   C3518974   5.141   1.128   6.954  0.8565  0.5114  0.6810
  168SOPE   H5X18975   5.183   1.026   6.942  1.0464  0.8262 -1.6692
  168SOPE   H5Y18976   5.036   1.115   6.920  1.5237 -0.4611 -1.1041
  168SOPE   C3618977   5.141   1.167   7.101  0.0244 -0.0382  0.3787
  168SOPE   H6X18978   5.073   1.255   7.101  0.2115  0.1303 -1.3416
  168SOPE   H6Y18979   5.243   1.204   7.124  0.8366 -2.6659  1.1234
  168SOPE   C3718980   5.091   1.062   7.198  0.4976 -0.1691  0.6076
  168SOPE   H7X18981   5.158   0.975   7.182  1.0077  0.7692 -2.8378
  168SOPE   H7Y18982   4.983   1.037   7.190  0.7691 -1.5652  1.1580
  168SOPE   C3818983   5.112   1.123   7.338  0.1854  0.1377 -0.3031
  168SOPE   H8X18984   5.063   1.222   7.344  0.8507  0.5278 -1.2562
  168SOPE   H8Y18985   5.222   1.137   7.348  0.6297 -2.6503 -0.7503
  168SOPE   C3918986   5.063   1.036   7.452 -0.1672  0.0007 -0.4947
  168SOPE   H9X18987   5.115   0.938   7.451 -2.0906 -1.0856  1.0464
  168SOPE   H9Y18988   4.954   1.019   7.441 -0.3781  1.9049 -1.4019
  168SOPE  C31018989   5.101   1.107   7.587  0.3984  0.0382  0.0478
  168SOPE  H10X18990   5.028   1.190   7.600 -0.9403 -1.3469  1.5281
  168SOPE  H10Y18991   5.202   1.148   7.567  0.2425 -0.5581 -2.0410
  168SOPE  C31118992   5.095   1.022   7.712 -0.0761  0.3119 -0.4826
  168SOPE  H11X18993   5.120   1.091   7.795  1.4390 -0.3691 -0.3645
  168SOPE  H11Y18994   5.174   0.944   7.709 -0.0464  0.2708  1.1065
  168SOPE  C31218995   4.956   0.949   7.737  0.3537  0.1345 -0.5869
  168SOPE  H12X18996   4.941   0.878   7.653 -2.3047  0.4225 -0.3987
  168SOPE  H12Y18997   4.863   1.010   7.743  1.6545  2.1305 -0.0653
  168SOPE  C31318998   4.952   0.910   7.888  0.4573  0.2190 -0.5722
  168SOPE  H13X18999   5.051   0.871   7.920  0.9576  0.5500 -1.6982
  168SOPE  H13Y19000   4.890   0.819   7.906  1.8919 -0.2382  2.3293
  168SOPE  C31419001   4.907   1.018   7.985 -0.0191 -0.0045  0.6859
  168SOPE  H14X19002   4.807   1.053   7.953  0.0898 -1.0858 -0.9132
  168SOPE  H14Y19003   4.967   1.110   7.973 -0.7086  0.3107 -0.4528
  168SOPE  C31519004   4.908   0.977   8.129  0.3684 -0.2347 -0.3255
  168SOPE  H15X19005   5.016   0.975   8.155  0.3691 -2.3155 -0.4351
  168SOPE  H15Y19006   4.865   0.875   8.132 -1.1171  0.3987  0.6288
  168SOPE  C31619007   4.833   1.076   8.221  0.5600  0.0299 -0.4066
  168SOPE  H16X19008   4.738   1.108   8.173 -0.7079 -1.4180  1.0961
  168SOPE  H16Y19009   4.908   1.155   8.245 -0.4137  0.4297  1.4032
  168SOPE  C31719010   4.772   1.008   8.343  0.2840  0.0445  0.0808
  168SOPE  H17X19011   4.846   0.949   8.401  0.1982 -0.6718 -0.5278
  168SOPE  H17Y19012   4.694   0.939   8.304 -0.5938  0.7155  0.6378
  168SOPE  C31819013   4.705   1.098   8.438  0.2099 -0.1056 -0.2054
  168SOPE  H18X19014   4.633   1.164   8.385 -0.8576 -1.3445 -0.3174
  168SOPE  H18Y19015   4.768   1.168   8.497 -0.7066 -0.1080  0.7994
  168SOPE  H18Z19016   4.655   1.040   8.519  0.2555  1.2533  0.8151
  169SOPE     N19017   1.284   3.236   6.590 -0.3217  0.0979  0.5485
  169SOPE   HN119018   1.322   3.194   6.503  0.3071  1.0005  0.3780
  169SOPE   HN219019   1.339   3.194   6.668 -1.3701 -1.3415  0.5288
  169SOPE   HN319020   1.189   3.195   6.599  0.4842 -1.8068  0.7827
  169SOPE   C1219021   1.295   3.382   6.586 -0.3109  0.2223  0.1066
  169SOPE  H12A19022   1.399   3.399   6.551 -0.3801 -1.1867 -0.8049
  169SOPE  H12B19023   1.278   3.426   6.687 -2.6690  1.2710 -0.7071
  169SOPE   C1119024   1.188   3.437   6.490  0.2081  0.0778 -0.0976
  169SOPE  H11A19025   1.216   3.399   6.389 -0.4778 -1.7919  0.3907
  169SOPE  H11B19026   1.193   3.547   6.495 -0.9020  0.1715 -0.8816
  169SOPE     P19027   0.935   3.456   6.439  0.1625  0.0618  0.0080
  169SOPE   O1319028   0.807   3.391   6.475 -0.1248 -0.2759  0.5782
  169SOPE   O1419029   0.972   3.462   6.298 -0.2395 -0.7870 -0.3718
  169SOPE   O1219030   1.053   3.390   6.523 -0.3209  0.2311 -0.1793
  169SOPE   O1119031   0.945   3.609   6.493 -0.1919  0.3345  0.3122
  169SOPE    C119032   0.842   3.657   6.583  0.0756 -0.1101  0.3141
  169SOPE    HA19033   0.742   3.631   6.542  0.0382  1.2531 -0.4902
  169SOPE    HB19034   0.856   3.767   6.583  1.0747 -0.2358  0.2428
  169SOPE    C219035   0.856   3.609   6.720  0.5314  1.0365  0.3744
  169SOPE    HS19036   0.836   3.500   6.714  3.9849  0.3275  0.4783
  169SOPE   O2119037   0.775   3.687   6.810  0.2884  0.3406 -0.2101
  169SOPE   C2119038   0.650   3.646   6.808 -0.2751  0.0556 -0.0166
  169SOPE   O2219039   0.600   3.548   6.749 -0.0870 -0.0675 -0.2167
  169SOPE   C2219040   0.571   3.730   6.904  0.2927  0.2002  0.7267
  169SOPE   H2R19041   0.471   3.681   6.914  1.8207 -3.5597 -1.5834
  169SOPE   H2S19042   0.566   3.832   6.859 -1.5185  0.0794  0.6182
  169SOPE    C319043   1.002   3.612   6.767 -0.1342  0.1980 -0.3940
  169SOPE    HX19044   1.052   3.711   6.769  0.6319 -0.1266 -2.1003
  169SOPE    HY19045   1.068   3.552   6.701 -0.7195 -0.3610 -0.4810
  169SOPE   O3119046   1.005   3.557   6.897 -0.4434  0.1968 -0.0031
  169SOPE   C3119047   1.119   3.577   6.957  0.6481  0.7644  0.0512
  169SOPE   O3219048   1.219   3.621   6.905  0.6658  0.9705  0.4862
  169SOPE   C3219049   1.095   3.559   7.109 -0.5570  0.2196  0.1079
  169SOPE   H2X19050   1.071   3.452   7.122  0.2056 -0.4138 -3.1269
  169SOPE   H2Y19051   1.014   3.624   7.148  0.6643  1.0793  1.2624
  169SOPE   C2319052   0.638   3.751   7.053 -0.2964  0.3916  0.6903
  169SOPE   H3R19053   0.741   3.791   7.051  0.3598 -1.1768  1.9695
  169SOPE   H3S19054   0.644   3.654   7.108  2.4533  1.0217  1.5735
  169SOPE   C2419055   0.552   3.830   7.156 -0.5068 -0.3535  0.1520
  169SOPE   H4R19056   0.557   3.935   7.118  0.0564 -0.2919  0.3959
  169SOPE   H4S19057   0.448   3.790   7.163 -0.1003 -1.1783  1.6906
  169SOPE   C2519058   0.608   3.841   7.298 -0.0096  0.1763 -0.0839
  169SOPE   H5R19059   0.711   3.883   7.295  0.1940 -0.1661  1.6932
  169SOPE   H5S19060   0.554   3.917   7.358  1.4194  1.2309 -0.0890
  169SOPE   C2619061   0.618   3.719   7.389  0.5015  0.2242 -0.1682
  169SOPE   H6R19062   0.519   3.676   7.413  0.6515 -0.5464 -0.8971
  169SOPE   H6S19063   0.672   3.638   7.336 -0.1790 -1.1883  1.2712
  169SOPE   C2719064   0.673   3.748   7.531 -0.6913 -0.2988  0.0238
  169SOPE   H7R19065   0.774   3.793   7.527 -1.1916  0.8265 -0.1237
  169SOPE   H7S19066   0.610   3.824   7.582  0.5883 -1.8298  4.0523
  169SOPE   C2819067   0.684   3.623   7.616 -0.0541  0.1398  0.3714
  169SOPE   H8R19068   0.719   3.664   7.713  0.7628  1.3656 -0.4336
  169SOPE   H8S19069   0.585   3.578   7.639  0.2054 -1.8282 -2.0809
  169SOPE   C2919070   0.768   3.506   7.565  0.1236 -0.2533  0.2548
  169SOPE   H9119071   0.735   3.470   7.467  1.3074 -0.3655 -0.1068
  169SOPE  C21019072   0.875   3.448   7.624  0.6607 -0.2782  0.3948
  169SOPE  H10119073   0.915   3.354   7.583  1.5334  1.4742 -2.9327
  169SOPE  C21119074   0.948   3.484   7.753 -0.2754  0.0571  0.6795
  169SOPE  H11R19075   0.947   3.594   7.769  1.0191  0.0533  0.8490
  169SOPE  H11S19076   1.053   3.460   7.727 -0.3638 -1.2221  1.5112
  169SOPE  C21219077   0.920   3.418   7.887  0.0272  0.1718 -0.5057
  169SOPE  H12R19078   0.906   3.310   7.867 -1.3604  0.6400 -2.0952
  169SOPE  H12S19079   0.827   3.458   7.932  0.8123  0.1578  1.1737
  169SOPE  C21319080   1.040   3.426   7.995  0.4206 -0.3624  0.3152
  169SOPE  H13R19081   1.077   3.531   7.994 -0.8030  0.1090  2.3512
  169SOPE  H13S19082   1.125   3.367   7.954 -1.0875 -3.7458  1.9337
  169SOPE  C21419083   1.004   3.392   8.138 -0.1247  0.3403 -0.6810
  169SOPE  H14R19084   0.958   3.291   8.137  0.9178 -0.1287 -1.1305
  169SOPE  H14S19085   0.924   3.464   8.166 -0.7787  0.6081 -3.1142
  169SOPE  C21519086   1.117   3.406   8.238 -0.6328 -0.1256 -0.6154
  169SOPE  H15R19087   1.160   3.507   8.224 -0.7077 -0.1979 -1.4004
  169SOPE  H15S19088   1.195   3.328   8.227 -1.1040 -1.2613  3.4162
  169SOPE  C21619089   1.081   3.396   8.393  0.5140 -0.1146  0.3454
  169SOPE  H16R19090   1.033   3.300   8.424 -2.8002  1.3565 -0.0360
  169SOPE  H16S19091   1.011   3.481   8.403  0.7058  0.1352 -0.3787
  169SOPE  C21719092   1.195   3.447   8.485  0.0194 -0.1666 -0.2161
  169SOPE  H17R19093   1.258   3.510   8.418  0.4278 -0.6970 -0.3346
  169SOPE  H17S19094   1.262   3.366   8.521 -0.4459 -1.2133 -1.6993
  169SOPE  C21819095   1.160   3.526   8.610 -0.2662  0.2620  0.6072
  169SOPE  H18R19096   1.089   3.609   8.588 -0.3814  1.0753  3.7273
  169SOPE  H18S19097   1.244   3.568   8.670 -1.4603 -1.2269  3.4137
  169SOPE  H18T19098   1.105   3.452   8.672 -0.5827 -1.4307 -1.6438
  169SOPE   C3319099   1.219   3.600   7.192 -0.3768 -0.3891 -0.1527
  169SOPE   H3X19100   1.253   3.702   7.169 -0.8195 -0.0927  0.4753
  169SOPE   H3Y19101   1.303   3.533   7.163 -1.4604 -0.4466 -3.3403
  169SOPE   C3419102   1.182   3.595   7.342  0.4841  0.1189  0.2040
  169SOPE   H4X19103   1.195   3.492   7.381 -1.4719 -0.2218  0.0003
  169SOPE   H4Y19104   1.073   3.611   7.343  0.5630  0.6863  0.1175
  169SOPE   C3519105   1.264   3.691   7.426  0.8057  0.3735 -0.4046
  169SOPE   H5X19106   1.250   3.790   7.377  1.0048 -0.5280 -2.2899
  169SOPE   H5Y19107   1.371   3.662   7.437  0.3689 -0.2812  2.5515
  169SOPE   C3619108   1.206   3.683   7.569 -0.1056 -0.6180 -0.6988
  169SOPE   H6X19109   1.196   3.576   7.599  2.2675 -0.4107  0.9877
  169SOPE   H6Y19110   1.104   3.726   7.572 -0.3686 -1.3114  1.9246
  169SOPE   C3719111   1.283   3.751   7.689  0.4448 -0.6499  0.2093
  169SOPE   H7X19112   1.274   3.858   7.662 -0.6228 -1.1563 -1.5684
  169SOPE   H7Y19113   1.386   3.709   7.684 -0.5738 -3.1227 -0.7537
  169SOPE   C3819114   1.222   3.739   7.824 -0.4038  0.0176  0.4590
  169SOPE   H8X19115   1.138   3.812   7.828  0.6734  1.2745  0.2665
  169SOPE   H8Y19116   1.184   3.635   7.838 -1.2443  0.5358  2.1584
  169SOPE   C3919117   1.328   3.761   7.927  0.2461  0.2133 -0.5199
  169SOPE   H9X19118   1.391   3.849   7.902  0.1271  0.5659  0.4235
  169SOPE   H9Y19119   1.405   3.681   7.934 -2.1101 -2.0062  0.9644
  169SOPE  C31019120   1.266   3.800   8.066  0.1202  0.3845 -0.0238
  169SOPE  H10X19121   1.203   3.713   8.093 -0.8425  0.8652 -0.7035
  169SOPE  H10Y19122   1.209   3.892   8.044  1.6435  1.5673  0.8786
  169SOPE  C31119123   1.366   3.818   8.178 -0.5549  0.1914 -0.4128
  169SOPE  H11X19124   1.455   3.873   8.142  0.0983 -0.4560  0.2057
  169SOPE  H11Y19125   1.398   3.715   8.203  0.8320  0.3262 -1.5762
  169SOPE  C31219126   1.314   3.883   8.306 -0.9825  0.8784  0.1741
  169SOPE  H12X19127   1.322   3.993   8.292  0.9359  0.6616 -0.5338
  169SOPE  H12Y19128   1.379   3.857   8.392 -0.7444 -0.8111 -0.5068
  169SOPE  C31319129   1.170   3.843   8.332  0.5390  0.7661  0.4031
  169SOPE  H13X19130   1.160   3.733   8.343  0.6733  0.5299 -1.7060
  169SOPE  H13Y19131   1.105   3.890   8.255 -2.0779 -0.6280  1.6812
  169SOPE  C31419132   1.130   3.893   8.476  0.2060  0.0669 -0.2864
  169SOPE  H14X19133   1.169   3.995   8.495  0.5643 -0.1883  0.3398
  169SOPE  H14Y19134   1.185   3.823   8.541 -1.6119 -0.9158  0.2316
  169SOPE  C31519135   0.985   3.870   8.515 -0.1204 -0.2653  0.0460
  169SOPE  H15X19136   0.975   3.862   8.625 -0.8081 -0.0192  0.0031
  169SOPE  H15Y19137   0.962   3.772   8.469 -2.7264 -0.4664  1.6803
  169SOPE  C31619138   0.890   3.982   8.456 -0.0311  0.3461  0.4580
  169SOPE  H16X19139   0.921   4.012   8.353 -0.9989 -0.8522 -0.2026
  169SOPE  H16Y19140   0.882   4.080   8.509 -1.3499  2.1504 -2.8871
  169SOPE  C31719141   0.752   3.920   8.437  0.1811 -0.4239  0.6819
  169SOPE  H17X19142   0.707   3.887   8.533 -0.9791 -0.4326  0.1532
  169SOPE  H17Y19143   0.754   3.832   8.369  0.7881  0.9783 -1.1525
  169SOPE  C31819144   0.665   4.039   8.380  0.4732  0.1275 -0.0379
  169SOPE  H18X19145   0.723   4.107   8.314  2.5929 -0.4379  1.1688
  169SOPE  H18Y19146   0.625   4.109   8.457  1.8869 -0.5264  1.3201
  169SOPE  H18Z19147   0.576   3.996   8.330 -0.8981  1.4583  1.2071
  170SOPE     N19148   1.771   1.283   6.410  0.2678  0.5142 -0.1611
  170SOPE   HN119149   1.823   1.361   6.364  0.9829  0.0319 -0.1813
  170SOPE   HN219150   1.841   1.211   6.436  0.4804  0.2776 -1.3565
  170SOPE   HN319151   1.707   1.234   6.345  0.6125 -1.8971  1.2464
  170SOPE   C1219152   1.702   1.343   6.531 -0.0443 -0.9882  0.1743
  170SOPE  H12A19153   1.712   1.266   6.611  1.1705 -1.2423 -0.2005
  170SOPE  H12B19154   1.593   1.358   6.518 -0.0433  1.0569  2.2513
  170SOPE   C1119155   1.767   1.483   6.563  0.3677  0.0247 -0.5451
  170SOPE  H11A19156   1.876   1.463   6.575 -0.1106 -2.4232  0.1799
  170SOPE  H11B19157   1.725   1.517   6.660  1.9411 -0.2102  0.2442
  170SOPE     P19158   1.591   1.625   6.421  0.1784  0.1023 -0.3276
  170SOPE   O1319159   1.506   1.520   6.359  0.1257 -0.1854  0.2616
  170SOPE   O1419160   1.603   1.750   6.338  0.1650 -0.2335 -0.1744
  170SOPE   O1219161   1.737   1.570   6.451  0.7599  0.6450  0.5594
  170SOPE   O1119162   1.526   1.655   6.566 -0.5707 -0.3959  0.2664
  170SOPE    C119163   1.546   1.797   6.615  0.7141  0.1259  0.5973
  170SOPE    HA19164   1.458   1.864   6.609  0.6442 -0.0421 -0.3209
  170SOPE    HB19165   1.635   1.842   6.568 -0.1357  0.8110 -0.3668
  170SOPE    C219166   1.569   1.784   6.768  0.1355 -0.0196  0.0867
  170SOPE    HS19167   1.661   1.726   6.787 -1.6415 -2.0205  3.0450
  170SOPE   O2119168   1.458   1.712   6.817 -0.0926  0.3472 -0.4983
  170SOPE   C2119169   1.485   1.650   6.937  0.4800  0.4157 -0.8187
  170SOPE   O2219170   1.596   1.637   6.986  0.0308 -0.8454  0.0688
  170SOPE   C2219171   1.369   1.558   6.976  0.2834  0.3665 -0.6754
  170SOPE   H2R19172   1.414   1.457   6.975 -1.7767 -0.5989  0.5137
  170SOPE   H2S19173   1.291   1.554   6.897  1.6485  0.2642 -2.0396
  170SOPE    C319174   1.578   1.915   6.841 -0.2330  0.2753 -0.4752
  170SOPE    HX19175   1.493   1.982   6.814 -1.4609 -0.8194  0.6175
  170SOPE    HY19176   1.671   1.958   6.796  0.8556 -1.1476  0.3654
  170SOPE   O3119177   1.586   1.906   6.984 -0.7800 -0.6416  0.1343
  170SOPE   C3119178   1.514   1.977   7.068 -0.1780  0.3649 -0.1526
  170SOPE   O3219179   1.425   2.054   7.033  0.3779 -0.3354 -0.6292
  170SOPE   C3219180   1.543   1.941   7.214  0.0473 -0.7221 -0.2583
  170SOPE   H2X19181   1.558   1.831   7.221  0.3643 -0.5694  1.7708
  170SOPE   H2Y19182   1.460   1.975   7.279  1.0016  1.4600 -0.1450
  170SOPE   C2319183   1.314   1.578   7.124  0.4036  0.2261  0.2108
  170SOPE   H3R19184   1.403   1.598   7.188 -0.5750 -1.5788  2.1975
  170SOPE   H3S19185   1.265   1.487   7.164 -1.2513  1.2830  0.6178
  170SOPE   C2419186   1.210   1.688   7.136 -0.1780  0.0638  0.0091
  170SOPE   H4R19187   1.232   1.793   7.108 -0.6987  0.4946  1.1516
  170SOPE   H4S19188   1.129   1.655   7.067  1.2603  2.3572 -2.8495
  170SOPE   C2519189   1.158   1.685   7.282  0.1861  0.1517  0.5554
  170SOPE   H5R19190   1.063   1.741   7.294  1.1233  1.5571  1.4528
  170SOPE   H5S19191   1.137   1.579   7.311 -0.8368  0.8740  2.5475
  170SOPE   C2619192   1.260   1.732   7.377  0.8863 -0.2763  0.6814
  170SOPE   H6R19193   1.351   1.669   7.367  0.7556 -0.5955  1.4726
  170SOPE   H6S19194   1.293   1.836   7.353  3.3982 -1.0085  0.8177
  170SOPE   C2719195   1.212   1.733   7.525 -0.0125  0.3856 -0.5012
  170SOPE   H7R19196   1.137   1.815   7.531  1.9105  2.1272  0.1772
  170SOPE   H7S19197   1.161   1.637   7.548 -2.9233  1.7713 -0.8433
  170SOPE   C2819198   1.315   1.772   7.628 -0.3256 -0.1782 -0.4064
  170SOPE   H8R19199   1.385   1.686   7.640  0.5286  0.6858  0.9789
  170SOPE   H8S19200   1.379   1.856   7.595 -2.9977  0.8338 -3.2608
  170SOPE   C2919201   1.268   1.793   7.766  0.7308  0.0145 -0.2134
  170SOPE   H9119202   1.261   1.899   7.793 -0.8442  0.0706 -0.7987
  170SOPE  C21019203   1.239   1.695   7.860  0.3923  0.5070 -0.0334
  170SOPE  H10119204   1.204   1.724   7.960 -1.6084 -0.2143 -0.4900
  170SOPE  C21119205   1.243   1.546   7.836  0.3042 -0.1205 -0.2364
  170SOPE  H11R19206   1.241   1.530   7.726 -1.0543 -0.4922 -0.1564
  170SOPE  H11S19207   1.165   1.492   7.893  0.4570 -1.6595 -1.4437
  170SOPE  C21219208   1.367   1.482   7.901  0.2877 -0.6464  0.1248
  170SOPE  H12R19209   1.452   1.526   7.845  0.7200 -1.9913 -0.3091
  170SOPE  H12S19210   1.371   1.375   7.871  2.0565 -0.2603 -1.0861
  170SOPE  C21319211   1.390   1.499   8.053 -0.3082 -0.8231  0.0543
  170SOPE  H13R19212   1.391   1.608   8.078 -0.9951 -0.7829 -0.0774
  170SOPE  H13S19213   1.493   1.462   8.072 -0.4484 -0.6805  1.1132
  170SOPE  C21419214   1.295   1.428   8.150  0.0320 -0.2500 -0.1007
  170SOPE  H14R19215   1.253   1.331   8.116  0.5388 -0.1270 -1.1188
  170SOPE  H14S19216   1.203   1.489   8.161 -1.0617 -1.4845 -2.0591
  170SOPE  C21519217   1.365   1.402   8.287 -0.0543 -0.2650 -0.0899
  170SOPE  H15R19218   1.409   1.499   8.318  1.6464 -0.7209 -1.0332
  170SOPE  H15S19219   1.449   1.332   8.271  0.2223  0.1195 -0.3390
  170SOPE  C21619220   1.268   1.366   8.401 -0.2223 -0.3968 -0.8440
  170SOPE  H16R19221   1.201   1.287   8.361 -0.4267  0.2266 -1.7727
  170SOPE  H16S19222   1.199   1.449   8.430  1.0668  0.8305 -1.2067
  170SOPE  C21719223   1.346   1.327   8.531 -0.3893  0.0854 -0.1231
  170SOPE  H17R19224   1.412   1.409   8.566  1.4193 -1.4649  0.1857
  170SOPE  H17S19225   1.415   1.244   8.502  0.3835  0.8228 -0.4133
  170SOPE  C21819226   1.255   1.273   8.639  0.2489 -0.5835  0.6612
  170SOPE  H18R19227   1.202   1.357   8.690  1.4202  1.6187 -1.6763
  170SOPE  H18S19228   1.312   1.224   8.721 -1.2082 -1.8345  0.9556
  170SOPE  H18T19229   1.186   1.200   8.592 -1.8449  0.5622  1.8386
  170SOPE   C3319230   1.673   1.993   7.286  0.3508 -0.5112  0.6377
  170SOPE   H3X19231   1.770   1.945   7.263 -0.5958 -1.0320 -2.4563
  170SOPE   H3Y19232   1.669   1.987   7.397 -0.1593  0.4147  0.6706
  170SOPE   C3419233   1.695   2.148   7.256  0.1189  0.1124 -0.0043
  170SOPE   H4X19234   1.626   2.219   7.306 -0.3335 -0.3151 -0.0186
  170SOPE   H4Y19235   1.681   2.158   7.147  0.7792  0.7561 -0.0307
  170SOPE   C3519236   1.835   2.185   7.277  1.1039 -0.7090  0.0892
  170SOPE   H5X19237   1.853   2.285   7.231 -0.1136 -0.2711  0.5539
  170SOPE   H5Y19238   1.903   2.104   7.245  0.4748 -1.1118 -0.2193
  170SOPE   C3619239   1.862   2.187   7.433 -0.2935 -0.6135 -0.5250
  170SOPE   H6X19240   1.973   2.187   7.442 -0.4280  0.8443  1.5557
  170SOPE   H6Y19241   1.828   2.087   7.468 -2.2638  0.5642  1.0303
  170SOPE   C3719242   1.808   2.307   7.511 -0.3328  0.4641  0.1541
  170SOPE   H7X19243   1.697   2.311   7.497  0.0369  1.5295 -2.7602
  170SOPE   H7Y19244   1.830   2.395   7.447 -0.4083 -2.0156 -3.4940
  170SOPE   C3819245   1.848   2.314   7.656 -0.6116 -0.3306 -0.3497
  170SOPE   H8X19246   1.802   2.409   7.691  2.0075  0.5953  0.7422
  170SOPE   H8Y19247   1.958   2.330   7.667 -0.7371 -0.3592  1.0684
  170SOPE   C3919248   1.797   2.198   7.738  0.2202  0.3183  0.2399
  170SOPE   H9X19249   1.820   2.107   7.678 -0.4182  2.3801 -3.2787
  170SOPE   H9Y19250   1.688   2.219   7.739  0.3398  1.0902 -1.2848
  170SOPE  C31019251   1.867   2.186   7.870 -0.4053 -0.1291 -0.1501
  170SOPE  H10X19252   1.804   2.158   7.957 -3.2679 -1.5898 -2.5949
  170SOPE  H10Y19253   1.889   2.292   7.895  0.5091 -0.2604 -0.3945
  170SOPE  C31119254   1.976   2.086   7.855 -0.5363  0.1262 -0.5815
  170SOPE  H11X19255   2.054   2.140   7.797 -1.9749  2.4401 -0.4604
  170SOPE  H11Y19256   1.940   2.003   7.790 -0.5245  1.0344 -1.7817
  170SOPE  C31219257   2.031   2.035   7.988 -0.7510  0.9146 -0.2060
  170SOPE  H12X19258   1.942   1.991   8.038  0.4704 -0.1488  1.0657
  170SOPE  H12Y19259   2.072   2.119   8.048  1.7302 -1.4751  1.5893
  170SOPE  C31319260   2.127   1.918   7.965  0.3181  0.2895 -0.0858
  170SOPE  H13X19261   2.217   1.937   7.902 -1.8844  0.5838 -3.2293
  170SOPE  H13Y19262   2.078   1.841   7.902 -0.4356  0.0089  0.8333
  170SOPE  C31419263   2.171   1.846   8.092  0.2305  0.5632 -0.0074
  170SOPE  H14X19264   2.183   1.923   8.171  1.0380  0.4785 -0.0356
  170SOPE  H14Y19265   2.276   1.809   8.085  0.2166  0.4478  0.3610
  170SOPE  C31519266   2.076   1.740   8.157 -0.2327 -1.0785 -0.1000
  170SOPE  H15X19267   2.052   1.663   8.081  1.2245 -1.0360 -0.6321
  170SOPE  H15Y19268   1.980   1.789   8.181  0.6054  0.3474  0.4242
  170SOPE  C31619269   2.121   1.686   8.299 -0.3798  0.0391  0.0420
  170SOPE  H16X19270   2.030   1.647   8.349  0.7050  1.6099  3.3339
  170SOPE  H16Y19271   2.155   1.777   8.352 -0.8131  0.4082 -0.3056
  170SOPE  C31719272   2.229   1.582   8.276  0.2485  0.4626  0.7892
  170SOPE  H17X19273   2.321   1.625   8.233  1.3754 -3.9952 -1.6099
  170SOPE  H17Y19274   2.188   1.514   8.198  0.4810  2.4243 -1.0902
  170SOPE  C31819275   2.286   1.510   8.393 -0.2421 -0.0638 -0.5508
  170SOPE  H18X19276   2.356   1.429   8.362  0.7896  0.1407  1.1520
  170SOPE  H18Y19277   2.204   1.459   8.449 -0.5545  1.1275  0.0841
  170SOPE  H18Z19278   2.344   1.566   8.469  1.8153 -2.5192 -0.2203
  171SOPE     N19279   1.371   5.182   6.346  0.3115  0.6215  0.4158
  171SOPE   HN119280   1.268   5.184   6.359  0.1107  0.4139 -1.0681
  171SOPE   HN219281   1.388   5.280   6.317 -2.3889  0.6370 -1.2535
  171SOPE   HN319282   1.396   5.112   6.273 -3.0541  0.3072 -0.5141
  171SOPE   C1219283   1.448   5.162   6.471 -0.7631  0.5178  0.2554
  171SOPE  H12A19284   1.460   5.053   6.483 -0.9777  0.2630 -1.6878
  171SOPE  H12B19285   1.396   5.203   6.560  0.5084 -2.9202  2.6874
  171SOPE   C1119286   1.583   5.229   6.457 -0.7073  0.3848  0.6705
  171SOPE  H11A19287   1.639   5.184   6.373 -0.5196  1.5766  0.1526
  171SOPE  H11B19288   1.658   5.216   6.538  0.5032  0.1061 -0.4759
  171SOPE     P19289   1.543   5.476   6.539  0.1809 -0.2292 -0.2498
  171SOPE   O1319290   1.403   5.471   6.581  1.0188 -0.1645  0.2389
  171SOPE   O1419291   1.588   5.616   6.502  0.3244  0.2608  0.1227
  171SOPE   O1219292   1.567   5.365   6.421  0.3841  0.5060 -0.3022
  171SOPE   O1119293   1.628   5.428   6.669  0.2769  0.1216 -0.1267
  171SOPE    C119294   1.772   5.442   6.688  0.3270  0.0918  0.2261
  171SOPE    HA19295   1.801   5.542   6.648 -0.7038  0.8198  1.2483
  171SOPE    HB19296   1.825   5.364   6.630  0.1175  0.1603 -0.0564
  171SOPE    C219297   1.806   5.430   6.837  0.8886  0.0683 -0.0187
  171SOPE    HS19298   1.763   5.335   6.876  0.9752 -0.2483 -0.6812
  171SOPE   O2119299   1.750   5.542   6.906 -0.0947 -0.4287  0.5966
  171SOPE   C2119300   1.716   5.539   7.029  0.9736  0.0316 -0.4386
  171SOPE   O2219301   1.717   5.439   7.099  0.2510  0.3514  0.2579
  171SOPE   C2219302   1.657   5.677   7.067 -0.1488  0.4942 -0.0703
  171SOPE   H2R19303   1.551   5.681   7.033  0.3324  0.1027 -1.6994
  171SOPE   H2S19304   1.728   5.753   7.027 -0.7367  1.0773 -0.0173
  171SOPE    C319305   1.960   5.414   6.840  0.6085 -0.1548 -0.7499
  171SOPE    HX19306   2.004   5.493   6.776  1.2003 -2.3538 -3.1754
  171SOPE    HY19307   1.994   5.318   6.795  1.9677  0.4058 -0.9349
  171SOPE   O3119308   2.008   5.417   6.975  0.4690 -0.1265 -0.1664
  171SOPE   C3119309   2.108   5.502   6.998  0.3023  0.5129 -0.4369
  171SOPE   O3219310   2.138   5.594   6.925  0.1708  0.3963  0.2336
  171SOPE   C3219311   2.171   5.469   7.132 -0.2904  1.0832  0.8344
  171SOPE   H2X19312   2.266   5.526   7.140 -0.3043  1.0997  0.8796
  171SOPE   H2Y19313   2.181   5.361   7.154 -0.7924  0.8224 -0.1915
  171SOPE   C2319314   1.664   5.718   7.215 -0.2190  0.3143 -0.7437
  171SOPE   H3R19315   1.690   5.821   7.247 -0.4954 -0.0790  0.7803
  171SOPE   H3S19316   1.741   5.653   7.261 -1.1080 -1.2088 -1.3613
  171SOPE   C2419317   1.537   5.669   7.281  0.9029  0.9544  0.1145
  171SOPE   H4R19318   1.442   5.711   7.243  1.8943  2.8528 -0.3118
  171SOPE   H4S19319   1.525   5.559   7.269 -2.8410  1.6171 -2.9953
  171SOPE   C2519320   1.557   5.683   7.434 -0.0739 -0.1287 -0.3538
  171SOPE   H5R19321   1.467   5.633   7.475 -0.9683 -0.9861 -3.2228
  171SOPE   H5S19322   1.652   5.631   7.456  0.0633 -0.5653 -1.9212
  171SOPE   C2619323   1.551   5.819   7.499  0.1030  0.4226 -0.4071
  171SOPE   H6R19324   1.608   5.889   7.433  1.8642 -0.1315  0.5059
  171SOPE   H6S19325   1.442   5.841   7.496 -0.3080 -0.8591  2.7518
  171SOPE   C2719326   1.604   5.832   7.642  0.2689 -0.1056  0.1519
  171SOPE   H7R19327   1.656   5.740   7.677  0.3358 -0.3356 -0.5482
  171SOPE   H7S19328   1.657   5.929   7.659 -0.7404  0.3406  0.7721
  171SOPE   C2819329   1.481   5.842   7.737  0.3903 -0.6799 -0.1136
  171SOPE   H8R19330   1.399   5.898   7.688 -0.5559 -0.9279  1.1609
  171SOPE   H8S19331   1.443   5.738   7.752  1.8116 -1.1535  0.2854
  171SOPE   C2919332   1.511   5.905   7.875 -0.0597 -0.1991  1.1011
  171SOPE   H9119333   1.572   5.996   7.874 -0.1096 -0.1589 -1.4997
  171SOPE  C21019334   1.497   5.844   7.989  0.2762 -0.4507  0.2154
  171SOPE  H10119335   1.541   5.894   8.077 -0.9927 -0.7738  1.0587
  171SOPE  C21119336   1.448   5.708   8.024 -0.0054 -0.5810  0.1183
  171SOPE  H11R19337   1.515   5.663   8.101 -0.9009  0.7656  1.7139
  171SOPE  H11S19338   1.460   5.641   7.936  1.5573 -1.3148  0.8668
  171SOPE  C21219339   1.310   5.683   8.081  0.1102 -0.2191 -0.0424
  171SOPE  H12R19340   1.309   5.723   8.185 -1.0434 -0.9401  0.2342
  171SOPE  H12S19341   1.299   5.573   8.095 -2.4686  0.0239  0.1088
  171SOPE  C21319342   1.192   5.749   7.998 -0.4660 -0.1391  0.1108
  171SOPE  H13R19343   1.192   5.709   7.894 -1.5790  1.8516 -0.6753
  171SOPE  H13S19344   1.206   5.859   7.992 -2.4692  0.1513  0.4486
  171SOPE  C21419345   1.059   5.729   8.062  0.2601 -0.2665 -0.3699
  171SOPE  H14R19346   1.042   5.620   8.073 -2.1052  0.0813 -0.2484
  171SOPE  H14S19347   0.970   5.760   8.002  1.2020 -0.2987 -1.8046
  171SOPE  C21519348   1.058   5.795   8.205  0.1484 -0.3002  0.5606
  171SOPE  H15R19349   1.107   5.892   8.182 -1.6143 -0.3150 -3.8976
  171SOPE  H15S19350   1.116   5.745   8.285  1.7122  1.3263  0.4762
  171SOPE  C21619351   0.909   5.827   8.242 -0.2477  0.5914  0.3380
  171SOPE  H16R19352   0.857   5.730   8.257  0.8516  0.4131  3.4169
  171SOPE  H16S19353   0.866   5.872   8.150 -0.1694 -1.4339 -0.7154
  171SOPE  C21719354   0.906   5.922   8.366 -0.3300 -0.5471  0.1922
  171SOPE  H17R19355   0.988   5.994   8.347  0.9760 -1.6562  1.5059
  171SOPE  H17S19356   0.946   5.859   8.449 -0.2278  2.0156  2.1249
  171SOPE  C21819357   0.769   5.973   8.407  0.1138  0.2157 -0.0821
  171SOPE  H18R19358   0.767   6.040   8.496  0.5711  0.5035 -0.2809
  171SOPE  H18S19359   0.695   5.894   8.427  1.0061 -0.8483 -0.8862
  171SOPE  H18T19360   0.734   6.035   8.322 -1.0220  2.5753  2.0527
  171SOPE   C3319361   2.075   5.537   7.238 -0.0295 -0.4242 -0.8689
  171SOPE   H3X19362   1.974   5.491   7.227 -0.1292 -0.4047 -0.0897
  171SOPE   H3Y19363   2.081   5.647   7.231  0.8016 -0.3189  1.0434
  171SOPE   C3419364   2.116   5.496   7.375  0.0412  0.2343  0.2866
  171SOPE   H4X19365   2.204   5.557   7.405 -1.4523  1.8653  1.5060
  171SOPE   H4Y19366   2.148   5.390   7.380  2.0479  0.9117  3.5952
  171SOPE   C3519367   2.005   5.507   7.480 -0.0059 -0.2879 -0.1020
  171SOPE   H5X19368   1.924   5.437   7.449  1.7078 -1.0468 -3.0703
  171SOPE   H5Y19369   1.960   5.609   7.477  1.5494  0.3841 -1.3722
  171SOPE   C3619370   2.048   5.478   7.626 -0.5057  0.3529  0.3682
  171SOPE   H6X19371   2.138   5.541   7.644 -0.8879  0.7656  0.8601
  171SOPE   H6Y19372   2.075   5.370   7.624  1.0727  0.7488 -0.5373
  171SOPE   C3719373   1.943   5.522   7.731 -0.1082  0.0776  0.4968
  171SOPE   H7X19374   1.866   5.446   7.704 -1.3491  1.2080  0.8140
  171SOPE   H7Y19375   1.897   5.622   7.722  0.6065  0.7573  3.8630
  171SOPE   C3819376   1.986   5.509   7.874  0.5215 -0.3793  0.0514
  171SOPE   H8X19377   2.076   5.572   7.888  0.2567  0.0651 -0.2077
  171SOPE   H8Y19378   2.024   5.410   7.905 -0.4598 -0.9537 -0.5395
  171SOPE   C3919379   1.872   5.556   7.968 -0.4359  0.3222  0.4372
  171SOPE   H9X19380   1.782   5.496   7.941  0.2225 -0.2798 -0.4470
  171SOPE   H9Y19381   1.859   5.664   7.945 -2.2741  0.0847  0.2685
  171SOPE  C31019382   1.897   5.539   8.113 -0.9793  0.1727 -0.1076
  171SOPE  H10X19383   1.990   5.582   8.155  1.5428 -4.6775 -0.2873
  171SOPE  H10Y19384   1.892   5.430   8.134 -2.0773  0.1569 -0.4694
  171SOPE  C31119385   1.772   5.592   8.188 -0.0801  0.0727 -0.1686
  171SOPE  H11X19386   1.680   5.548   8.144  1.4597 -2.8698 -0.5206
  171SOPE  H11Y19387   1.773   5.703   8.183  2.4378  0.0491 -1.2483
  171SOPE  C31219388   1.779   5.553   8.342  0.4275  0.2280  0.3692
  171SOPE  H12X19389   1.876   5.600   8.367  0.1978  1.5991 -1.1837
  171SOPE  H12Y19390   1.782   5.442   8.340 -2.4462  0.0741  2.2996
  171SOPE  C31319391   1.651   5.606   8.415  0.6006 -0.2697  0.2788
  171SOPE  H13X19392   1.628   5.561   8.514 -2.2264 -0.0329 -0.2182
  171SOPE  H13Y19393   1.566   5.564   8.356 -0.2181 -0.2377  1.4229
  171SOPE  C31419394   1.628   5.754   8.422  0.0301  0.2224 -1.2633
  171SOPE  H14X19395   1.650   5.804   8.325  1.0876 -0.0478 -1.1651
  171SOPE  H14Y19396   1.692   5.820   8.484  0.9026 -1.0922 -0.7528
  171SOPE  C31519397   1.476   5.790   8.445 -0.3133 -0.2950  0.5459
  171SOPE  H15X19398   1.407   5.723   8.390  0.2457 -0.5615  0.1612
  171SOPE  H15Y19399   1.452   5.893   8.411  1.0595  0.2792  1.2581
  171SOPE  C31619400   1.455   5.788   8.600  0.9582  0.0561  0.2252
  171SOPE  H16X19401   1.537   5.855   8.635 -0.9455  2.4809  0.2376
  171SOPE  H16Y19402   1.464   5.683   8.635 -1.3274 -0.1719  0.1943
  171SOPE  C31719403   1.320   5.859   8.637  0.3140  0.0379 -0.0075
  171SOPE  H17X19404   1.350   5.966   8.642 -0.7829  0.4132 -1.2338
  171SOPE  H17Y19405   1.294   5.824   8.740 -0.6109 -0.8667 -0.5452
  171SOPE  C31819406   1.201   5.852   8.551  0.7882 -0.1467  0.1550
  171SOPE  H18X19407   1.192   5.747   8.518  0.8079  0.9325 -3.4413
  171SOPE  H18Y19408   1.211   5.913   8.458  5.1685 -1.5045 -0.4120
  171SOPE  H18Z19409   1.117   5.907   8.599 -0.7365  0.1161 -2.6844
  172SOPE     N19410   2.705   6.807   6.656  0.1576  0.0828  0.2270
  172SOPE   HN119411   2.711   6.901   6.700  0.8220 -1.1086  2.7943
  172SOPE   HN219412   2.622   6.750   6.682 -0.8245  1.3746 -0.0563
  172SOPE   HN319413   2.788   6.757   6.694  0.2275  0.7433  0.9637
  172SOPE   C1219414   2.709   6.805   6.506 -0.3148 -0.2303 -0.1285
  172SOPE  H12A19415   2.746   6.707   6.469 -2.4900 -0.7767 -0.8928
  172SOPE  H12B19416   2.786   6.884   6.492  0.0747 -0.9762 -2.4447
  172SOPE   C1119417   2.578   6.838   6.440 -0.9968 -1.3095  0.6908
  172SOPE  H11A19418   2.598   6.868   6.335  1.5354  1.2511  1.8656
  172SOPE  H11B19419   2.528   6.931   6.475 -0.8636 -1.4781  1.3458
  172SOPE     P19420   2.359   6.737   6.555  0.1840 -0.1303 -0.1036
  172SOPE   O1319421   2.288   6.609   6.545  0.4029  0.1550  0.4237
  172SOPE   O1419422   2.280   6.859   6.534  0.3787  0.6962  0.4296
  172SOPE   O1219423   2.479   6.734   6.451  1.4757 -0.9248  0.1613
  172SOPE   O1119424   2.438   6.761   6.688 -0.1254 -0.0708 -0.2385
  172SOPE    C119425   2.400   6.849   6.790  0.1202 -0.6205  0.6762
  172SOPE    HA19426   2.294   6.882   6.780  0.8508  1.3919 -0.7234
  172SOPE    HB19427   2.446   6.949   6.775  0.3768 -0.7258  0.7680
  172SOPE    C219428   2.398   6.786   6.931 -0.3382 -0.1793  0.0511
  172SOPE    HS19429   2.498   6.800   6.977  0.1080  3.2802 -1.8204
  172SOPE   O2119430   2.388   6.644   6.932 -0.0835  0.2092  0.0789
  172SOPE   C2119431   2.273   6.586   6.910  0.1972 -0.0095  0.1525
  172SOPE   O2219432   2.164   6.639   6.899  0.6567 -0.1435  0.5246
  172SOPE   C2219433   2.304   6.435   6.932  0.2848 -0.6976  0.0477
  172SOPE   H2R19434   2.409   6.414   6.961  0.1469  0.0218  1.1186
  172SOPE   H2S19435   2.282   6.381   6.837 -1.1558  0.5914 -0.3771
  172SOPE    C319436   2.294   6.857   7.025 -0.1318 -0.3814 -0.2801
  172SOPE    HX19437   2.189   6.861   6.991 -0.0719 -1.4968 -0.6220
  172SOPE    HY19438   2.330   6.962   7.018 -1.6160  0.0530 -1.7943
  172SOPE   O3119439   2.298   6.805   7.159 -0.7138  0.0490 -0.4313
  172SOPE   C3119440   2.379   6.857   7.243  0.1667  0.3284  0.1081
  172SOPE   O3219441   2.459   6.946   7.220  0.3151  0.2360 -0.1372
  172SOPE   C3219442   2.385   6.778   7.373 -0.0606 -0.0539  0.5796
  172SOPE   H2X19443   2.480   6.808   7.423 -0.6964 -0.0467  1.8079
  172SOPE   H2Y19444   2.395   6.672   7.344 -1.5710 -0.0963  0.1590
  172SOPE   C2319445   2.213   6.378   7.040  0.1913  0.2792 -0.3055
  172SOPE   H3R19446   2.215   6.267   7.035 -0.6197  0.2661 -0.3470
  172SOPE   H3S19447   2.107   6.409   7.030 -1.5320 -4.5381  1.5646
  172SOPE   C2419448   2.252   6.410   7.185  0.1136 -0.3265 -0.1079
  172SOPE   H4R19449   2.349   6.380   7.230  0.1683  1.6563  1.1768
  172SOPE   H4S19450   2.247   6.520   7.204 -0.5859 -0.9179  3.4569
  172SOPE   C2519451   2.137   6.352   7.273 -0.0204 -0.3034  0.6716
  172SOPE   H5R19452   2.042   6.406   7.256  1.5388  1.7070 -1.8791
  172SOPE   H5S19453   2.125   6.246   7.241 -0.2691 -0.5062  1.4271
  172SOPE   C2619454   2.161   6.356   7.423  0.0606 -0.8662 -0.1673
  172SOPE   H6R19455   2.133   6.257   7.464 -0.2566 -1.3574 -1.5478
  172SOPE   H6S19456   2.272   6.359   7.435 -0.1827  0.6636  1.8128
  172SOPE   C2719457   2.100   6.476   7.494 -0.1430 -0.4377 -0.4638
  172SOPE   H7R19458   2.122   6.567   7.434  0.8872  0.3887  1.1349
  172SOPE   H7S19459   1.989   6.470   7.496 -0.1401 -0.8727 -1.4114
  172SOPE   C2819460   2.143   6.504   7.633  0.6085  0.2593 -0.2043
  172SOPE   H8R19461   2.253   6.517   7.635  0.8644 -1.8561  0.8897
  172SOPE   H8S19462   2.091   6.596   7.666  1.2357  0.3261  0.6376
  172SOPE   C2919463   2.097   6.396   7.730  0.1295 -0.6171  0.0321
  172SOPE   H9119464   2.059   6.310   7.674 -0.0530 -0.3311 -0.2886
  172SOPE  C21019465   2.081   6.400   7.866  0.4462  0.3347  0.6586
  172SOPE  H10119466   2.039   6.309   7.912  1.0562 -0.6845 -0.7524
  172SOPE  C21119467   2.103   6.522   7.944  0.4319  0.5625 -0.7982
  172SOPE  H11R19468   2.019   6.590   7.921 -1.0806 -1.2348 -0.6516
  172SOPE  H11S19469   2.199   6.571   7.916  0.2792  1.6093  0.4549
  172SOPE  C21219470   2.096   6.504   8.092  0.4457  0.8199  0.1668
  172SOPE  H12R19471   2.012   6.437   8.121  0.0070  1.1668 -0.3007
  172SOPE  H12S19472   2.087   6.601   8.146 -0.6513 -0.3402  2.1573
  172SOPE  C21319473   2.220   6.433   8.157 -0.3089  0.7197  0.0045
  172SOPE  H13R19474   2.306   6.503   8.171  1.4407 -1.3320 -0.1215
  172SOPE  H13S19475   2.268   6.354   8.096  1.0485 -0.6971  2.7729
  172SOPE  C21419476   2.182   6.353   8.289 -0.4225 -0.3290 -0.1182
  172SOPE  H14R19477   2.107   6.273   8.273 -0.8806  0.0622  0.0780
  172SOPE  H14S19478   2.139   6.422   8.365 -1.7772  1.8427 -2.7868
  172SOPE  C21519479   2.311   6.293   8.354 -0.0069 -0.2367  0.4740
  172SOPE  H15R19480   2.391   6.369   8.352  0.7648 -1.0506 -0.1833
  172SOPE  H15S19481   2.354   6.222   8.280 -0.3986  0.0821 -0.0665
  172SOPE  C21619482   2.301   6.215   8.493 -0.2003 -0.8298 -0.5871
  172SOPE  H16R19483   2.228   6.131   8.496 -1.8349  0.5590 -0.7405
  172SOPE  H16S19484   2.275   6.290   8.571 -0.1326 -2.5547  1.1416
  172SOPE  C21719485   2.433   6.151   8.530  0.4100 -0.3200  0.5655
  172SOPE  H17R19486   2.455   6.064   8.464  2.2645 -0.7736  1.7469
  172SOPE  H17S19487   2.411   6.113   8.632 -1.9407  2.9700  1.3647
  172SOPE  C21819488   2.550   6.248   8.544 -0.9272 -0.4061  0.7053
  172SOPE  H18R19489   2.635   6.197   8.592  0.7996  2.2658  0.6164
  172SOPE  H18S19490   2.524   6.332   8.612  1.7040 -0.1484  1.4295
  172SOPE  H18T19491   2.592   6.275   8.444  1.0298  1.4746  1.9934
  172SOPE   C3319492   2.264   6.820   7.463 -0.5735 -0.2520  0.1383
  172SOPE   H3X19493   2.264   6.757   7.555 -0.1195 -0.2553  0.1344
  172SOPE   H3Y19494   2.161   6.804   7.425 -0.6700 -0.0813  0.3221
  172SOPE   C3419495   2.284   6.961   7.520 -0.6170  0.1356 -0.4789
  172SOPE   H4X19496   2.301   7.035   7.438  0.0407  0.7699  0.2250
  172SOPE   H4Y19497   2.372   6.944   7.585  0.5447 -1.6413 -2.4262
  172SOPE   C3519498   2.166   7.013   7.599  1.1458  0.2666  0.0502
  172SOPE   H5X19499   2.066   6.989   7.558  2.1517 -3.3827 -0.4778
  172SOPE   H5Y19500   2.163   7.123   7.609  0.6639  0.2929 -0.3715
  172SOPE   C3619501   2.165   6.962   7.741 -0.1724  0.2044 -0.3967
  172SOPE   H6X19502   2.269   6.980   7.776 -0.1080  2.0427 -1.5153
  172SOPE   H6Y19503   2.153   6.851   7.738  1.7143 -0.0006 -1.1148
  172SOPE   C3719504   2.074   7.034   7.837  0.1326  0.6119 -0.0423
  172SOPE   H7X19505   1.967   7.004   7.827  0.6551 -1.0403 -0.9359
  172SOPE   H7Y19506   2.079   7.145   7.838 -0.8809  0.6873 -1.4759
  172SOPE   C3819507   2.124   6.989   7.979 -0.0476 -0.0628  0.1514
  172SOPE   H8X19508   2.230   7.022   7.984  0.7082 -2.4499  0.8689
  172SOPE   H8Y19509   2.116   6.879   7.994  0.7987  0.0088  1.2221
  172SOPE   C3919510   2.026   7.041   8.083  0.0718 -0.0606 -0.1856
  172SOPE   H9X19511   1.919   7.023   8.060 -0.1390  1.8554 -0.8238
  172SOPE   H9Y19512   2.029   7.152   8.071  1.0618 -0.0951 -0.3242
  172SOPE  C31019513   2.053   6.982   8.226  0.3173 -1.0743  0.6566
  172SOPE  H10X19514   2.156   7.016   8.250 -0.7366  0.2805  3.4185
  172SOPE  H10Y19515   2.041   6.871   8.228 -0.6488 -0.9718  0.4028
  172SOPE  C31119516   1.962   7.041   8.339  0.5505 -0.1922 -0.2271
  172SOPE  H11X19517   1.859   7.006   8.320  0.1426  0.5829  0.5371
  172SOPE  H11Y19518   1.957   7.149   8.315  1.4362 -0.2536 -0.7172
  172SOPE  C31219519   2.004   7.022   8.486  0.0297  0.4237  0.1106
  172SOPE  H12X19520   1.925   7.068   8.549 -0.5074  1.2639 -1.1522
  172SOPE  H12Y19521   2.090   7.090   8.504  0.7443 -0.8640  1.6900
  172SOPE  C31319522   2.022   6.875   8.527 -0.4240  0.7394 -0.4520
  172SOPE  H13X19523   2.092   6.828   8.455 -0.6664 -0.4707  0.0973
  172SOPE  H13Y19524   1.930   6.813   8.532 -0.3745  0.5493 -1.8086
  172SOPE  C31419525   2.092   6.844   8.667  0.0297  0.6901 -0.0737
  172SOPE  H14X19526   2.194   6.882   8.646  0.7403 -1.1380 -0.0256
  172SOPE  H14Y19527   2.115   6.738   8.692 -4.2236 -0.8023 -2.0900
  172SOPE  C31519528   2.045   6.935   8.786  0.0262 -0.4121  0.0930
  172SOPE  H15X19529   2.039   7.043   8.760  0.8632 -0.0729  1.2845
  172SOPE  H15Y19530   2.123   6.938   8.865 -0.7859  0.8394  0.8640
  172SOPE  C31619531   1.904   6.895   8.854 -0.1779  0.5354  0.4410
  172SOPE  H16X19532   1.830   6.918   8.775  0.4517 -0.1954 -0.3781
  172SOPE  H16Y19533   1.886   6.981   8.922 -0.5183  2.7235 -2.3005
  172SOPE  C31719534   1.894   6.759   8.907 -0.0229 -0.4030  0.3593
  172SOPE  H17X19535   1.898   6.682   8.827 -1.0056 -0.2143  0.1260
  172SOPE  H17Y19536   1.793   6.734   8.947  0.0098  1.3042  1.5711
  172SOPE  C31819537   2.001   6.747   9.027 -0.0901 -0.1385  0.1135
  172SOPE  H18X19538   1.978   6.823   9.105  2.1936 -1.2161  1.9013
  172SOPE  H18Y19539   2.105   6.764   8.992 -0.9196  1.6262 -1.6038
  172SOPE  H18Z19540   1.997   6.642   9.064 -0.4150 -0.2895 -0.3480
  173SAPI   C1219541   4.347   4.106  10.972  0.0168 -0.2516  0.1394
  173SAPI    H219542   4.411   4.038  10.911 -1.7386  0.1965 -2.2645
  173SAPI    O219543   4.217   4.104  10.912 -0.2138 -0.3983  0.6511
  173SAPI   HO219544   4.246   4.109  10.820 -1.2761  0.3910  0.3474
  173SAPI   C1319545   4.340   4.050  11.116 -0.2455 -0.1044  0.5515
  173SAPI    H319546   4.445   4.059  11.154 -0.3468  2.2674  0.3400
  173SAPI    O319547   4.306   3.915  11.105  0.1973  0.0358  0.2308
  173SAPI   HO319548   4.379   3.869  11.061 -0.1955 -0.1487 -0.2224
  173SAPI   C1419549   4.244   4.134  11.195 -0.4783 -0.5101  0.4030
  173SAPI    H419550   4.144   4.129  11.146 -0.2072  0.8661 -0.3039
  173SAPI    O419551   4.234   4.081  11.323  0.0732 -0.7739  0.6929
  173SAPI   HO419552   4.225   3.986  11.324 -1.2576 -0.7181 -2.2499
  173SAPI   C1519553   4.279   4.279  11.194  0.0956  0.3157 -0.2279
  173SAPI    H519554   4.377   4.291  11.246  0.7236 -0.7721 -1.1332
  173SAPI    O519555   4.184   4.350  11.268  0.2590 -0.0710  0.1100
  173SAPI   HO519556   4.175   4.287  11.340  0.6277 -0.5233 -0.2324
  173SAPI   C1619557   4.299   4.339  11.053  0.1953 -0.4153 -0.5302
  173SAPI    H619558   4.200   4.329  11.003 -1.1140 -2.8323  2.3915
  173SAPI    O619559   4.341   4.478  11.063 -0.1164  0.4454 -0.0295
  173SAPI   HO619560   4.273   4.539  11.033 -0.9732  0.2113  1.3698
  173SAPI   C1119561   4.399   4.254  10.983 -0.6918  0.3346  0.3497
  173SAPI    H119562   4.498   4.250  11.034 -0.7373 -2.3080  0.2716
  173SAPI     P19563   4.550   4.263  10.760  0.0577  0.1512 -0.0555
  173SAPI   O1319564   4.644   4.203  10.856  0.4574 -0.0971  0.0732
  173SAPI   O1419565   4.596   4.385  10.687 -0.0094 -1.4062 -0.1953
  173SAPI   O1219566   4.417   4.301  10.851  0.1712 -0.1840  0.4032
  173SAPI   O1119567   4.500   4.158  10.657 -0.5729  0.0661 -0.0517
  173SAPI    C119568   4.385   4.178  10.575 -0.4178  0.5715 -0.1497
  173SAPI    HA19569   4.310   4.097  10.585 -1.5384  1.4238 -1.4256
  173SAPI    HB19570   4.326   4.269  10.602 -1.2874 -0.4042  1.2726
  173SAPI    C219571   4.427   4.199  10.426  0.4961  0.7428 -0.6128
  173SAPI    HS19572   4.502   4.280  10.418  2.9162 -1.3207  0.3158
  173SAPI   O2119573   4.310   4.236  10.355 -0.6250  0.0488  0.1337
  173SAPI   C2119574   4.276   4.360  10.368  0.2829 -0.5759  0.7375
  173SAPI   O2219575   4.340   4.452  10.422 -0.5895  0.0446 -0.1166
  173SAPI   C2219576   4.151   4.384  10.277 -0.5720  0.0704 -0.2057
  173SAPI   H2R19577   4.133   4.288  10.226 -1.5176 -1.2966  2.5738
  173SAPI   H2S19578   4.073   4.405  10.353  0.3612  1.5945  0.3591
  173SAPI    C319579   4.487   4.060  10.373 -0.2922  0.0097  0.0128
  173SAPI    HX19580   4.428   3.974  10.411 -0.1808 -0.2833 -0.4665
  173SAPI    HY19581   4.587   4.046  10.418 -0.8911 -0.9010  1.0846
  173SAPI   O3119582   4.509   4.064  10.226  0.1084  0.3673  0.0946
  173SAPI   C3119583   4.412   4.023  10.154  0.4065  0.4440  0.0996
  173SAPI   O3219584   4.308   3.973  10.189  0.1825 -0.6106 -0.1614
  173SAPI   C3219585   4.456   4.047  10.008 -0.2004  0.0282 -0.9530
  173SAPI   H2X19586   4.563   4.018  10.010 -0.5134 -1.1481  1.1367
  173SAPI   H2Y19587   4.440   4.157  10.004  0.0029  0.0688 -0.6215
  173SAPI   C2319588   4.172   4.490  10.172 -0.3859  0.0347  0.0940
  173SAPI   H3R19589   4.210   4.590  10.204  0.7832  0.2195 -1.8005
  173SAPI   H3S19590   4.069   4.503  10.132 -0.4397 -0.1866  0.1624
  173SAPI   C2419591   4.265   4.451  10.056 -0.4252 -0.7185  0.3394
  173SAPI   H4R19592   4.371   4.435  10.083 -0.2447 -0.7409 -0.3824
  173SAPI   H4S19593   4.266   4.548  10.001  3.9610 -2.1164 -2.2536
  173SAPI   C2519594   4.216   4.335   9.971  0.3858  0.7540  0.1253
  173SAPI   H5R19595   4.196   4.239  10.023 -1.4293  0.7993 -0.4382
  173SAPI   C2619596   4.202   4.327   9.840  0.0860 -0.0092 -0.5236
  173SAPI   H6R19597   4.168   4.231   9.798  2.0753  0.0816 -2.4201
  173SAPI   C2719598   4.230   4.437   9.733  0.9878 -0.0499  0.1445
  173SAPI   H7R19599   4.341   4.446   9.733  0.9758  0.4707  2.3286
  173SAPI   H7S19600   4.189   4.536   9.760  0.3206 -0.6076  1.2443
  173SAPI   C2819601   4.183   4.409   9.590  0.2768 -0.4315  0.4532
  173SAPI   H8R19602   4.150   4.306   9.572 -0.8746  0.1423 -0.7957
  173SAPI   C2919603   4.185   4.507   9.494 -0.3874  0.1541  0.1046
  173SAPI   H9R19604   4.167   4.481   9.389  2.9790 -0.2888 -0.4405
  173SAPI  C21019605   4.238   4.652   9.518  0.3116  0.1085  0.7547
  173SAPI  H10R19606   4.285   4.670   9.616  1.8360 -1.1351  0.2726
  173SAPI  H10S19607   4.148   4.716   9.507 -0.5920 -1.5076 -2.0127
  173SAPI  C21119608   4.337   4.689   9.412  0.4134  0.6620  0.5227
  173SAPI  H11R19609   4.439   4.664   9.446  0.8803  0.4989 -0.9882
  173SAPI  C21219610   4.315   4.734   9.291 -1.1936 -0.7307 -0.0570
  173SAPI  H12R19611   4.404   4.758   9.230 -0.5950  0.4759  1.2467
  173SAPI  C21319612   4.183   4.772   9.238 -0.2751  0.5924 -0.1274
  173SAPI  H13R19613   4.168   4.881   9.257  2.3349  1.2140 -1.4115
  173SAPI  H13S19614   4.100   4.723   9.294  0.5405 -1.1477 -0.3973
  173SAPI  C21419615   4.160   4.737   9.092 -0.1275 -0.4036 -0.2814
  173SAPI  H14R19616   4.105   4.643   9.078 -1.1797 -0.1085  1.7080
  173SAPI  C21519617   4.183   4.819   8.985 -0.1822 -0.1709  0.0767
  173SAPI  H15R19618   4.151   4.784   8.885  2.6555 -1.1470 -0.5300
  173SAPI  C21619619   4.235   4.964   8.982  0.1432 -1.3551 -0.1157
  173SAPI  H16R19620   4.263   5.003   9.082  1.5719 -2.4274 -0.0736
  173SAPI  H16S19621   4.162   5.038   8.943  0.3129 -1.8511 -1.4036
  173SAPI  C21719622   4.354   4.979   8.894 -0.0269 -0.6665 -0.7515
  173SAPI  H17R19623   4.362   4.909   8.808 -0.2010 -0.0462 -1.2809
  173SAPI  H17S19624   4.440   4.950   8.957  0.4001 -1.4066 -1.6677
  173SAPI  C21819625   4.367   5.121   8.833 -0.1085  0.5617  0.1262
  173SAPI  H18R19626   4.340   5.197   8.910 -0.9690 -0.3897  0.7634
  173SAPI  H18S19627   4.287   5.131   8.757  0.2793  1.4639 -0.1765
  173SAPI  C21919628   4.500   5.160   8.767 -0.6978  0.1384 -0.5349
  173SAPI  H19R19629   4.526   5.084   8.691 -3.2920 -2.7161  1.3027
  173SAPI  H19S19630   4.577   5.165   8.848 -0.3429  2.3470 -0.9679
  173SAPI  C22019631   4.492   5.299   8.706  0.6102  0.9492  0.7860
  173SAPI  H20R19632   4.469   5.386   8.771  0.7951  1.9258 -0.4575
  173SAPI  H20S19633   4.405   5.302   8.637  0.6074 -2.9186  0.4844
  173SAPI  H20T19634   4.584   5.315   8.646  0.1644 -0.6553 -0.3629
  173SAPI   C3319635   4.374   3.985   9.899  0.4419  0.3469  0.2486
  173SAPI   H3X19636   4.267   4.010   9.917  0.5170  0.3856  0.6372
  173SAPI   H3Y19637   4.374   3.875   9.911 -0.7738  0.5400  2.2101
  173SAPI   C3419638   4.412   4.042   9.761 -0.4285 -0.7175 -0.3195
  173SAPI   H4X19639   4.514   4.001   9.747 -0.1379  0.0533 -0.4443
  173SAPI   H4Y19640   4.407   4.153   9.763  0.9743 -0.6379 -1.3187
  173SAPI   C3519641   4.327   3.999   9.639  0.4168  0.1163  0.2939
  173SAPI   H5X19642   4.224   4.025   9.674  0.3005 -0.6532  0.5326
  173SAPI   H5Y19643   4.328   3.889   9.632 -1.2125  0.2216 -1.8429
  173SAPI   C3619644   4.372   4.052   9.509  0.2076 -0.9538  0.2702
  173SAPI   H6X19645   4.477   4.017   9.499  0.3068 -1.4137  2.7704
  173SAPI   H6Y19646   4.371   4.163   9.502 -3.3736 -0.7945  2.1449
  173SAPI   C3719647   4.297   4.001   9.384  0.3454 -0.1241  0.1677
  173SAPI   H7X19648   4.255   4.082   9.321 -1.8399  0.0012  1.7244
  173SAPI   H7Y19649   4.220   3.926   9.412  2.2374 -3.3320 -2.8111
  173SAPI   C3819650   4.400   3.944   9.282  0.3159  0.0572  0.3288
  173SAPI   H8X19651   4.444   3.849   9.319 -1.2573 -0.7391  0.2446
  173SAPI   H8Y19652   4.476   4.024   9.279  0.4400  0.0075  1.7723
  173SAPI   C3919653   4.338   3.919   9.142 -0.3045  0.8155 -0.0962
  173SAPI   H9X19654   4.420   3.876   9.081 -0.7534  1.5462 -1.2303
  173SAPI   H9Y19655   4.303   4.017   9.103 -1.4768  0.8449  0.9757
  173SAPI  C31019656   4.216   3.825   9.145 -0.1141  0.0043 -0.2329
  173SAPI  H10X19657   4.134   3.882   9.193 -0.7970 -0.4400 -0.8543
  173SAPI  H10Y19658   4.232   3.736   9.211  3.2172 -0.0621 -1.0440
  173SAPI  C31119659   4.169   3.795   9.003 -0.0520 -0.2647 -0.5369
  173SAPI  H11X19660   4.088   3.719   8.998 -1.2025  0.9167 -0.1433
  173SAPI  H11Y19661   4.262   3.751   8.961  0.3970 -1.1803  1.3380
  173SAPI  C31219662   4.119   3.915   8.923  0.0540  0.2067 -0.2121
  173SAPI  H12X19663   4.183   4.005   8.915 -0.8392  0.7263 -1.6916
  173SAPI  H12Y19664   4.021   3.945   8.965  0.0698  1.4543 -1.0637
  173SAPI  C31319665   4.091   3.894   8.770 -0.4180  0.7282  0.5318
  173SAPI  H13X19666   4.021   3.808   8.767  1.0396 -0.4821  0.1165
  173SAPI  H13Y19667   4.180   3.871   8.707 -0.9790 -1.4067  0.4830
  173SAPI  C31419668   4.018   4.012   8.710 -1.1446 -0.0735 -0.8842
  173SAPI  H14X19669   4.008   4.094   8.785  0.2085  1.3764 -2.2509
  173SAPI  H14Y19670   3.917   3.976   8.683 -0.4284 -1.3241 -1.9823
  173SAPI  C31519671   4.078   4.075   8.586  0.7543  0.0494 -0.2362
  173SAPI  H15X19672   4.002   4.144   8.544 -0.3556 -0.8815  0.2299
  173SAPI  H15Y19673   4.110   4.002   8.509  0.5501  1.9325 -2.1411
  173SAPI  C31619674   4.205   4.159   8.620 -0.0719 -0.1052  0.5863
  173SAPI  H16X19675   4.281   4.092   8.666  0.1506  0.0232  0.4007
  173SAPI  H16Y19676   4.184   4.228   8.705  2.4388 -0.3252  1.4204
  173SAPI  C31719677   4.281   4.231   8.511  0.5324 -0.4605 -0.9659
  173SAPI  H17X19678   4.203   4.295   8.464  0.2709 -1.6421 -2.1723
  173SAPI  H17Y19679   4.314   4.160   8.432  2.4241  1.0660 -1.5917
  173SAPI  C31819680   4.411   4.301   8.548 -0.6752  0.0132  0.0893
  173SAPI  H18X19681   4.456   4.348   8.459  2.5263 -2.6815  0.1751
  173SAPI  H18Y19682   4.488   4.229   8.584 -1.6268 -1.5518 -0.9479
  173SAPI  H18Z19683   4.394   4.385   8.619 -1.1443 -1.0661  1.2807
  174SAPI   C1219684   1.144   5.883  10.993  0.1121 -0.5266 -0.0233
  174SAPI    H219685   1.150   5.814  11.080 -1.3284 -0.2513  0.2999
  174SAPI    O219686   1.013   5.939  10.987 -0.1375  0.3013  0.1323
  174SAPI   HO219687   0.957   5.863  10.969  0.0855 -0.1637  1.3328
  174SAPI   C1319688   1.242   6.004  11.024 -0.3358  0.4656 -0.3567
  174SAPI    H319689   1.347   5.969  11.016 -0.8274 -1.2765  0.6620
  174SAPI    O319690   1.230   6.054  11.158 -0.5021 -0.3054  0.4811
  174SAPI   HO319691   1.138   6.073  11.176 -0.3506 -0.8953  1.9383
  174SAPI   C1419692   1.237   6.108  10.912  0.2157 -0.0291 -0.3428
  174SAPI    H419693   1.131   6.141  10.916  0.4301  0.5300  1.1453
  174SAPI    O419694   1.323   6.218  10.930  0.2455 -0.2678  0.3200
  174SAPI   HO419695   1.309   6.288  10.866 -1.7634 -0.1051  0.9027
  174SAPI   C1519696   1.253   6.047  10.770  0.0046 -0.1436 -0.3792
  174SAPI    H519697   1.358   6.013  10.758 -0.4424 -1.2009 -1.3995
  174SAPI    O519698   1.230   6.152  10.675 -0.0697 -0.7909 -0.3120
  174SAPI   HO519699   1.296   6.157  10.606  1.5356 -1.3448  1.1461
  174SAPI   C1619700   1.169   5.920  10.743  0.1782  0.1918 -0.2003
  174SAPI    H619701   1.068   5.964  10.740  0.8717  1.7553 -1.3589
  174SAPI    O619702   1.210   5.867  10.623 -0.2546 -0.7043 -0.6548
  174SAPI   HO619703   1.138   5.806  10.606 -0.7182  0.0088 -1.2926
  174SAPI   C1119704   1.188   5.821  10.856 -0.2129 -0.0524 -0.1201
  174SAPI    H119705   1.295   5.794  10.869  0.3204  1.6266 -0.9429
  174SAPI     P19706   1.152   5.558  10.818  0.4046  0.1008  0.0621
  174SAPI   O1319707   1.038   5.473  10.862  0.0472 -0.1803 -0.4135
  174SAPI   O1419708   1.289   5.525  10.864  0.0306  0.3437  0.8353
  174SAPI   O1219709   1.106   5.713  10.848 -0.4794  0.5697  0.1306
  174SAPI   O1119710   1.150   5.555  10.657 -0.1940 -0.5507 -0.6355
  174SAPI    C119711   1.033   5.588  10.584 -0.2480 -0.2466 -0.2695
  174SAPI    HA19712   0.945   5.631  10.637 -0.5787 -0.5494 -0.5753
  174SAPI    HB19713   1.044   5.660  10.500 -0.2513  1.2360  0.9625
  174SAPI    C219714   0.982   5.458  10.526  0.3663  0.5315  1.0672
  174SAPI    HS19715   0.991   5.378  10.603  3.1229  0.2715  0.5504
  174SAPI   O2119716   1.060   5.425  10.412 -0.1505 -0.2998 -0.2660
  174SAPI   C2119717   1.050   5.294  10.370  0.0852  0.1506 -1.2861
  174SAPI   O2219718   0.994   5.205  10.438 -0.0218 -0.4251 -0.5098
  174SAPI   C2219719   1.124   5.272  10.244  0.5520  0.2793 -0.3993
  174SAPI   H2R19720   1.187   5.358  10.211  2.1629 -1.2657 -1.4252
  174SAPI   H2S19721   1.201   5.194  10.260 -0.8259 -0.8413  0.8921
  174SAPI    C319722   0.833   5.468  10.482  0.2829 -0.4626  0.3196
  174SAPI    HX19723   0.777   5.499  10.572  2.1403 -0.4756  1.5157
  174SAPI    HY19724   0.798   5.365  10.461 -3.0228  0.5194  0.7698
  174SAPI   O3119725   0.814   5.547  10.361 -0.1882 -0.6771 -0.3592
  174SAPI   C3119726   0.726   5.646  10.362  0.4618  0.2843 -0.0492
  174SAPI   O3219727   0.647   5.663  10.456  0.0990  0.2978 -0.1403
  174SAPI   C3219728   0.721   5.730  10.236  0.1906  0.7104  0.3003
  174SAPI   H2X19729   0.825   5.724  10.199  0.2811  2.3366  0.2908
  174SAPI   H2Y19730   0.690   5.831  10.269 -0.1140  0.8725 -0.4897
  174SAPI   C2319731   1.035   5.217  10.132 -0.7063  0.0553 -0.8483
  174SAPI   H3R19732   0.994   5.120  10.167  0.1646  0.1400  0.4264
  174SAPI   H3S19733   1.102   5.180  10.051  3.3885 -0.9878  2.8379
  174SAPI   C2419734   0.927   5.315  10.083  0.2101  0.8090 -0.1365
  174SAPI   H4R19735   0.862   5.340  10.170  2.3504 -2.7264  2.6107
  174SAPI   H4S19736   0.864   5.253  10.015 -0.7619  0.2693  1.2189
  174SAPI   C2519737   0.963   5.453  10.027  0.6293  0.1085 -0.7684
  174SAPI   H5R19738   1.008   5.523  10.099 -1.8243  0.6662  0.2666
  174SAPI   C2619739   0.948   5.486   9.899 -0.1407  1.1340 -0.0051
  174SAPI   H6R19740   0.981   5.587   9.869  0.8544  1.6575  2.6011
  174SAPI   C2719741   0.885   5.409   9.787 -0.4001 -0.0607  0.3639
  174SAPI   H7R19742   0.778   5.430   9.766 -1.0612 -3.5211 -0.1138
  174SAPI   H7S19743   0.893   5.302   9.816 -2.9480 -1.3242 -3.2635
  174SAPI   C2819744   0.964   5.423   9.662 -0.5683 -0.1288 -0.0810
  174SAPI   H8R19745   1.069   5.454   9.674 -0.2783 -1.6936  1.5203
  174SAPI   C2919746   0.919   5.397   9.536 -0.0899 -0.1087 -0.5706
  174SAPI   H9R19747   0.989   5.406   9.452 -0.7918 -1.9874 -1.3783
  174SAPI  C21019748   0.782   5.350   9.497 -0.5705 -0.4481 -0.0766
  174SAPI  H10R19749   0.707   5.432   9.490 -0.7378 -0.5845  0.1277
  174SAPI  H10S19750   0.731   5.292   9.576 -2.6722 -2.2038 -2.6074
  174SAPI  C21119751   0.796   5.270   9.370 -0.2215 -0.3300  0.6704
  174SAPI  H11R19752   0.862   5.182   9.376 -0.6524 -0.6945  0.1575
  174SAPI  C21219753   0.734   5.289   9.253 -0.2550 -0.5318  0.3578
  174SAPI  H12R19754   0.761   5.224   9.168  0.3759  0.8599 -0.5191
  174SAPI  C21319755   0.639   5.402   9.227 -0.4322 -0.2194  0.3175
  174SAPI  H13R19756   0.558   5.389   9.302  0.2425  0.9153  1.2466
  174SAPI  H13S19757   0.596   5.391   9.125  0.7694 -0.9637 -0.1291
  174SAPI  C21419758   0.700   5.545   9.246  0.0038  0.1258 -0.0915
  174SAPI  H14R19759   0.776   5.558   9.324 -0.6864  1.5389  0.3616
  174SAPI  C21519760   0.688   5.643   9.155 -0.3457  0.3443  0.7879
  174SAPI  H15R19761   0.733   5.741   9.175  1.7315  0.0593 -2.1491
  174SAPI  C21619762   0.616   5.643   9.026  0.0626 -0.2935  0.4709
  174SAPI  H16R19763   0.581   5.748   9.011 -2.5216 -1.0290  1.0633
  174SAPI  H16S19764   0.528   5.576   9.035  0.8970 -1.1238  2.6336
  174SAPI  C21719765   0.704   5.609   8.905 -0.6438 -0.3266 -0.0339
  174SAPI  H17R19766   0.636   5.585   8.820 -3.2562 -0.7537  2.1125
  174SAPI  H17S19767   0.778   5.527   8.918 -0.4763 -0.0179  0.9771
  174SAPI  C21819768   0.797   5.723   8.862  0.2619  0.2177  0.1477
  174SAPI  H18R19769   0.843   5.755   8.958 -2.0000 -2.7763  2.3252
  174SAPI  H18S19770   0.735   5.805   8.818  1.0629 -1.4150 -4.2538
  174SAPI  C21919771   0.910   5.681   8.772 -0.5121  0.0100  0.5010
  174SAPI  H19R19772   0.963   5.591   8.812  1.9365  1.1209 -0.2087
  174SAPI  H19S19773   0.991   5.756   8.778 -0.4527 -0.2103  3.9132
  174SAPI  C22019774   0.853   5.652   8.636  0.2167 -0.5166  0.1893
  174SAPI  H20R19775   0.933   5.650   8.559 -1.5651 -2.1683 -1.6893
  174SAPI  H20S19776   0.791   5.742   8.616 -1.2064 -1.6684 -0.7041
  174SAPI  H20T19777   0.785   5.564   8.633  0.5782 -0.7927  0.0805
  174SAPI   C3319778   0.627   5.665  10.126  0.4850 -0.7324 -0.2211
  174SAPI   H3X19779   0.531   5.636  10.173  0.9183 -1.0307  0.4821
  174SAPI   H3Y19780   0.687   5.578  10.091  3.7259 -0.2504  3.8209
  174SAPI   C3419781   0.597   5.756  10.006  0.2963 -0.5593  0.4641
  174SAPI   H4X19782   0.676   5.834  10.008  0.0644 -0.3120  0.0368
  174SAPI   H4Y19783   0.505   5.813  10.034  2.3266  2.8741  0.4907
  174SAPI   C3519784   0.615   5.684   9.873  0.0674  0.6920 -0.4628
  174SAPI   H5X19785   0.563   5.586   9.881  1.9001 -0.3658 -1.1500
  174SAPI   H5Y19786   0.724   5.664   9.867  0.2866  1.1524  1.5284
  174SAPI   C3619787   0.560   5.767   9.758  0.4099  0.4711  0.2191
  174SAPI   H6X19788   0.624   5.857   9.751  1.0334  0.2743  2.7642
  174SAPI   H6Y19789   0.460   5.807   9.784  1.5138  1.9956  2.3193
  174SAPI   C3719790   0.547   5.691   9.623  0.3890  0.0976 -0.3348
  174SAPI   H7X19791   0.506   5.591   9.651  1.4879 -0.6911 -1.4609
  174SAPI   H7Y19792   0.647   5.678   9.576  1.0171  0.9385  0.7637
  174SAPI   C3819793   0.454   5.751   9.523  0.3015  0.3124  0.2237
  174SAPI   H8X19794   0.355   5.778   9.564 -1.0222 -0.6921 -2.2298
  174SAPI   H8Y19795   0.411   5.681   9.448 -3.6704  0.9124  1.8320
  174SAPI   C3919796   0.523   5.860   9.434  0.0442 -0.1703  0.2333
  174SAPI   H9X19797   0.623   5.820   9.407 -0.3202 -0.8536 -0.1236
  174SAPI   H9Y19798   0.546   5.951   9.493  1.1547 -2.4068  3.4301
  174SAPI  C31019799   0.445   5.886   9.306  0.1363  0.1025  0.2110
  174SAPI  H10X19800   0.343   5.928   9.318  0.6503  1.5518 -0.3355
  174SAPI  H10Y19801   0.424   5.789   9.256 -1.4331  0.7981 -0.5075
  174SAPI  C31119802   0.529   5.967   9.201  0.0570  0.7440 -0.4168
  174SAPI  H11X19803   0.624   5.910   9.193 -0.6013 -0.0562 -2.9665
  174SAPI  H11Y19804   0.546   6.061   9.258 -1.2310  2.4443 -2.7639
  174SAPI  C31219805   0.450   6.010   9.079  0.2939  0.0398 -0.0095
  174SAPI  H12X19806   0.359   6.060   9.116  1.3608  1.3554  0.8926
  174SAPI  H12Y19807   0.411   5.920   9.028  0.5556 -0.4374  0.6339
  174SAPI  C31319808   0.522   6.104   8.978  0.5135  0.1730  0.4419
  174SAPI  H13X19809   0.630   6.082   8.970  0.4494 -0.6378  1.8803
  174SAPI  H13Y19810   0.522   6.211   9.009 -0.9885 -0.2956  2.1175
  174SAPI  C31419811   0.466   6.085   8.838  0.8607  0.1318  0.0345
  174SAPI  H14X19812   0.356   6.067   8.837  0.6348  1.3873  0.9149
  174SAPI  H14Y19813   0.515   5.991   8.804  0.7485 -0.4241  1.3983
  174SAPI  C31519814   0.491   6.205   8.742 -0.8111  0.1324 -0.1482
  174SAPI  H15X19815   0.591   6.244   8.767 -0.4671 -0.1234 -1.1242
  174SAPI  H15Y19816   0.417   6.281   8.776  0.1495  1.9739 -2.1096
  174SAPI  C31619817   0.472   6.163   8.592  0.2768  0.6450 -0.9092
  174SAPI  H16X19818   0.383   6.097   8.595  1.6493 -1.2237  0.1348
  174SAPI  H16Y19819   0.555   6.101   8.552 -0.3536  0.9464 -2.7298
  174SAPI  C31719820   0.451   6.292   8.507  1.1329 -0.1091 -0.0992
  174SAPI  H17X19821   0.503   6.376   8.559  1.1194 -0.8992  1.1996
  174SAPI  H17Y19822   0.344   6.321   8.512  1.6784  2.2972 -1.2393
  174SAPI  C31819823   0.488   6.283   8.356  0.2782 -0.4778  0.8033
  174SAPI  H18X19824   0.491   6.386   8.314 -2.0590 -1.1481 -1.0824
  174SAPI  H18Y19825   0.430   6.202   8.308  2.4762 -1.0751 -0.9155
  174SAPI  H18Z19826   0.597   6.261   8.354  0.3234 -0.1634 -0.2211
  175SAPI   C1219827   3.331   3.941   6.274  0.4524  0.0837  0.7328
  175SAPI    H219828   3.342   3.864   6.353  1.9721 -0.4091  0.0647
  175SAPI    O219829   3.318   3.865   6.147  0.0522  0.4505 -0.2073
  175SAPI   HO219830   3.387   3.798   6.156 -1.5619 -1.1044  0.7013
  175SAPI   C1319831   3.211   4.021   6.324 -0.3239 -0.7685  0.2737
  175SAPI    H319832   3.234   4.065   6.423  0.2614  0.7852 -0.5293
  175SAPI    O319833   3.103   3.929   6.339  0.1757  0.0913 -0.3414
  175SAPI   HO319834   3.051   3.914   6.260  0.7653 -1.9822 -0.3664
  175SAPI   C1419835   3.177   4.133   6.225  0.3856 -0.3356  0.7812
  175SAPI    H419836   3.157   4.085   6.127 -0.8368  1.9055 -0.0943
  175SAPI    O419837   3.063   4.206   6.263 -0.7666 -0.5811 -0.3750
  175SAPI   HO419838   3.039   4.275   6.200 -3.8684 -0.2676  1.0591
  175SAPI   C1519839   3.303   4.223   6.206  0.7308 -0.2405  0.1780
  175SAPI    H519840   3.326   4.270   6.304 -0.8923  0.9137  0.0306
  175SAPI    O519841   3.268   4.330   6.122 -0.4799 -0.2016  0.5004
  175SAPI   HO519842   3.317   4.401   6.165  0.8808 -0.7150 -0.1674
  175SAPI   C1619843   3.424   4.139   6.153  1.0752  0.0598 -0.2335
  175SAPI    H619844   3.387   4.098   6.056 -1.0735  1.3910 -0.0093
  175SAPI    O619845   3.536   4.216   6.137 -0.7831  0.3290  0.1601
  175SAPI   HO619846   3.602   4.179   6.195  0.3501 -2.2738 -2.6528
  175SAPI   C1119847   3.455   4.038   6.261 -0.2196  0.3241  0.3500
  175SAPI    H119848   3.459   4.097   6.355 -2.4366  0.6534  0.2493
  175SAPI     P19849   3.705   3.962   6.322  0.1705  0.0021 -0.2967
  175SAPI   O1319850   3.752   4.106   6.313 -0.1286 -1.1307 -0.2515
  175SAPI   O1419851   3.791   3.854   6.272 -0.3068  0.3327  0.2880
  175SAPI   O1219852   3.565   3.956   6.239  0.1215  0.0878 -0.1070
  175SAPI   O1119853   3.668   3.918   6.464  0.3875  0.1441 -0.0119
  175SAPI    C119854   3.609   3.788   6.487  0.0684 -0.6229 -0.5681
  175SAPI    HA19855   3.513   3.783   6.431 -1.2790  0.8311  1.5264
  175SAPI    HB19856   3.678   3.704   6.466 -0.5869 -1.6967  1.4276
  175SAPI    C219857   3.579   3.777   6.638  0.3441 -0.0814 -0.3240
  175SAPI    HS19858   3.562   3.671   6.668  0.3032 -0.1065 -0.4389
  175SAPI   O2119859   3.482   3.864   6.679  0.1962  0.2668  0.5132
  175SAPI   C2119860   3.358   3.818   6.659 -0.7670 -0.4472 -0.1986
  175SAPI   O2219861   3.333   3.716   6.599  0.0606  0.1226 -0.1200
  175SAPI   C2219862   3.257   3.918   6.721 -0.8054 -0.3001 -0.4663
  175SAPI   H2R19863   3.276   3.918   6.830 -1.5180 -0.0773 -0.3393
  175SAPI   H2S19864   3.292   4.018   6.686 -0.0433 -0.6355 -0.6766
  175SAPI    C319865   3.706   3.820   6.711 -0.3630 -0.0160 -1.0144
  175SAPI    HX19866   3.728   3.928   6.698 -0.9299  0.1568 -0.5595
  175SAPI    HY19867   3.784   3.762   6.657 -0.8759 -1.7040  0.0290
  175SAPI   O3119868   3.697   3.776   6.849 -0.8977 -0.1461  0.3314
  175SAPI   C3119869   3.815   3.774   6.911  0.0581 -0.7425 -0.4810
  175SAPI   O3219870   3.919   3.809   6.859 -0.0262 -0.6447  0.4332
  175SAPI   C3219871   3.800   3.729   7.060 -0.0932  0.2004  0.3592
  175SAPI   H2X19872   3.773   3.621   7.057  1.6514 -0.3139  2.2185
  175SAPI   H2Y19873   3.716   3.790   7.100 -0.7956 -1.1664  1.0009
  175SAPI   C2319874   3.107   3.901   6.697  0.5168 -0.0094  0.1619
  175SAPI   H3R19875   3.055   3.808   6.729 -1.0771  0.0995 -2.0246
  175SAPI   H3S19876   3.078   3.903   6.590 -1.8316  1.3035  0.7883
  175SAPI   C2419877   3.016   4.012   6.752 -0.3823 -0.8378  0.4516
  175SAPI   H4R19878   3.038   4.012   6.861  3.2788  0.9216 -0.1997
  175SAPI   H4S19879   2.909   3.993   6.728 -0.9652  1.1613  1.3755
  175SAPI   C2519880   3.050   4.145   6.694  0.5928 -0.7433  0.3327
  175SAPI   H5R19881   3.069   4.139   6.585  1.5789  0.4117  0.4223
  175SAPI   C2619882   3.052   4.267   6.750  0.3009 -1.3521 -0.2733
  175SAPI   H6R19883   3.071   4.357   6.688  0.8130 -1.1616  0.1594
  175SAPI   C2719884   3.029   4.305   6.899 -0.0765  0.1513 -0.0434
  175SAPI   H7R19885   2.980   4.222   6.954  2.0204 -0.0200  1.6100
  175SAPI   H7S19886   2.945   4.378   6.905 -0.5145 -0.3346 -0.2480
  175SAPI   C2819887   3.146   4.354   6.981  0.0994 -0.2101  0.9837
  175SAPI   H8R19888   3.186   4.451   6.945 -1.2806  0.5106  1.3736
  175SAPI   C2919889   3.192   4.294   7.097 -0.0838  0.0353  0.0121
  175SAPI   H9R19890   3.270   4.350   7.151 -0.1806  0.0047  0.1853
  175SAPI  C21019891   3.151   4.168   7.164  0.6552  0.5053  0.9989
  175SAPI  H10R19892   3.237   4.116   7.211  0.5282  1.7425  2.6424
  175SAPI  H10S19893   3.094   4.105   7.093 -0.2640  0.6082  1.6489
  175SAPI  C21119894   3.053   4.205   7.273  0.0522  1.1398 -0.2948
  175SAPI  H11R19895   2.961   4.245   7.228  2.3906  3.5363 -3.1800
  175SAPI  C21219896   3.069   4.196   7.408  0.1408 -0.7138 -0.5119
  175SAPI  H12R19897   2.985   4.236   7.468  0.3064 -0.0879 -0.6914
  175SAPI  C21319898   3.186   4.159   7.498  0.4615 -0.7601 -0.2121
  175SAPI  H13R19899   3.249   4.249   7.513 -2.9768  1.9094 -0.9765
  175SAPI  H13S19900   3.254   4.082   7.456 -0.1716 -1.1890 -0.4558
  175SAPI  C21419901   3.136   4.123   7.641 -0.4229 -0.2041  0.0806
  175SAPI  H14R19902   3.033   4.083   7.644 -0.6610  0.3759 -0.2919
  175SAPI  C21519903   3.195   4.151   7.761 -0.3865  0.8462 -0.3623
  175SAPI  H15R19904   3.135   4.133   7.851 -3.6478 -0.2021 -2.6593
  175SAPI  C21619905   3.330   4.203   7.766 -0.5658 -1.1430  0.3434
  175SAPI  H16R19906   3.349   4.272   7.681 -3.7370  2.7811  2.6161
  175SAPI  H16S19907   3.398   4.116   7.760  1.6735  0.3173  3.2947
  175SAPI  C21719908   3.363   4.281   7.889 -0.2990  0.0820 -0.5620
  175SAPI  H17R19909   3.324   4.384   7.878  0.1641  0.2371 -0.7670
  175SAPI  H17S19910   3.473   4.282   7.907 -0.2447 -0.0066 -0.8736
  175SAPI  C21819911   3.299   4.222   8.009  0.3044  0.1909 -0.1721
  175SAPI  H18R19912   3.312   4.112   8.002 -0.3813 -0.0727  2.1979
  175SAPI  H18S19913   3.191   4.246   8.013  0.0343 -1.0016 -0.4259
  175SAPI  C21919914   3.351   4.292   8.138  0.3696  0.4589  0.0051
  175SAPI  H19R19915   3.317   4.397   8.149  3.2575  1.5857 -1.2651
  175SAPI  H19S19916   3.461   4.303   8.135  0.5760 -1.4758 -0.6887
  175SAPI  C22019917   3.333   4.224   8.269  0.1724 -0.1579  0.3277
  175SAPI  H20R19918   3.367   4.118   8.265 -0.2680 -0.2974  0.3008
  175SAPI  H20S19919   3.224   4.231   8.288 -0.3330 -0.0823 -2.4871
  175SAPI  H20T19920   3.379   4.286   8.350 -0.7842  0.4524  0.4147
  175SAPI   C3319921   3.923   3.752   7.141  0.8097  0.2256  0.4368
  175SAPI   H3X19922   3.937   3.861   7.154  1.1234  0.4767 -1.9278
  175SAPI   H3Y19923   4.010   3.720   7.080  3.1312  1.6554  2.8885
  175SAPI   C3419924   3.910   3.697   7.278 -0.4471  0.0850 -0.4692
  175SAPI   H4X19925   3.915   3.587   7.292  0.2090  0.2143  0.3627
  175SAPI   H4Y19926   3.812   3.728   7.319 -0.2672  1.4090 -1.0314
  175SAPI   C3519927   4.025   3.742   7.367 -0.1260 -0.2420 -0.3893
  175SAPI   H5X19928   4.027   3.852   7.380  0.2770 -0.0366 -2.0440
  175SAPI   H5Y19929   4.128   3.715   7.336 -0.0250  0.2963 -0.5147
  175SAPI   C3619930   4.002   3.679   7.506 -0.1654  0.1789 -0.4111
  175SAPI   H6X19931   3.989   3.569   7.491 -1.8789 -0.2177  3.4368
  175SAPI   H6Y19932   3.915   3.731   7.552  0.6188  2.0620 -1.0132
  175SAPI   C3719933   4.124   3.704   7.597  0.5590 -1.2120  0.3022
  175SAPI   H7X19934   4.148   3.812   7.605  0.0060 -0.9151 -1.8462
  175SAPI   H7Y19935   4.218   3.657   7.561  0.3995 -1.8008  0.6437
  175SAPI   C3819936   4.105   3.650   7.742  0.0188  0.5472  1.0515
  175SAPI   H8X19937   4.075   3.543   7.734  4.9129 -0.8562 -0.0954
  175SAPI   H8Y19938   4.020   3.702   7.790 -0.6612  2.1323 -1.7470
  175SAPI   C3919939   4.222   3.657   7.839 -0.3644  0.0845  0.7933
  175SAPI   H9X19940   4.303   3.585   7.811 -1.1432  0.5840 -3.1040
  175SAPI   H9Y19941   4.183   3.619   7.935  0.5720  0.2565  1.2568
  175SAPI  C31019942   4.293   3.790   7.828 -0.4725  0.1707 -0.3636
  175SAPI  H10X19943   4.219   3.871   7.844 -2.0716 -0.8462 -2.4182
  175SAPI  H10Y19944   4.333   3.798   7.725 -3.1051 -2.0423 -1.5968
  175SAPI  C31119945   4.400   3.805   7.936  0.0638 -0.2762 -0.0038
  175SAPI  H11X19946   4.352   3.797   8.035  0.4554 -1.0085  0.1317
  175SAPI  H11Y19947   4.429   3.911   7.921 -0.1299 -0.4078 -1.4242
  175SAPI  C31219948   4.513   3.702   7.929  0.1059 -0.4409  1.4443
  175SAPI  H12X19949   4.547   3.704   7.823 -0.8036  0.3636  1.1615
  175SAPI  H12Y19950   4.468   3.603   7.947  3.0710 -1.6300  2.6057
  175SAPI  C31319951   4.622   3.719   8.038  0.0654  0.2107 -0.4926
  175SAPI  H13X19952   4.561   3.745   8.127  0.1327 -0.3384 -0.2840
  175SAPI  H13Y19953   4.701   3.793   8.014 -1.0420  1.8202  0.7219
  175SAPI  C31419954   4.694   3.586   8.069  0.0070 -0.6742 -0.4640
  175SAPI  H14X19955   4.750   3.563   7.975  1.3355 -2.5706  0.7420
  175SAPI  H14Y19956   4.617   3.505   8.070 -1.2501  0.4954 -0.8936
  175SAPI  C31519957   4.785   3.596   8.192  0.2931 -0.2241 -0.1256
  175SAPI  H15X19958   4.723   3.633   8.276 -0.7151 -3.9399  0.8603
  175SAPI  H15Y19959   4.868   3.669   8.186  1.3805 -1.4629 -0.1240
  175SAPI  C31619960   4.848   3.464   8.245 -0.3302  0.6391  0.7406
  175SAPI  H16X19961   4.914   3.443   8.158 -2.6305 -3.7171 -0.0645
  175SAPI  H16Y19962   4.779   3.379   8.262 -0.7490  1.1669  1.7703
  175SAPI  C31719963   4.925   3.480   8.373 -0.5349  0.1836  0.5405
  175SAPI  H17X19964   4.865   3.513   8.460  0.1995  1.3629  0.6240
  175SAPI  H17Y19965   4.996   3.564   8.353 -0.5998  0.7266  2.5003
  175SAPI  C31819966   5.004   3.354   8.409 -0.0071 -0.6300 -0.3037
  175SAPI  H18X19967   4.929   3.275   8.430  0.0740 -0.0474  2.3303
  175SAPI  H18Y19968   5.074   3.368   8.495 -1.4966  0.7943  0.6888
  175SAPI  H18Z19969   5.069   3.329   8.322  0.4715  1.5125 -0.5825
  176SAPI   C1219970   2.637   2.238   6.249  0.8834 -0.5525 -0.1137
  176SAPI    H219971   2.689   2.148   6.289  0.6613  0.4163  2.4575
  176SAPI    O219972   2.670   2.240   6.109  0.1334  0.4717 -0.4561
  176SAPI   HO219973   2.763   2.218   6.107  0.2497  0.2651  3.7835
  176SAPI   C1319974   2.489   2.212   6.271 -0.1227  0.1711 -0.7328
  176SAPI    H319975   2.470   2.218   6.380 -3.5155 -0.9655 -1.2170
  176SAPI    O319976   2.451   2.081   6.231  0.2183  0.0749 -0.4589
  176SAPI   HO319977   2.361   2.068   6.262  0.1000  0.5339 -0.6088
  176SAPI   C1419978   2.411   2.322   6.205 -0.2668 -0.6238  0.3452
  176SAPI    H419979   2.434   2.309   6.098 -1.8916 -0.9036  0.0186
  176SAPI    O419980   2.271   2.294   6.221  0.2018 -0.0081 -0.0236
  176SAPI   HO419981   2.239   2.307   6.310 -1.9176 -1.1680 -0.5913
  176SAPI   C1519982   2.448   2.463   6.256 -0.0647 -0.0933 -0.6730
  176SAPI    H519983   2.426   2.459   6.365  1.1637  0.0622 -0.4056
  176SAPI    O519984   2.384   2.577   6.201  0.5962 -0.4061 -0.3700
  176SAPI   HO519985   2.326   2.598   6.275  0.1373 -0.9334 -0.5744
  176SAPI   C1619986   2.600   2.488   6.246  1.2344  0.9785  0.4716
  176SAPI    H619987   2.616   2.489   6.137 -2.6297  2.5360 -0.1551
  176SAPI    O619988   2.635   2.610   6.293  0.1149  0.2512 -0.6901
  176SAPI   HO619989   2.670   2.605   6.383 -1.0027  2.6152 -0.0689
  176SAPI   C1119990   2.676   2.371   6.319  0.7561 -0.0904 -0.8036
  176SAPI    H119991   2.644   2.360   6.425 -0.1043 -0.6684 -1.1180
  176SAPI     P19992   2.898   2.447   6.440  0.4293  0.0175 -0.4486
  176SAPI   O1319993   2.825   2.570   6.485 -0.4583  0.1664 -0.1752
  176SAPI   O1419994   3.043   2.462   6.403  0.3182 -0.8872  0.1297
  176SAPI   O1219995   2.820   2.387   6.304  1.2614  0.2412  0.2397
  176SAPI   O1119996   2.879   2.334   6.547 -0.1722  0.1430  0.1056
  176SAPI    C119997   2.969   2.231   6.559 -0.1909  0.3257  0.5682
  176SAPI    HA19998   2.916   2.136   6.535 -0.3050  1.0699 -2.3814
  176SAPI    HB19999   3.056   2.234   6.490 -0.6682  0.5291 -0.0283
  176SAPI    C220000   3.025   2.230   6.703  0.3506  0.3463  0.7068
  176SAPI    HS20001   3.089   2.140   6.715  0.5396  0.6401  1.9040
  176SAPI   O2120002   2.927   2.224   6.800  0.9106  0.0501  0.2620
  176SAPI   C2120003   2.890   2.101   6.833  0.0944 -0.3267  0.4537
  176SAPI   O2220004   2.916   2.001   6.776  0.2809  0.4204 -0.6634
  176SAPI   C2220005   2.801   2.102   6.947 -0.0124  0.1386  0.3540
  176SAPI   H2R20006   2.759   2.203   6.967 -1.8816 -0.6802  0.6666
  176SAPI   H2S20007   2.721   2.032   6.914  0.7822 -1.0320  0.9212
  176SAPI    C320008   3.119   2.355   6.723 -0.2361  0.6356 -0.8525
  176SAPI    HX20009   3.049   2.441   6.720 -0.3301  0.7801  2.9481
  176SAPI    HY20010   3.189   2.370   6.638  1.4244  0.9989  0.5420
  176SAPI   O3120011   3.196   2.337   6.841 -0.2606 -0.0569  0.3280
  176SAPI   C3120012   3.258   2.455   6.887  0.2368 -0.0398  0.5666
  176SAPI   O3220013   3.255   2.567   6.844  0.0253  0.1954  0.4270
  176SAPI   C3220014   3.355   2.422   6.997  0.0108  0.3957  1.0271
  176SAPI   H2X20015   3.455   2.395   6.957 -0.4319 -0.3369  0.4101
  176SAPI   H2Y20016   3.318   2.331   7.049  1.1252  0.0595  1.2373
  176SAPI   C2320017   2.865   2.039   7.075  0.5583 -0.1164 -0.8537
  176SAPI   H3R20018   2.883   1.931   7.054 -0.3102 -0.3864 -0.2334
  176SAPI   H3S20019   2.802   2.051   7.165 -0.0738  0.2248 -1.3368
  176SAPI   C2420020   2.998   2.114   7.105  0.0048  0.6364  0.5471
  176SAPI   H4R20021   3.068   2.095   7.020 -0.3629 -1.3117  0.6619
  176SAPI   H4S20022   3.055   2.067   7.188 -1.2830  3.0394  2.8517
  176SAPI   C2520023   2.971   2.259   7.126 -0.8974  0.1104 -0.2334
  176SAPI   H5R20024   3.000   2.328   7.046 -1.3031 -2.0362 -2.2983
  176SAPI   C2620025   2.924   2.308   7.243 -0.1248  0.4699 -0.3932
  176SAPI   H6R20026   2.915   2.417   7.256 -0.2590  0.4053  0.0584
  176SAPI   C2720027   2.894   2.230   7.362  0.0062 -0.0028 -0.1380
  176SAPI   H7R20028   2.894   2.120   7.347 -1.2070  0.0592 -0.6798
  176SAPI   H7S20029   2.793   2.256   7.403 -0.0769 -0.6259  0.0733
  176SAPI   C2820030   3.006   2.255   7.453 -0.4296  0.2568  0.1228
  176SAPI   H8R20031   3.100   2.212   7.418 -0.5427  0.7270 -0.7749
  176SAPI   C2920032   3.007   2.317   7.572 -1.8003 -0.6080  0.4156
  176SAPI   H9R20033   3.104   2.332   7.621 -1.9590  0.7339  0.3203
  176SAPI  C21020034   2.887   2.387   7.634  0.3356  0.1254 -0.5770
  176SAPI  H10R20035   2.875   2.345   7.736 -0.2133 -1.6010 -1.3361
  176SAPI  H10S20036   2.790   2.368   7.585 -0.5928  2.3480  0.3599
  176SAPI  C21120037   2.885   2.541   7.647 -0.1569  0.0933 -0.1855
  176SAPI  H11R20038   2.835   2.589   7.562 -2.2020  1.1082  1.5443
  176SAPI  C21220039   2.942   2.621   7.740  0.9517 -0.1959  0.0253
  176SAPI  H12R20040   2.925   2.730   7.736  3.2989  0.1492 -1.2492
  176SAPI  C21320041   3.026   2.574   7.855  0.0892  0.0260 -0.3351
  176SAPI  H13R20042   3.101   2.655   7.874 -2.4823  2.1043  1.3207
  176SAPI  H13S20043   3.071   2.476   7.829 -0.8412 -0.3867 -0.3738
  176SAPI  C21420044   2.942   2.566   7.981  0.3583  0.2418 -0.3504
  176SAPI  H14R20045   2.846   2.619   7.979  0.7172  0.8805 -0.9552
  176SAPI  C21520046   2.972   2.503   8.094  0.2868  1.1433  0.0862
  176SAPI  H15R20047   2.898   2.522   8.174 -0.6515 -0.8374 -0.2941
  176SAPI  C21620048   3.104   2.427   8.132 -0.7180 -0.3240 -0.4500
  176SAPI  H16R20049   3.172   2.433   8.044 -0.3610 -1.6827 -0.2853
  176SAPI  H16S20050   3.087   2.318   8.146  2.1924 -0.6757  0.6852
  176SAPI  C21720051   3.176   2.488   8.256  0.2531 -0.5933 -0.1141
  176SAPI  H17R20052   3.111   2.474   8.345  0.0562  2.4994  0.2673
  176SAPI  H17S20053   3.205   2.595   8.260 -0.7609 -0.1962 -2.8452
  176SAPI  C21820054   3.302   2.410   8.300 -0.6088 -0.4320 -0.0911
  176SAPI  H18R20055   3.277   2.302   8.305 -0.7188 -0.3603  1.0485
  176SAPI  H18S20056   3.352   2.442   8.393 -0.9285  3.9349 -1.2883
  176SAPI  C21920057   3.406   2.418   8.189 -0.5390 -0.8736 -0.3778
  176SAPI  H19R20058   3.362   2.389   8.092  0.6834 -1.9021 -0.6332
  176SAPI  H19S20059   3.483   2.344   8.221  1.5645  0.8086 -1.3983
  176SAPI  C22020060   3.473   2.562   8.168 -0.4884 -0.1455  0.2432
  176SAPI  H20R20061   3.540   2.549   8.080  0.8630  2.2244  0.8888
  176SAPI  H20S20062   3.545   2.578   8.251  0.1066  0.8567 -0.4725
  176SAPI  H20T20063   3.396   2.641   8.154 -1.6879 -1.6342 -1.7624
  176SAPI   C3320064   3.358   2.536   7.103  0.0931  0.0708  0.2483
  176SAPI   H3X20065   3.259   2.541   7.154  0.9964  2.0388  1.8712
  176SAPI   H3Y20066   3.386   2.637   7.067  0.8694 -0.1017  0.3681
  176SAPI   C3420067   3.452   2.494   7.224  0.0723 -0.6356  0.2205
  176SAPI   H4X20068   3.558   2.501   7.189  1.5539 -1.9492  4.1508
  176SAPI   H4Y20069   3.418   2.391   7.247 -3.2036  0.5154  0.7172
  176SAPI   C3520070   3.436   2.593   7.338 -0.1188 -0.0025 -0.5448
  176SAPI   H5X20071   3.329   2.589   7.366 -0.2910 -2.7379 -1.4160
  176SAPI   H5Y20072   3.466   2.696   7.310  2.4923 -0.8119 -0.8639
  176SAPI   C3620073   3.516   2.551   7.461  0.5688 -0.2763 -0.3654
  176SAPI   H6X20074   3.619   2.530   7.426 -0.4254 -3.3630 -1.5517
  176SAPI   H6Y20075   3.467   2.462   7.506 -1.7885  0.3339 -1.6265
  176SAPI   C3720076   3.514   2.657   7.579  0.0313 -0.2641 -0.5055
  176SAPI   H7X20077   3.516   2.755   7.527 -1.2788  0.3042  0.4841
  176SAPI   H7Y20078   3.606   2.640   7.638  0.2945  0.3708 -0.7415
  176SAPI   C3820079   3.397   2.648   7.675  0.8436  0.7850  0.0832
  176SAPI   H8X20080   3.410   2.556   7.736  0.2546  0.4508 -0.2841
  176SAPI   H8Y20081   3.303   2.630   7.618 -0.0446 -0.5520  1.9001
  176SAPI   C3920082   3.380   2.760   7.773  0.3634  0.9668 -0.4744
  176SAPI   H9X20083   3.301   2.731   7.845 -1.0476  1.6922 -1.6942
  176SAPI   H9Y20084   3.333   2.853   7.733 -2.0158 -0.5264 -1.2626
  176SAPI  C31020085   3.504   2.791   7.857  0.0101 -0.3440 -0.5880
  176SAPI  H10X20086   3.590   2.817   7.792  0.8229  0.0907  0.6333
  176SAPI  H10Y20087   3.542   2.702   7.910  1.5668  1.3463  1.2369
  176SAPI  C31120088   3.489   2.907   7.953  0.4400 -0.0486 -0.2759
  176SAPI  H11X20089   3.382   2.917   7.983  0.3687  0.4410 -0.6865
  176SAPI  H11Y20090   3.501   3.009   7.909  1.5608 -1.1379 -2.5570
  176SAPI  C31220091   3.563   2.891   8.091  0.5468 -0.1693  0.0496
  176SAPI  H12X20092   3.671   2.872   8.077  1.5736  5.0144 -0.1493
  176SAPI  H12Y20093   3.529   2.795   8.136  1.7358  0.4271  2.2683
  176SAPI  C31320094   3.543   3.015   8.182 -0.5924 -0.8028 -0.3872
  176SAPI  H13X20095   3.577   2.994   8.286 -2.1677 -0.6109  0.1908
  176SAPI  H13Y20096   3.432   3.025   8.187 -0.5484 -0.8381  0.8830
  176SAPI  C31420097   3.615   3.146   8.129  0.6177  0.3004 -0.1141
  176SAPI  H14X20098   3.540   3.193   8.061  0.0289 -1.7907 -0.9545
  176SAPI  H14Y20099   3.702   3.117   8.066  0.8726 -0.2500  0.4936
  176SAPI  C31520100   3.661   3.234   8.243 -0.8515  0.2467  0.1044
  176SAPI  H15X20101   3.696   3.325   8.190  0.9215  0.6001  1.8247
  176SAPI  H15Y20102   3.746   3.194   8.302 -0.0725  1.7712  0.0375
  176SAPI  C31620103   3.549   3.289   8.331 -0.0415  0.1763  0.5059
  176SAPI  H16X20104   3.577   3.373   8.398  0.0990  1.5339 -1.2269
  176SAPI  H16Y20105   3.519   3.211   8.404 -1.5721  0.3589  0.0937
  176SAPI  C31720106   3.430   3.353   8.262  0.6609 -0.3653 -0.0039
  176SAPI  H17X20107   3.383   3.286   8.187  0.5737  0.7979 -1.0056
  176SAPI  H17Y20108   3.455   3.446   8.205 -1.2990  0.4673  0.4618
  176SAPI  C31820109   3.319   3.401   8.367 -0.0749 -0.8157  0.3956
  176SAPI  H18X20110   3.311   3.331   8.453 -0.7367  0.9084  1.7666
  176SAPI  H18Y20111   3.220   3.419   8.320  0.8270  1.0584 -0.8323
  176SAPI  H18Z20112   3.362   3.494   8.408  3.1695 -1.1120 -2.1008
  177SLPC     N20113   2.377   6.598  11.182 -0.1535  0.3541  0.3799
  177SLPC   C1320114   2.413   6.468  11.251  0.0748 -0.0785  0.2641
  177SLPC  H13A20115   2.445   6.481  11.354  0.0858 -0.7780  0.3506
  177SLPC  H13B20116   2.331   6.398  11.255 -1.2136  1.4767  1.6656
  177SLPC  H13C20117   2.493   6.417  11.200 -0.1267  0.8208 -0.9737
  177SLPC   C1420118   2.497   6.694  11.197 -0.2314  0.3514 -0.1612
  177SLPC  H14A20119   2.508   6.720  11.301  1.1637 -1.1440  0.0896
  177SLPC  H14B20120   2.585   6.655  11.148  0.5003  1.4824  0.2186
  177SLPC  H14C20121   2.481   6.781  11.134  0.3842  0.7238  0.1928
  177SLPC   C1520122   2.260   6.667  11.250  0.1675  0.4009 -0.3387
  177SLPC  H15A20123   2.254   6.771  11.224  0.6664 -0.0496 -2.3110
  177SLPC  H15B20124   2.174   6.615  11.211 -0.2548  0.3220  0.6842
  177SLPC  H15C20125   2.256   6.648  11.357 -1.6374  2.6473  0.0242
  177SLPC   C1220126   2.356   6.579  11.030 -0.0143  0.5188 -0.6444
  177SLPC  H12A20127   2.336   6.678  10.991  1.8476  0.4973 -1.7307
  177SLPC  H12B20128   2.267   6.519  11.013  2.3076 -3.5524  0.8792
  177SLPC   C1120129   2.465   6.522  10.932 -0.5790  0.0636  0.6290
  177SLPC  H11A20130   2.554   6.589  10.930 -0.9498  0.5412 -0.0422
  177SLPC  H11B20131   2.423   6.522  10.829  0.7745  2.0417  0.0472
  177SLPC     P20132   2.392   6.271  10.943  0.4280  0.2122 -0.0672
  177SLPC   O1320133   2.447   6.144  10.996 -0.2062 -0.7246  0.4691
  177SLPC   O1420134   2.264   6.322  11.004  0.5833  0.1515 -0.2398
  177SLPC   O1220135   2.498   6.384  10.968 -0.2162  0.7615  0.0344
  177SLPC   O1120136   2.379   6.276  10.780 -0.4277  0.0211  0.6175
  177SLPC    C120137   2.484   6.235  10.691  0.4814  0.3294 -0.2561
  177SLPC    HA20138   2.585   6.267  10.724  1.0632 -0.7305 -0.9984
  177SLPC    HB20139   2.490   6.125  10.691  1.3511  0.3739 -0.5845
  177SLPC    C220140   2.461   6.292  10.550  0.1563 -0.7018 -0.3971
  177SLPC    HS20141   2.532   6.234  10.486  0.5472 -0.7175  0.0487
  177SLPC   O2120142   2.489   6.435  10.552  0.8318  0.4245  0.1002
  177SLPC   C2120143   2.614   6.475  10.547 -0.1811  0.0527  0.0041
  177SLPC   O2220144   2.716   6.406  10.549 -0.1287  0.2827  0.1445
  177SLPC   C2220145   2.612   6.628  10.557 -0.0966  0.3182 -0.2856
  177SLPC   H2R20146   2.508   6.665  10.562 -0.2784 -0.3447  1.3059
  177SLPC   H2S20147   2.661   6.659  10.651 -0.3209 -0.9206  0.2598
  177SLPC    C320148   2.313   6.260  10.490 -0.8727  0.8488  0.5124
  177SLPC    HX20149   2.234   6.315  10.546 -1.9620 -0.1081 -0.0476
  177SLPC    HY20150   2.299   6.152  10.513 -0.9504  0.7036 -0.2122
  177SLPC   O3120151   2.307   6.276  10.346  0.5311  0.1849  0.3408
  177SLPC   C3120152   2.245   6.376  10.283 -0.2341  0.6200  0.1260
  177SLPC   O3220153   2.185   6.465  10.340 -0.4112 -0.3771  0.1392
  177SLPC   C3220154   2.265   6.369  10.131  0.1083 -0.6817  0.0381
  177SLPC   H2X20155   2.375   6.356  10.120  0.4060  2.1216 -0.8556
  177SLPC   H2Y20156   2.224   6.459  10.080 -0.2095  0.6263  2.5089
  177SLPC   C2320157   2.695   6.696  10.446  0.0311 -0.5249 -0.3637
  177SLPC   H3R20158   2.781   6.631  10.419 -0.3564 -1.2330  0.1027
  177SLPC   H3S20159   2.739   6.791  10.483 -1.3358  0.3136 -0.8425
  177SLPC   C2420160   2.619   6.755  10.320 -0.6589  0.1265 -0.0544
  177SLPC   H4R20161   2.677   6.843  10.285 -1.4868  0.8901  0.4823
  177SLPC   H4S20162   2.528   6.801  10.363 -0.6099  2.6895 -2.5415
  177SLPC   C2520163   2.599   6.651  10.212 -0.2552 -0.3069  0.2541
  177SLPC   H5R20164   2.526   6.576  10.248  0.8223 -1.2639  0.4520
  177SLPC   H5S20165   2.699   6.608  10.188 -1.5005 -2.2979 -1.5106
  177SLPC   C2620166   2.540   6.710  10.076  0.1946 -0.1560  0.6318
  177SLPC   H6R20167   2.517   6.618  10.018 -0.1212  0.8701 -0.9008
  177SLPC   H6S20168   2.604   6.768  10.007 -1.3019  0.8290  0.0335
  177SLPC   C2720169   2.408   6.779  10.093 -0.4394 -0.0720  0.7094
  177SLPC   H7R20170   2.421   6.873  10.152  2.5839  1.6243 -2.4539
  177SLPC   H7S20171   2.336   6.710  10.142 -1.3198 -2.1318 -3.3040
  177SLPC   C2820172   2.350   6.835   9.961 -0.9268 -0.0055 -0.5069
  177SLPC   H8R20173   2.413   6.916   9.919 -2.2544  1.2599 -0.1323
  177SLPC   H8S20174   2.250   6.881   9.979 -1.3514 -0.0809 -2.6029
  177SLPC   C2920175   2.331   6.728   9.854  0.2100  0.7724  0.3216
  177SLPC   H9R20176   2.264   6.650   9.892  1.7125  0.3044  2.1152
  177SLPC  C21020177   2.372   6.713   9.728  0.1504 -0.1833  0.2007
  177SLPC  H10R20178   2.356   6.617   9.676 -1.5391  0.1364  0.0954
  177SLPC  C21120179   2.466   6.807   9.651 -0.2300  0.3851 -0.0820
  177SLPC  H11R20180   2.412   6.903   9.634  0.2147  0.7103  0.3316
  177SLPC  H11S20181   2.548   6.826   9.724 -0.5561 -1.0719  0.6856
  177SLPC  C21220182   2.511   6.740   9.522 -0.5967 -0.0212 -0.6272
  177SLPC  H12R20183   2.531   6.631   9.524  3.7474  0.6625 -0.7094
  177SLPC  C21320184   2.534   6.805   9.404 -0.0141 -0.2788 -0.2747
  177SLPC  H13R20185   2.554   6.747   9.313 -2.5699  0.5638 -1.4199
  177SLPC  C21420186   2.524   6.958   9.384  0.0136  0.1671  0.1370
  177SLPC  H14R20187   2.622   6.987   9.340  1.2116 -1.9257  1.3303
  177SLPC  H14S20188   2.520   7.007   9.484 -0.2230  2.5282 -0.9977
  177SLPC  C21520189   2.408   6.994   9.293 -0.0809  0.2884  0.1641
  177SLPC  H15R20190   2.377   7.097   9.319  0.6585  0.2650  1.1466
  177SLPC  H15S20191   2.321   6.933   9.327 -1.3760  0.4456 -2.7071
  177SLPC  C21620192   2.442   6.976   9.140 -0.0384  0.1856  0.0988
  177SLPC  H16R20193   2.469   6.871   9.115  2.1369  1.3067 -2.5904
  177SLPC  H16S20194   2.537   7.031   9.123 -0.2751 -0.0656 -2.1450
  177SLPC  C21720195   2.336   7.009   9.043 -0.7865  0.3342  0.8064
  177SLPC  H17R20196   2.237   7.013   9.094 -0.9660  0.1224  0.4749
  177SLPC  H17S20197   2.326   6.933   8.964 -1.8883 -0.0978  1.3496
  177SLPC  C21820198   2.366   7.136   8.967  0.8066 -0.0998  0.2111
  177SLPC  H18R20199   2.468   7.136   8.922  1.3132 -0.3534  1.3447
  177SLPC  H18S20200   2.353   7.227   9.030  1.3502 -0.8624  1.4420
  177SLPC  H18T20201   2.291   7.137   8.885  1.5258  1.2741 -0.4590
  177SLPC   C3320202   2.183   6.257  10.063  0.2728  0.0381  0.5226
  177SLPC   H3X20203   2.077   6.287  10.077  1.1198  3.0591  0.7968
  177SLPC   H3Y20204   2.203   6.153  10.095 -0.3951 -0.4928 -0.7484
  177SLPC   C3420205   2.221   6.261   9.914  0.0081 -1.0497  0.5200
  177SLPC   H4X20206   2.326   6.229   9.897  0.2753  0.6463 -1.1109
  177SLPC   H4Y20207   2.203   6.364   9.878 -0.6585 -1.0512  0.8359
  177SLPC   C3520208   2.116   6.173   9.838 -0.5941 -0.5936 -1.0266
  177SLPC   H5X20209   2.014   6.216   9.838 -1.2283 -2.0626  0.1863
  177SLPC   H5Y20210   2.108   6.079   9.898 -1.2737  0.0206 -0.1338
  177SLPC   C3620211   2.160   6.129   9.698 -0.3240 -0.1338  0.7364
  177SLPC   H6X20212   2.259   6.078   9.692  0.6389  1.4654  2.5015
  177SLPC   H6Y20213   2.169   6.221   9.636 -0.7155 -1.4122 -1.2819
  177SLPC   C3720214   2.055   6.041   9.631 -0.8558 -1.0952 -0.3289
  177SLPC   H7X20215   1.961   6.095   9.607 -0.1040  0.2460 -0.2630
  177SLPC   H7Y20216   2.026   5.962   9.704  1.3950 -0.8055  0.9323
  177SLPC   C3820217   2.101   5.981   9.497 -0.1868 -0.5110  0.0827
  177SLPC   H8X20218   2.035   5.897   9.467  1.3190 -2.1552  1.2634
  177SLPC   H8Y20219   2.207   5.949   9.491 -0.1112 -0.7523  2.3223
  177SLPC   C3920220   2.085   6.075   9.375 -0.9233  0.5571 -0.2589
  177SLPC   H9X20221   2.067   6.179   9.408 -0.9087  0.1693  1.0060
  177SLPC   H9Y20222   1.995   6.039   9.320 -2.3237  1.2235  1.5608
  177SLPC  C31020223   2.214   6.066   9.290 -0.0324  0.0425 -0.5089
  177SLPC  H10X20224   2.295   6.109   9.352  2.4362 -2.1288 -2.0955
  177SLPC  H10Y20225   2.212   6.138   9.205 -0.8756  0.5906 -0.0316
  177SLPC  C31120226   2.232   5.934   9.211 -0.3621  0.0629 -0.6539
  177SLPC  H11X20227   2.146   5.909   9.146 -1.2847 -0.5599  0.7907
  177SLPC  H11Y20228   2.232   5.847   9.281 -0.9411 -1.5315 -2.5961
  177SLPC  C31220229   2.357   5.942   9.132  0.0816  0.1228  0.0401
  177SLPC  H12X20230   2.433   5.973   9.207  0.3847  0.3558 -0.3632
  177SLPC  H12Y20231   2.345   6.026   9.060 -1.8021  2.1262  2.5350
  177SLPC  C31320232   2.408   5.812   9.072  0.2218  0.1959 -0.0084
  177SLPC  H13X20233   2.451   5.755   9.157 -0.5708  1.7985  1.4959
  177SLPC  H13Y20234   2.496   5.835   9.008  2.9298  0.6871  3.7283
  177SLPC  C31420235   2.297   5.731   8.988 -0.2561 -0.1510 -0.5686
  177SLPC  H14X20236   2.220   5.695   9.059  1.9982  1.8006  3.0147
  177SLPC  H14Y20237   2.344   5.640   8.943 -0.1536  0.2988 -1.3785
  177SLPC  C31520238   2.232   5.819   8.879 -0.2875  0.0709 -0.2355
  177SLPC  H15X20239   2.306   5.876   8.819  0.0612  0.3006  0.4028
  177SLPC  H15Y20240   2.160   5.879   8.940 -1.0395  0.3911 -1.4139
  177SLPC  C31620241   2.152   5.743   8.776  0.1795  0.3670  0.8304
  177SLPC  H16X20242   2.096   5.815   8.712  1.2508 -0.8602 -1.5306
  177SLPC  H16Y20243   2.071   5.682   8.822 -1.5372  0.8289 -1.5108
  177SLPC  C31720244   2.240   5.659   8.682 -0.4179  1.4132  0.4506
  177SLPC  H17X20245   2.278   5.562   8.722  0.9540  2.1865  1.0534
  177SLPC  H17Y20246   2.330   5.702   8.634 -0.7183  0.1998 -1.2602
  177SLPC  C31820247   2.145   5.620   8.569 -0.4310  0.0599 -0.3400
  177SLPC  H18X20248   2.096   5.714   8.537  2.8931  1.8563 -0.4039
  177SLPC  H18Y20249   2.082   5.533   8.598 -0.1876 -0.0468 -0.1235
  177SLPC  H18Z20250   2.204   5.585   8.481  0.1297 -1.2651  0.5477
  178SLPC     N20251   4.666   1.397  11.106 -0.1985  0.1588 -0.3137
  178SLPC   C1320252   4.601   1.527  11.079 -0.3867  0.5281 -0.2827
  178SLPC  H13A20253   4.598   1.579  11.174 -2.8761 -0.9614  0.5116
  178SLPC  H13B20254   4.644   1.584  10.998 -0.3600  1.5971  0.4649
  178SLPC  H13C20255   4.497   1.517  11.051 -1.0399 -1.2340  2.5799
  178SLPC   C1420256   4.806   1.426  11.152 -0.5265 -0.0459 -0.3562
  178SLPC  H14A20257   4.815   1.514  11.214 -0.1086  1.2738 -2.2375
  178SLPC  H14B20258   4.839   1.338  11.205 -0.9665 -0.0323 -0.0573
  178SLPC  H14C20259   4.865   1.448  11.064  0.5666 -0.2654  0.2991
  178SLPC   C1520260   4.675   1.322  10.974  0.6956  0.6738  0.5405
  178SLPC  H15A20261   4.722   1.383  10.898 -0.3475 -1.2168 -1.7084
  178SLPC  H15B20262   4.735   1.233  10.984  0.4794  0.2398 -1.7119
  178SLPC  H15C20263   4.582   1.273  10.948  0.2747  0.7702  1.8165
  178SLPC   C1220264   4.577   1.321  11.210 -0.3206  0.4578  0.2977
  178SLPC  H12A20265   4.583   1.383  11.298  3.0015  0.7495 -0.0598
  178SLPC  H12B20266   4.626   1.229  11.236 -0.4749  0.1809 -0.3796
  178SLPC   C1120267   4.422   1.303  11.191 -0.1643  0.4905 -0.2574
  178SLPC  H11A20268   4.361   1.396  11.197  0.1970  0.6530  0.9466
  178SLPC  H11B20269   4.404   1.246  11.285 -0.1764  2.1033  0.7403
  178SLPC     P20270   4.241   1.241  11.017 -0.0478 -0.2091 -0.6598
  178SLPC   O1320271   4.176   1.120  11.069 -0.0455  0.3799  0.5045
  178SLPC   O1420272   4.178   1.379  11.043 -0.1641  0.6633  0.3127
  178SLPC   O1220273   4.394   1.233  11.071 -0.1698 -0.6622 -0.0288
  178SLPC   O1120274   4.262   1.220  10.859 -0.1491 -0.6055 -0.1723
  178SLPC    C120275   4.357   1.132  10.800 -0.3859  0.8770 -0.2622
  178SLPC    HA20276   4.453   1.183  10.781  1.2314 -2.4824 -1.5234
  178SLPC    HB20277   4.365   1.045  10.868  1.1815  0.6891 -0.6830
  178SLPC    C220278   4.310   1.090  10.653  0.4118  0.1918 -0.8778
  178SLPC    HS20279   4.394   1.038  10.601  1.7467  1.1324  0.2860
  178SLPC   O2120280   4.273   1.210  10.585 -0.1462 -0.0698  0.2511
  178SLPC   C2120281   4.369   1.272  10.522  0.7725 -0.2837  0.7793
  178SLPC   O2220282   4.482   1.230  10.509  0.2524  0.3042 -0.5946
  178SLPC   C2220283   4.329   1.411  10.488  0.0726  0.6011  0.1609
  178SLPC   H2R20284   4.219   1.420  10.481 -0.3992  0.4474  5.1388
  178SLPC   H2S20285   4.354   1.487  10.566 -0.8703 -1.6079  2.6954
  178SLPC    C320286   4.188   0.996  10.666 -0.5187 -0.4065  0.1229
  178SLPC    HX20287   4.127   1.045  10.745  1.2300  0.7926  0.7801
  178SLPC    HY20288   4.224   0.900  10.711 -0.6425  0.1525  1.4547
  178SLPC   O3120289   4.124   0.981  10.537 -0.5315  0.4147  0.6601
  178SLPC   C3120290   4.010   0.924  10.544  0.2685  0.0666 -0.7907
  178SLPC   O3220291   3.952   0.884  10.645 -0.1327 -0.0695 -0.1489
  178SLPC   C3220292   3.969   0.902  10.394  0.5593  0.7932 -0.6501
  178SLPC   H2X20293   3.859   0.894  10.386  0.6426 -0.5131 -0.6722
  178SLPC   H2Y20294   4.016   0.804  10.369 -0.4411  0.4825 -1.3389
  178SLPC   C2320295   4.395   1.454  10.358  0.2123  1.0253  0.0338
  178SLPC   H3R20296   4.506   1.445  10.358  0.2826  1.5287  2.6075
  178SLPC   H3S20297   4.380   1.564  10.359 -1.9373  0.7649 -1.3967
  178SLPC   C2420298   4.319   1.404  10.235 -0.3863  0.8004 -0.5562
  178SLPC   H4R20299   4.228   1.468  10.240 -0.6665  0.2996  1.3045
  178SLPC   H4S20300   4.277   1.302  10.240 -1.7001  1.2790 -1.4408
  178SLPC   C2520301   4.386   1.421  10.097 -0.4439  0.1327 -0.5664
  178SLPC   H5R20302   4.485   1.370  10.094 -1.0938 -1.0729 -2.0647
  178SLPC   H5S20303   4.420   1.525  10.081  0.4349  0.3742  2.5203
  178SLPC   C2620304   4.295   1.379   9.987 -0.5147  0.5847  0.2644
  178SLPC   H6R20305   4.194   1.426   9.989 -1.3993 -1.3234  2.4684
  178SLPC   H6S20306   4.274   1.270   9.999  0.2353  0.6113  1.8382
  178SLPC   C2720307   4.358   1.419   9.852 -0.5568  0.5027  1.3061
  178SLPC   H7R20308   4.437   1.349   9.819 -3.2349 -1.9542 -0.1682
  178SLPC   H7S20309   4.394   1.523   9.864  2.1047 -0.0619 -1.1946
  178SLPC   C2820310   4.258   1.424   9.732  0.3831 -0.5997  0.0837
  178SLPC   H8R20311   4.314   1.460   9.643 -1.0030  0.0704 -0.5335
  178SLPC   H8S20312   4.179   1.495   9.766 -0.0679  0.7291 -3.5679
  178SLPC   C2920313   4.189   1.289   9.702  0.3866  0.1864  0.3654
  178SLPC   H9R20314   4.180   1.238   9.799  3.8405  0.1476  0.7174
  178SLPC  C21020315   4.139   1.242   9.586  0.1845  0.2844 -0.0079
  178SLPC  H10R20316   4.091   1.143   9.583 -0.8186  0.7702 -0.4046
  178SLPC  C21120317   4.158   1.299   9.450  0.3045 -0.9496  0.0804
  178SLPC  H11R20318   4.133   1.407   9.465  0.4172 -0.8085 -0.6931
  178SLPC  H11S20319   4.081   1.251   9.385  0.0685  0.0778 -0.4228
  178SLPC  C21220320   4.292   1.275   9.394  0.0987  0.0162  0.4553
  178SLPC  H12R20321   4.373   1.322   9.450 -1.1333  1.6111  0.9356
  178SLPC  C21320322   4.316   1.210   9.282  0.2326  0.4896  0.8532
  178SLPC  H13R20323   4.423   1.196   9.257 -0.1284 -0.8335  0.0214
  178SLPC  C21420324   4.225   1.152   9.180 -0.1005  0.3326 -0.2167
  178SLPC  H14R20325   4.140   1.099   9.229  1.0103 -0.7993  0.5081
  178SLPC  H14S20326   4.291   1.085   9.121 -1.1035  0.3818 -1.4300
  178SLPC  C21520327   4.181   1.272   9.092  0.1448 -0.8389  0.4707
  178SLPC  H15R20328   4.140   1.346   9.164  0.8142  0.4904 -0.4962
  178SLPC  H15S20329   4.098   1.225   9.036  0.4762 -0.4710 -0.3378
  178SLPC  C21620330   4.292   1.340   9.007  0.2411  0.3127  0.1405
  178SLPC  H16R20331   4.351   1.409   9.071  1.5175  1.8436 -2.6216
  178SLPC  H16S20332   4.252   1.407   8.929 -1.2424  0.5581  1.1018
  178SLPC  C21720333   4.387   1.245   8.933  0.0948 -0.0635 -0.4505
  178SLPC  H17R20334   4.470   1.210   8.998 -0.1009  1.0305  0.4053
  178SLPC  H17S20335   4.437   1.306   8.855  0.9457  0.0884  0.2023
  178SLPC  C21820336   4.330   1.126   8.861 -0.4109  0.1726 -0.2307
  178SLPC  H18R20337   4.270   1.050   8.917  0.6647 -1.3356 -1.0765
  178SLPC  H18S20338   4.413   1.079   8.803 -1.3573  0.2751 -1.6974
  178SLPC  H18T20339   4.260   1.160   8.783  0.4813  2.3241 -0.1135
  178SLPC   C3320340   4.015   1.010  10.292 -1.2981  0.1033  0.3684
  178SLPC   H3X20341   4.126   1.015  10.288 -1.0863 -3.6891 -0.0365
  178SLPC   H3Y20342   3.982   1.113  10.320  2.4914  0.7334  2.7808
  178SLPC   C3420343   3.968   0.979  10.146  0.5930 -0.1386  0.0766
  178SLPC   H4X20344   3.857   0.971  10.142  0.8016 -3.3230 -0.1275
  178SLPC   H4Y20345   4.007   0.885  10.103  0.2386 -0.2426 -0.0207
  178SLPC   C3520346   3.989   1.097  10.043  0.7087 -0.2349  0.4080
  178SLPC   H5X20347   4.100   1.099  10.028  0.8040 -1.7969  0.7839
  178SLPC   H5Y20348   3.947   1.179  10.104  0.3259  0.3203 -0.5863
  178SLPC   C3620349   3.898   1.073   9.914  0.3300 -0.7269  0.1089
  178SLPC   H6X20350   3.872   1.176   9.884  2.4230 -0.4939 -1.0180
  178SLPC   H6Y20351   3.803   1.025   9.946  0.2687 -1.2007 -0.7761
  178SLPC   C3720352   3.955   0.988   9.802 -0.2956  0.1446  0.9928
  178SLPC   H7X20353   3.988   0.885   9.828  5.3295  1.2759 -0.9133
  178SLPC   H7Y20354   4.050   1.035   9.769 -0.4097  0.3359  0.9350
  178SLPC   C3820355   3.861   0.980   9.677  0.3381 -0.1883  0.4780
  178SLPC   H8X20356   3.840   1.081   9.636 -0.0109  0.1101  1.3729
  178SLPC   H8Y20357   3.759   0.948   9.707 -0.7817  3.2138  0.5204
  178SLPC   C3920358   3.913   0.884   9.564  1.6425 -0.5204 -0.1147
  178SLPC   H9X20359   3.902   0.780   9.601  0.0276  0.1338  1.2764
  178SLPC   H9Y20360   4.020   0.909   9.547  1.8456 -1.6316 -0.5101
  178SLPC  C31020361   3.845   0.910   9.430  0.3356  0.2919 -1.2611
  178SLPC  H10X20362   3.839   1.019   9.412 -0.2356  0.3556 -0.6642
  178SLPC  H10Y20363   3.744   0.865   9.430  0.1320  0.6813  1.0318
  178SLPC  C31120364   3.925   0.849   9.313  0.4141 -0.4515  0.5058
  178SLPC  H11X20365   3.944   0.740   9.322  0.3312 -0.4934  0.1857
  178SLPC  H11Y20366   4.022   0.902   9.322 -0.7293  2.7521 -4.1396
  178SLPC  C31220367   3.865   0.876   9.173  0.0464 -0.7300  0.0058
  178SLPC  H12X20368   3.833   0.982   9.175 -0.8965 -1.0016 -0.4579
  178SLPC  H12Y20369   3.770   0.819   9.164 -1.7058  1.7788  1.9641
  178SLPC  C31320370   3.956   0.841   9.056  0.6370 -0.7574 -0.2590
  178SLPC  H13X20371   3.933   0.743   9.009 -0.4557  0.1757 -1.7060
  178SLPC  H13Y20372   4.063   0.845   9.084  0.9107 -0.5378 -1.3311
  178SLPC  C31420373   3.937   0.943   8.945  0.5570  0.0702 -0.3393
  178SLPC  H14X20374   3.994   1.038   8.956  1.3066 -0.3411 -0.6516
  178SLPC  H14Y20375   3.832   0.974   8.923  1.3099  3.6801  0.9050
  178SLPC  C31520376   3.990   0.897   8.808 -0.4784  0.5072  0.6854
  178SLPC  H15X20377   4.096   0.930   8.810 -0.6209  1.0135  0.0159
  178SLPC  H15Y20378   3.971   0.793   8.777  3.3010  0.0718 -0.3824
  178SLPC  C31620379   3.931   0.980   8.693  0.3472 -0.1134 -0.6827
  178SLPC  H16X20380   3.951   1.087   8.714 -1.1015 -0.3360  2.1375
  178SLPC  H16Y20381   3.820   0.974   8.695  0.3672 -0.3203  1.0162
  178SLPC  C31720382   3.994   0.922   8.566  0.5096  0.3212  0.3409
  178SLPC  H17X20383   3.980   0.813   8.550 -0.3055  0.1127  2.2921
  178SLPC  H17Y20384   4.105   0.927   8.563  0.6504 -2.4823 -0.6705
  178SLPC  C31820385   3.947   0.995   8.444 -0.0746  0.2605 -0.1382
  178SLPC  H18X20386   3.989   1.096   8.465 -1.4000 -0.0467  4.6868
  178SLPC  H18Y20387   3.837   0.981   8.438 -0.0275 -1.8390  2.8780
  178SLPC  H18Z20388   3.997   0.953   8.354 -0.1120 -3.5244  1.5170
  179SLPC     N20389   5.734   4.342  10.486  0.8316  0.2484 -0.0052
  179SLPC   C1320390   5.757   4.479  10.562  0.2977  0.8695  0.3177
  179SLPC  H13A20391   5.741   4.560  10.492 -1.1187  0.9895  0.7596
  179SLPC  H13B20392   5.694   4.490  10.649  0.7755  0.2699  0.7374
  179SLPC  H13C20393   5.859   4.487  10.598  0.6338 -2.2864  0.1609
  179SLPC   C1420394   5.806   4.344  10.353  0.1489 -0.5326 -0.1152
  179SLPC  H14A20395   5.777   4.262  10.289 -0.3598  0.0134 -0.5917
  179SLPC  H14B20396   5.773   4.429  10.295  0.7271  1.5785  2.5712
  179SLPC  H14C20397   5.912   4.359  10.364 -0.0008  0.7072 -0.2638
  179SLPC   C1520398   5.587   4.338  10.458 -0.2767  0.0953 -0.0401
  179SLPC  H15A20399   5.533   4.368  10.547  2.6123  1.2975  1.3590
  179SLPC  H15B20400   5.560   4.422  10.396  0.5862  0.6858  0.3678
  179SLPC  H15C20401   5.550   4.244  10.420  1.0493  0.5539 -2.5197
  179SLPC   C1220402   5.769   4.213  10.569  0.1394  0.4881  0.4010
  179SLPC  H12A20403   5.799   4.137  10.499 -1.2037  0.4959 -0.2116
  179SLPC  H12B20404   5.694   4.186  10.643 -1.3055 -0.8505 -1.4913
  179SLPC   C1120405   5.895   4.226  10.654 -0.2494 -0.3324 -0.4123
  179SLPC  H11A20406   5.895   4.135  10.717  1.1031 -0.2941 -0.3401
  179SLPC  H11B20407   5.885   4.312  10.724  1.6331 -0.8013  0.4397
  179SLPC     P20408   6.060   4.134  10.479 -0.0568 -0.3809 -0.3600
  179SLPC   O1320409   6.180   4.075  10.543 -1.1174  0.1377  0.4909
  179SLPC   O1420410   5.956   4.041  10.431 -0.3744  0.0755  0.4343
  179SLPC   O1220411   6.011   4.251  10.573 -0.0697  0.0638  0.0368
  179SLPC   O1120412   6.105   4.221  10.351  0.0721 -0.0362 -0.6998
  179SLPC    C120413   6.176   4.158  10.246  0.2769  0.4727 -0.5287
  179SLPC    HA20414   6.269   4.218  10.247  0.5202  0.1357 -1.9964
  179SLPC    HB20415   6.215   4.056  10.266  0.3378  0.6519  0.2502
  179SLPC    C220416   6.121   4.168  10.108 -0.1441  0.1762  0.2801
  179SLPC    HS20417   6.191   4.099  10.055 -0.1570 -0.7204  1.4065
  179SLPC   O2120418   6.124   4.299  10.051 -0.0498  0.2894 -0.6024
  179SLPC   C2120419   6.245   4.339  10.012  0.3363 -0.3285  0.2295
  179SLPC   O2220420   6.350   4.278  10.028 -0.2041  0.0983  0.2832
  179SLPC   C2220421   6.243   4.478   9.949  0.1656  0.4899 -0.2574
  179SLPC   H2R20422   6.171   4.538  10.009 -0.6278  0.9533 -1.6375
  179SLPC   H2S20423   6.346   4.517   9.961  1.2334 -2.0384 -1.0095
  179SLPC    C320424   5.983   4.096  10.086  0.1065  0.1811 -0.3542
  179SLPC    HX20425   5.915   4.118  10.171  0.4362  0.9153 -0.2780
  179SLPC    HY20426   5.997   3.986  10.091 -0.7556  0.1094  0.7041
  179SLPC   O3120427   5.917   4.128   9.961  0.1885  0.0974 -0.3108
  179SLPC   C3120428   5.798   4.188   9.967 -0.1827 -0.4476  0.3574
  179SLPC   O3220429   5.736   4.221  10.064 -0.4091 -0.9009 -0.1023
  179SLPC   C3220430   5.749   4.178   9.826 -0.1178  0.0639  0.1386
  179SLPC   H2X20431   5.694   4.082   9.820  0.8362 -0.4953  0.2345
  179SLPC   H2Y20432   5.834   4.187   9.754 -1.0233  0.1931 -0.9260
  179SLPC   C2320433   6.201   4.472   9.805  0.3463  0.8498  0.2169
  179SLPC   H3R20434   6.279   4.403   9.765  2.1089  1.8077  1.9044
  179SLPC   H3S20435   6.216   4.571   9.757 -1.3218  1.2610  0.5180
  179SLPC   C2420436   6.061   4.416   9.782 -0.2007  0.8300 -0.2988
  179SLPC   H4R20437   5.998   4.469   9.857  1.0543  0.8438  0.7633
  179SLPC   H4S20438   6.048   4.308   9.803  3.0820  0.2891 -0.8287
  179SLPC   C2520439   6.001   4.432   9.640 -0.3711 -0.0673  0.5685
  179SLPC   H5R20440   5.994   4.540   9.613 -2.3896 -0.0546  1.0988
  179SLPC   H5S20441   5.900   4.388   9.626 -0.5432  0.2712  0.7441
  179SLPC   C2620442   6.090   4.357   9.544 -0.1247 -0.0657 -0.2179
  179SLPC   H6R20443   6.136   4.272   9.599 -1.0534  1.1395  2.5131
  179SLPC   H6S20444   6.171   4.427   9.513 -1.9539  1.2141 -2.2890
  179SLPC   C2720445   6.017   4.295   9.419 -0.2461  0.3842  0.2267
  179SLPC   H7R20446   5.959   4.376   9.369  0.2932 -0.5309 -1.9146
  179SLPC   H7S20447   5.939   4.221   9.448 -1.5485  1.5087 -0.3484
  179SLPC   C2820448   6.110   4.237   9.324 -0.1018 -0.0693 -0.5239
  179SLPC   H8R20449   6.064   4.149   9.274  0.2269  0.4110 -1.6868
  179SLPC   H8S20450   6.194   4.192   9.380  2.4553  2.9710 -1.7534
  179SLPC   C2920451   6.166   4.349   9.232 -0.1049  0.0242 -0.3233
  179SLPC   H9R20452   6.252   4.411   9.258  2.8044 -2.8846 -2.5925
  179SLPC  C21020453   6.105   4.386   9.116 -0.1167 -0.5680 -0.0346
  179SLPC  H10R20454   6.157   4.458   9.052  1.0178 -1.8586 -0.5750
  179SLPC  C21120455   5.978   4.334   9.063 -0.2305  0.1282 -0.3935
  179SLPC  H11R20456   5.922   4.425   9.034 -2.1681 -0.5309  1.1447
  179SLPC  H11S20457   5.921   4.282   9.143  0.3882  0.7107  0.4318
  179SLPC  C21220458   5.993   4.242   8.947  0.2193  0.7913  0.9747
  179SLPC  H12R20459   5.952   4.141   8.961 -2.1420  1.3399 -1.4720
  179SLPC  C21320460   6.034   4.265   8.820 -0.2203  0.0447  0.7017
  179SLPC  H13R20461   6.037   4.179   8.753 -1.9138 -0.8887  1.7932
  179SLPC  C21420462   6.083   4.399   8.775 -0.2116 -0.0868  0.6789
  179SLPC  H14R20463   6.163   4.440   8.840 -0.6449  1.6020  0.1729
  179SLPC  H14S20464   5.998   4.470   8.766 -1.9594 -2.0403  1.2389
  179SLPC  C21520465   6.124   4.402   8.630  0.1520 -0.5943 -0.1676
  179SLPC  H15R20466   6.059   4.349   8.557  0.9629 -0.3568 -1.0656
  179SLPC  H15S20467   6.212   4.334   8.621 -1.2425 -2.7675  2.0471
  179SLPC  C21620468   6.156   4.544   8.590  1.0493  0.0255  0.7018
  179SLPC  H16R20469   6.252   4.575   8.635  1.6512 -1.5666  0.5626
  179SLPC  H16S20470   6.070   4.602   8.630 -0.3060 -0.4402 -1.4315
  179SLPC  C21720471   6.160   4.555   8.435 -0.3899 -0.4513  0.1500
  179SLPC  H17R20472   6.060   4.543   8.389 -0.1687  0.1552 -0.5224
  179SLPC  H17S20473   6.231   4.478   8.398 -2.0811 -1.9496  0.0093
  179SLPC  C21820474   6.213   4.687   8.379  0.5167  0.1488  0.1869
  179SLPC  H18R20475   6.233   4.690   8.270 -1.6288  1.2801 -0.2148
  179SLPC  H18S20476   6.314   4.706   8.423  1.1511 -0.4613 -0.9850
  179SLPC  H18T20477   6.137   4.765   8.401  0.7285  0.1923  0.7736
  179SLPC   C3320478   5.649   4.295   9.784 -0.3573  0.5982 -0.1244
  179SLPC   H3X20479   5.707   4.382   9.749 -0.1219 -0.3549 -2.1906
  179SLPC   H3Y20480   5.585   4.326   9.870 -0.5260  0.6064 -0.2553
  179SLPC   C3420481   5.555   4.252   9.675  0.0628 -0.3823  0.1528
  179SLPC   H4X20482   5.481   4.335   9.670  2.2293  1.6025 -0.4723
  179SLPC   H4Y20483   5.495   4.163   9.704 -0.4219 -1.0249 -2.6740
  179SLPC   C3520484   5.623   4.235   9.543  0.8247 -0.7098 -0.0582
  179SLPC   H5X20485   5.634   4.127   9.519  0.7970 -0.2428 -2.3405
  179SLPC   H5Y20486   5.722   4.284   9.555  0.2504  1.2955 -2.9906
  179SLPC   C3620487   5.541   4.297   9.426  0.0447  0.3501 -0.0335
  179SLPC   H6X20488   5.533   4.407   9.431 -1.9023  0.1790  1.2763
  179SLPC   H6Y20489   5.440   4.251   9.421  0.2778  0.0192 -2.3785
  179SLPC   C3720490   5.611   4.277   9.287 -0.1802 -0.1871 -1.3996
  179SLPC   H7X20491   5.647   4.172   9.294 -0.1088 -0.0376  0.7301
  179SLPC   H7Y20492   5.699   4.344   9.279  0.6283 -0.7442  1.9862
  179SLPC   C3820493   5.513   4.310   9.169 -0.3108  0.1631 -0.1850
  179SLPC   H8X20494   5.500   4.420   9.162 -2.3776  0.0133  0.9674
  179SLPC   H8Y20495   5.414   4.263   9.186 -1.6168  2.1698 -1.8909
  179SLPC   C3920496   5.582   4.259   9.043 -0.5449 -0.3534 -0.3845
  179SLPC   H9X20497   5.605   4.150   9.038  0.9732  0.0183 -2.3708
  179SLPC   H9Y20498   5.684   4.303   9.048  0.4080 -2.6942  1.8340
  179SLPC  C31020499   5.511   4.284   8.907 -0.6560  0.2996 -1.0371
  179SLPC  H10X20500   5.501   4.393   8.889  3.4102  0.5776 -2.0223
  179SLPC  H10Y20501   5.404   4.256   8.920 -0.4743  0.4186  0.8079
  179SLPC  C31120502   5.569   4.199   8.795  0.4859 -0.3666  0.3257
  179SLPC  H11X20503   5.536   4.094   8.795  0.4451 -0.3505 -0.2416
  179SLPC  H11Y20504   5.680   4.208   8.798  0.4229  0.5486  0.1978
  179SLPC  C31220505   5.536   4.261   8.658 -0.7868  0.8367 -0.1570
  179SLPC  H12X20506   5.569   4.366   8.645  1.0426  0.4889  1.4424
  179SLPC  H12Y20507   5.425   4.258   8.657 -0.8924  2.8267 -3.9167
  179SLPC  C31320508   5.587   4.170   8.545  0.3371  0.5989 -0.1133
  179SLPC  H13X20509   5.528   4.203   8.456  0.4878 -0.6070 -0.6612
  179SLPC  H13Y20510   5.561   4.065   8.568 -1.7386  1.1321  0.1648
  179SLPC  C31420511   5.739   4.200   8.515 -0.4175 -0.2371  0.1014
  179SLPC  H14X20512   5.795   4.183   8.609 -1.4159 -0.3597  0.6860
  179SLPC  H14Y20513   5.759   4.304   8.483 -1.9432  0.7466  2.2568
  179SLPC  C31520514   5.787   4.107   8.401  0.0461 -0.3962 -0.1156
  179SLPC  H15X20515   5.730   4.134   8.310 -0.1822  0.6579  0.3333
  179SLPC  H15Y20516   5.771   4.002   8.433  0.6528 -0.9264 -1.5450
  179SLPC  C31620517   5.934   4.120   8.385  0.4300  0.4299 -0.6439
  179SLPC  H16X20518   5.990   4.123   8.481 -2.2858  0.3634  0.9780
  179SLPC  H16Y20519   5.956   4.220   8.340 -0.4145  2.1488  2.6093
  179SLPC  C31720520   5.992   4.007   8.303  0.1714  0.1602 -0.2487
  179SLPC  H17X20521   5.906   3.982   8.238 -0.3096  0.2962  0.3353
  179SLPC  H17Y20522   5.998   3.918   8.369  0.9998 -0.1294 -0.7068
  179SLPC  C31820523   6.122   4.047   8.225  0.2206 -0.0272 -0.6499
  179SLPC  H18X20524   6.095   4.115   8.142  0.3971 -0.3862 -0.9996
  179SLPC  H18Y20525   6.154   3.949   8.183  1.7138  0.0457  0.2723
  179SLPC  H18Z20526   6.203   4.083   8.292  0.3009 -0.7807 -0.3337
  180SLPC     N20527   0.021   2.683  10.912 -0.3555  0.1912  0.2517
  180SLPC   C1320528   0.008   2.830  10.907 -0.2260  0.0380 -0.7789
  180SLPC  H13A20529  -0.021   2.870  11.003  0.6971 -0.5901 -0.2229
  180SLPC  H13B20530   0.104   2.877  10.891 -0.5692  1.2012  0.4626
  180SLPC  H13C20531  -0.046   2.856  10.818  0.5898  0.4785 -1.1561
  180SLPC   C1420532   0.125   2.629  11.000 -0.0528 -0.4431 -0.6486
  180SLPC  H14A20533   0.125   2.521  10.994  2.5270 -0.4533 -0.6487
  180SLPC  H14B20534   0.221   2.671  10.975  0.1132 -1.4025 -1.6490
  180SLPC  H14C20535   0.100   2.656  11.101 -0.9697 -1.2884 -0.6410
  180SLPC   C1520536   0.036   2.638  10.777 -0.4189 -0.1338  0.9980
  180SLPC  H15A20537  -0.054   2.661  10.723  0.5309  1.0828 -0.0949
  180SLPC  H15B20538   0.118   2.668  10.714 -2.7000  0.4251 -1.7978
  180SLPC  H15C20539   0.052   2.531  10.780 -2.4963 -0.4791  0.4892
  180SLPC   C1220540  -0.122   2.634  10.953  0.0420 -0.3744  0.2394
  180SLPC  H12A20541  -0.192   2.662  10.877 -1.6114  0.3014  1.9697
  180SLPC  H12B20542  -0.135   2.678  11.051  0.0874  0.1313  0.0155
  180SLPC   C1120543  -0.155   2.484  10.961 -0.5353  0.5302 -0.0016
  180SLPC  H11A20544  -0.243   2.466  11.026  0.0475  0.2535  0.7186
  180SLPC  H11B20545  -0.066   2.439  11.012 -0.6441 -0.0358 -0.3047
  180SLPC     P20546  -0.207   2.272  10.822 -0.7158 -0.2153 -0.0398
  180SLPC   O1320547  -0.122   2.192  10.911 -0.6994 -0.2901  0.3122
  180SLPC   O1420548  -0.351   2.261  10.826  0.7519  0.7376 -0.1263
  180SLPC   O1220549  -0.163   2.428  10.828  0.8000  0.1281 -0.3893
  180SLPC   O1120550  -0.164   2.225  10.676 -0.0454  0.0361  0.3476
  180SLPC    C120551  -0.104   2.313  10.589 -0.0801  0.5786 -0.3283
  180SLPC    HA20552  -0.184   2.334  10.516  0.1612  2.8507  0.0410
  180SLPC    HB20553  -0.060   2.404  10.635 -1.6778  0.5000  1.4289
  180SLPC    C220554   0.015   2.239  10.516 -0.0334  0.3370 -0.3437
  180SLPC    HS20555   0.105   2.264  10.577  0.0898  1.0153 -0.8005
  180SLPC   O2120556   0.029   2.281  10.379 -0.4637  0.6536  0.4097
  180SLPC   C2120557   0.054   2.410  10.364 -0.6812  0.1131 -0.6984
  180SLPC   O2220558   0.092   2.483  10.448 -0.0855 -0.4817 -0.2074
  180SLPC   C2220559   0.034   2.444  10.216  0.7021  0.1716 -0.2780
  180SLPC   H2R20560   0.071   2.353  10.164 -1.6496 -1.4316  0.7610
  180SLPC   H2S20561  -0.075   2.448  10.194  0.2813 -0.5626  1.5672
  180SLPC    C320562  -0.010   2.087  10.521 -0.4917 -0.6225  0.3167
  180SLPC    HX20563  -0.114   2.059  10.493 -0.5547  0.4138 -0.5018
  180SLPC    HY20564  -0.012   2.065  10.630  0.8434 -1.5684  0.1517
  180SLPC   O3120565   0.086   2.007  10.452 -0.3284 -0.0023  0.4830
  180SLPC   C3120566   0.088   1.870  10.464 -0.9432  0.1406  0.3433
  180SLPC   O3220567   0.013   1.806  10.531  0.2312  0.5079 -0.2770
  180SLPC   C3220568   0.197   1.811  10.365 -0.0324 -0.3459 -0.2223
  180SLPC   H2X20569   0.199   1.702  10.384 -2.1415 -0.2351  0.8631
  180SLPC   H2Y20570   0.293   1.864  10.380  0.4952 -1.3619  0.0045
  180SLPC   C2320571   0.113   2.569  10.171  0.7072  0.4860 -0.1891
  180SLPC   H3R20572   0.216   2.565  10.213 -0.2235  2.0440  2.3934
  180SLPC   H3S20573   0.062   2.655  10.220 -1.5484 -1.4684  1.0032
  180SLPC   C2420574   0.115   2.596  10.018 -0.7016  0.5817  0.1129
  180SLPC   H4R20575   0.181   2.520   9.972 -3.9139 -4.4380  3.2540
  180SLPC   H4S20576   0.142   2.700   9.991  1.0150  0.2668  0.5376
  180SLPC   C2520577  -0.027   2.565   9.959  0.6553  0.4273 -0.4688
  180SLPC   H5R20578  -0.101   2.637  10.000 -1.2086 -1.7225  0.0020
  180SLPC   H5S20579  -0.049   2.461   9.992 -0.1038 -0.1862 -2.8131
  180SLPC   C2620580  -0.036   2.562   9.810  0.0358  0.2219  0.2410
  180SLPC   H6R20581  -0.001   2.663   9.780  0.8200 -0.1229 -0.0373
  180SLPC   H6S20582  -0.140   2.545   9.774  0.7390 -0.1818 -1.6825
  180SLPC   C2720583   0.052   2.451   9.748  0.3050 -0.4428 -0.1847
  180SLPC   H7R20584   0.023   2.353   9.792 -1.7058  0.4765  0.5810
  180SLPC   H7S20585   0.157   2.466   9.781  0.0342 -0.0065  0.4869
  180SLPC   C2820586   0.053   2.440   9.594 -0.3089 -0.5111  0.1005
  180SLPC   H8R20587  -0.046   2.458   9.547 -0.5224 -1.7387  0.0633
  180SLPC   H8S20588   0.091   2.340   9.562  1.7965  0.1054  0.5976
  180SLPC   C2920589   0.141   2.536   9.523 -0.5362  0.5319 -0.3073
  180SLPC   H9R20590   0.164   2.629   9.576 -2.4873  1.3026 -0.7564
  180SLPC  C21020591   0.184   2.527   9.399 -0.6331 -0.1521 -0.1383
  180SLPC  H10R20592   0.269   2.586   9.361 -0.2939  0.8332  2.0300
  180SLPC  C21120593   0.147   2.414   9.307  0.3319 -0.0819  0.0556
  180SLPC  H11R20594   0.038   2.426   9.289 -0.0127 -2.3706  0.5765
  180SLPC  H11S20595   0.166   2.324   9.368  3.2108 -0.4141 -1.2655
  180SLPC  C21220596   0.212   2.409   9.173 -0.1876  0.1717 -0.4531
  180SLPC  H12R20597   0.320   2.394   9.173 -0.3846 -1.3148 -0.8006
  180SLPC  C21320598   0.142   2.398   9.058 -0.1708  0.5884 -0.0151
  180SLPC  H13R20599   0.202   2.390   8.967  0.6598  2.8694  0.3156
  180SLPC  C21420600  -0.004   2.378   9.033 -0.2986 -0.0693 -0.1935
  180SLPC  H14R20601  -0.059   2.343   9.123 -1.2058 -1.4680 -1.2700
  180SLPC  H14S20602  -0.025   2.294   8.963  2.9503 -0.9072 -0.2718
  180SLPC  C21520603  -0.081   2.496   8.970 -0.3462  0.0567  0.4732
  180SLPC  H15R20604  -0.046   2.502   8.865 -0.7300 -0.0174  0.3387
  180SLPC  H15S20605  -0.055   2.590   9.022 -0.2300  0.2385  0.0875
  180SLPC  C21620606  -0.229   2.489   8.981  0.0735 -0.0362 -0.2524
  180SLPC  H16R20607  -0.250   2.510   9.088 -0.0959  2.9240 -0.8251
  180SLPC  H16S20608  -0.271   2.392   8.948 -1.3405  0.8455 -1.1053
  180SLPC  C21720609  -0.301   2.600   8.897 -0.1022 -0.0990  0.2601
  180SLPC  H17R20610  -0.408   2.571   8.889 -0.3100  0.7117  0.0941
  180SLPC  H17S20611  -0.260   2.612   8.795 -3.4196 -0.3360 -1.1793
  180SLPC  C21820612  -0.304   2.727   8.974  0.4870  0.7561  0.1319
  180SLPC  H18R20613  -0.356   2.802   8.910  0.6590  0.9256  0.1934
  180SLPC  H18S20614  -0.204   2.758   9.010 -1.0306  1.1753  4.2422
  180SLPC  H18T20615  -0.370   2.726   9.063  0.2134  2.2662 -0.0320
  180SLPC   C3320616   0.149   1.821  10.219  0.8510 -0.1192 -0.3780
  180SLPC   H3X20617   0.194   1.907  10.165  0.5846  0.2031 -0.0861
  180SLPC   H3Y20618   0.038   1.829  10.218  0.9243  0.9064 -2.3774
  180SLPC   C3420619   0.177   1.693  10.145 -0.3162 -0.5547 -0.1940
  180SLPC   H4X20620   0.130   1.610  10.202 -0.9686  0.4964  0.8304
  180SLPC   H4Y20621   0.286   1.674  10.138 -0.1680  0.5431 -1.0977
  180SLPC   C3520622   0.123   1.692  10.002  0.1656 -0.0428  0.1862
  180SLPC   H5X20623   0.168   1.774   9.943 -0.9075  1.4310  1.4041
  180SLPC   H5Y20624   0.014   1.709   9.989  0.4772  1.1602 -0.9816
  180SLPC   C3620625   0.174   1.572   9.923 -0.7775  0.6700 -0.1794
  180SLPC   H6X20626   0.120   1.483   9.964  0.7018 -0.3585 -0.4157
  180SLPC   H6Y20627   0.284   1.559   9.934 -1.4711 -2.5515  4.6443
  180SLPC   C3720628   0.135   1.575   9.777 -0.2558  0.5326 -0.6187
  180SLPC   H7X20629   0.159   1.679   9.745 -0.3985  0.3116 -1.4403
  180SLPC   H7Y20630   0.029   1.549   9.758 -0.4648  1.0415 -0.1581
  180SLPC   C3820631   0.215   1.479   9.688 -0.0740  1.0461  0.6598
  180SLPC   H8X20632   0.190   1.372   9.703  1.2794  0.0484 -3.4866
  180SLPC   H8Y20633   0.322   1.489   9.714 -0.5071 -0.3224  3.1629
  180SLPC   C3920634   0.214   1.512   9.538  0.5667  0.9411 -0.0257
  180SLPC   H9X20635   0.309   1.468   9.500  0.0236 -1.0565  0.8888
  180SLPC   H9Y20636   0.214   1.623   9.535 -1.5048  0.9810  0.3472
  180SLPC  C31020637   0.097   1.449   9.469 -0.1662  0.0711  0.2532
  180SLPC  H10X20638   0.001   1.483   9.513  0.0855  0.6771  0.3269
  180SLPC  H10Y20639   0.096   1.338   9.481  1.0422  0.1353  0.9452
  180SLPC  C31120640   0.091   1.480   9.315 -0.5532  0.0021  0.6235
  180SLPC  H11X20641   0.109   1.588   9.298 -2.5248  0.1492 -0.7081
  180SLPC  H11Y20642  -0.015   1.475   9.283 -0.7693  2.0467  0.9586
  180SLPC  C31220643   0.186   1.395   9.225  0.3245 -0.4993 -0.1305
  180SLPC  H12X20644   0.129   1.300   9.213 -0.5044 -0.3439  2.3849
  180SLPC  H12Y20645   0.280   1.372   9.279  1.7384  3.1228 -0.8660
  180SLPC  C31320646   0.219   1.456   9.088 -0.3787  0.5900  0.4709
  180SLPC  H13X20647   0.266   1.384   9.018 -1.9123  0.5747 -0.5556
  180SLPC  H13Y20648   0.309   1.520   9.088 -1.7306  2.5532 -1.8215
  180SLPC  C31420649   0.092   1.508   9.015  0.7331  0.0806 -0.8061
  180SLPC  H14X20650   0.061   1.608   9.052 -0.8192 -1.1012  1.2355
  180SLPC  H14Y20651   0.009   1.436   9.038  0.3608  2.0817  4.9755
  180SLPC  C31520652   0.107   1.512   8.860 -0.6565 -0.0484  0.0963
  180SLPC  H15X20653   0.132   1.416   8.810 -0.8191  0.5703 -1.1874
  180SLPC  H15Y20654   0.196   1.574   8.835 -1.5177  0.9581 -0.4903
  180SLPC  C31620655  -0.020   1.568   8.795  0.1488  0.9759  1.6911
  180SLPC  H16X20656  -0.062   1.642   8.867 -2.4828  1.7599 -0.5589
  180SLPC  H16Y20657  -0.096   1.487   8.791  0.3722  0.8269  0.4282
  180SLPC  C31720658  -0.002   1.620   8.653 -0.1789  1.0193  0.2854
  180SLPC  H17X20659   0.058   1.547   8.595  3.1482  1.0807  3.4397
  180SLPC  H17Y20660   0.072   1.703   8.650  1.3488 -0.3591 -0.8513
  180SLPC  C31820661  -0.134   1.636   8.580  0.3310  0.6616 -0.3844
  180SLPC  H18X20662  -0.187   1.724   8.621 -0.5465 -0.4915  1.0209
  180SLPC  H18Y20663  -0.205   1.550   8.572  2.1881 -1.4072  3.6688
  180SLPC  H18Z20664  -0.111   1.660   8.474 -2.4471 -0.7327 -1.3556
  181SLPC     N20665   3.115   6.291  10.977 -0.7925  0.7280 -0.0641
  181SLPC   C1320666   3.218   6.196  10.929 -0.3072  0.5326  0.3269
  181SLPC  H13A20667   3.189   6.120  10.857 -1.0872  1.0832  0.0580
  181SLPC  H13B20668   3.307   6.248  10.899 -0.3363  0.7883  0.6833
  181SLPC  H13C20669   3.255   6.139  11.014 -1.9923  1.1565  1.5141
  181SLPC   C1420670   3.182   6.377  11.083 -0.1909  0.2601 -0.4619
  181SLPC  H14A20671   3.271   6.426  11.047  1.4797 -2.0770  0.3115
  181SLPC  H14B20672   3.115   6.450  11.125  1.7789  1.8579 -0.0115
  181SLPC  H14C20673   3.203   6.305  11.161  1.4048  1.8419  0.6057
  181SLPC   C1520674   3.006   6.214  11.036  0.2354  0.6720 -1.0080
  181SLPC  H15A20675   2.926   6.281  11.063  1.6253  2.3473 -0.9739
  181SLPC  H15B20676   2.971   6.144  10.962 -0.9651  1.0198 -0.7835
  181SLPC  H15C20677   3.052   6.166  11.121  1.0082  2.3818 -0.4533
  181SLPC   C1220678   3.067   6.375  10.864  0.6166  0.1505  0.4653
  181SLPC  H12A20679   3.034   6.308  10.785  0.7569  0.0725  0.4719
  181SLPC  H12B20680   3.147   6.428  10.815 -0.6445  0.3626 -1.4336
  181SLPC   C1120681   2.955   6.478  10.879 -0.0054 -0.1533 -1.0978
  181SLPC  H11A20682   2.859   6.428  10.906 -1.4916  0.7633 -4.4768
  181SLPC  H11B20683   2.924   6.523  10.782 -1.7267  0.9270 -0.0724
  181SLPC     P20684   2.884   6.683  11.015  0.4036 -0.0672  0.1068
  181SLPC   O1320685   2.775   6.625  11.094 -0.1260  0.6715 -0.1738
  181SLPC   O1420686   2.956   6.796  11.074  0.2128 -0.2246  0.2635
  181SLPC   O1220687   2.988   6.573  10.978 -0.1357 -0.5811 -0.0762
  181SLPC   O1120688   2.817   6.731  10.883 -0.3663  0.1187  0.1725
  181SLPC    C120689   2.898   6.795  10.785  0.0714 -0.1015  0.5123
  181SLPC    HA20690   3.007   6.776  10.797  0.0869  0.2655  0.9490
  181SLPC    HB20691   2.872   6.760  10.683  0.6993  3.9410 -1.1188
  181SLPC    C220692   2.885   6.949  10.798  0.2051  0.0454  0.5331
  181SLPC    HS20693   2.904   6.972  10.905  0.6113  0.9698  0.2709
  181SLPC   O2120694   2.733   6.963  10.766  0.5294 -0.0508 -0.0725
  181SLPC   C2120695   2.694   7.093  10.769 -0.7536  0.1609  0.4442
  181SLPC   O2220696   2.755   7.180  10.822 -0.1980  0.3481 -0.1585
  181SLPC   C2220697   2.565   7.113  10.690 -0.1041  0.1110 -0.1163
  181SLPC   H2R20698   2.524   7.026  10.636  1.0250  1.5634 -3.4547
  181SLPC   H2S20699   2.482   7.138  10.760 -2.5284 -1.6849 -2.2676
  181SLPC    C320700   2.982   7.042  10.720  0.2505  0.1025 -0.0802
  181SLPC    HX20701   2.965   7.150  10.741  1.5226  0.0657  1.2567
  181SLPC    HY20702   2.960   7.034  10.611  0.1736  2.6757 -0.2889
  181SLPC   O3120703   3.119   6.993  10.739  0.4056 -0.1325 -0.2331
  181SLPC   C3120704   3.174   7.053  10.831  0.1775  0.0312 -0.6073
  181SLPC   O3220705   3.120   7.130  10.913  0.1618  0.0175  0.0205
  181SLPC   C3220706   3.319   7.005  10.832  0.1507  0.3708  0.0310
  181SLPC   H2X20707   3.327   6.898  10.801 -2.3717 -0.4090  1.8467
  181SLPC   H2Y20708   3.349   7.007  10.938  1.2953 -0.2301 -0.2728
  181SLPC   C2320709   2.575   7.234  10.589  0.0137  0.4978  0.1259
  181SLPC   H3R20710   2.597   7.326  10.646 -0.7729  0.5385  0.3657
  181SLPC   H3S20711   2.482   7.245  10.528  0.5713 -1.9326 -1.2426
  181SLPC   C2420712   2.689   7.212  10.496 -0.0830  0.7389 -0.5296
  181SLPC   H4R20713   2.770   7.143  10.528  1.1619  1.9526 -0.9816
  181SLPC   H4S20714   2.735   7.312  10.475 -1.4612  1.2072 -1.3357
  181SLPC   C2520715   2.642   7.169  10.350 -0.3014 -0.2635 -0.5635
  181SLPC   H5R20716   2.556   7.235  10.324  0.4797  1.0652  0.1584
  181SLPC   H5S20717   2.612   7.062  10.349  0.9505 -0.6145 -0.7554
  181SLPC   C2620718   2.752   7.168  10.240 -0.4369 -0.0324 -0.1593
  181SLPC   H6R20719   2.825   7.089  10.268  0.4429  1.5474  2.1403
  181SLPC   H6S20720   2.804   7.267  10.237 -1.7324  0.6360 -0.6672
  181SLPC   C2720721   2.697   7.139  10.100 -0.3662 -0.5953  0.8033
  181SLPC   H7R20722   2.671   7.031  10.105  0.3176 -0.8325 -0.6689
  181SLPC   H7S20723   2.784   7.133  10.032 -0.7679  0.2367  0.2017
  181SLPC   C2820724   2.571   7.210  10.047 -0.2026  0.0920  0.3472
  181SLPC   H8R20725   2.481   7.177  10.104 -0.4796 -2.0259 -1.2795
  181SLPC   H8S20726   2.559   7.172   9.944 -1.6933  0.5286  0.3395
  181SLPC   C2920727   2.577   7.355  10.066 -0.3397 -0.1971  0.0556
  181SLPC   H9R20728   2.601   7.381  10.170  0.1698  0.1322 -0.1444
  181SLPC  C21020729   2.555   7.454   9.983  0.1735  0.2570 -0.0357
  181SLPC  H10R20730   2.577   7.555  10.020 -1.1049 -0.0323  1.6004
  181SLPC  C21120731   2.528   7.445   9.837  0.8509  0.2437 -0.1702
  181SLPC  H11R20732   2.456   7.529   9.821  2.4871  1.5784 -0.6189
  181SLPC  H11S20733   2.480   7.347   9.817  0.3887  0.4377 -0.0235
  181SLPC  C21220734   2.651   7.477   9.758 -0.1466 -0.0653  0.5849
  181SLPC  H12R20735   2.724   7.551   9.794  1.6171 -1.3903 -0.1552
  181SLPC  C21320736   2.684   7.412   9.648  0.4262 -0.4021 -0.4389
  181SLPC  H13R20737   2.776   7.434   9.593  0.2641  0.1461 -0.4986
  181SLPC  C21420738   2.621   7.299   9.572  0.3681 -0.0654 -0.0205
  181SLPC  H14R20739   2.530   7.272   9.630  0.2264  2.8436  1.1545
  181SLPC  H14S20740   2.686   7.211   9.553  2.6885  1.4539  0.7829
  181SLPC  C21520741   2.561   7.347   9.430  0.3842 -0.1998 -0.6397
  181SLPC  H15R20742   2.534   7.255   9.375  2.7057 -2.0631  1.2213
  181SLPC  H15S20743   2.647   7.399   9.381 -0.6729 -0.7515 -3.2051
  181SLPC  C21620744   2.456   7.455   9.439  0.5037  0.3002  0.6715
  181SLPC  H16R20745   2.516   7.546   9.457  1.5839 -0.3707  0.4942
  181SLPC  H16S20746   2.383   7.426   9.518 -0.5435 -0.6892 -0.6426
  181SLPC  C21720747   2.372   7.461   9.311  0.0524 -0.4137  0.2096
  181SLPC  H17R20748   2.305   7.373   9.310 -1.0097  0.3737  0.9602
  181SLPC  H17S20749   2.449   7.456   9.230  1.6239  2.9384  1.3736
  181SLPC  C21820750   2.298   7.590   9.283  0.1500 -0.8438  0.4296
  181SLPC  H18R20751   2.376   7.668   9.271  1.0408 -1.3534  2.5681
  181SLPC  H18S20752   2.230   7.621   9.365 -0.4016 -0.8834 -0.0078
  181SLPC  H18T20753   2.248   7.579   9.184 -0.7857 -2.9914  1.1002
  181SLPC   C3320754   3.405   7.103  10.747 -1.2043  0.3243  0.3839
  181SLPC   H3X20755   3.507   7.105  10.790 -1.6775 -1.2519  1.6597
  181SLPC   H3Y20756   3.365   7.206  10.757 -1.4113  0.2231  0.6328
  181SLPC   C3420757   3.407   7.087  10.591  0.0088 -0.0284 -0.7212
  181SLPC   H4X20758   3.475   7.168  10.557  0.1060  0.0053 -0.4509
  181SLPC   H4Y20759   3.306   7.107  10.548  0.3282  0.5091 -1.2262
  181SLPC   C3520760   3.454   6.943  10.560  0.1714  1.1162  0.2336
  181SLPC   H5X20761   3.396   6.860  10.606  2.9181 -0.3669  1.1315
  181SLPC   H5Y20762   3.558   6.939  10.599  0.1381  3.6120  0.6050
  181SLPC   C3620763   3.464   6.912  10.409  0.2617 -0.2217 -0.0085
  181SLPC   H6X20764   3.366   6.926  10.360  0.9029  1.2637 -0.8826
  181SLPC   H6Y20765   3.500   6.808  10.392  0.4043 -0.3796  1.1643
  181SLPC   C3720766   3.553   7.011  10.336 -0.5268  0.1489  0.5107
  181SLPC   H7X20767   3.659   7.008  10.367  0.0765  1.0147 -1.3928
  181SLPC   H7Y20768   3.523   7.117  10.353  2.0010  1.1628 -1.0956
  181SLPC   C3820769   3.555   6.996  10.181  0.8223 -0.0853 -0.1235
  181SLPC   H8X20770   3.554   6.894  10.137 -1.4236 -0.8685  1.6842
  181SLPC   H8Y20771   3.645   7.057  10.158 -0.1387  0.7929 -1.6211
  181SLPC   C3920772   3.432   7.070  10.108 -0.8484 -0.4184  0.0850
  181SLPC   H9X20773   3.439   7.180  10.115  4.0212 -0.5662 -0.9261
  181SLPC   H9Y20774   3.338   7.033  10.156  1.5402 -1.3293  4.3368
  181SLPC  C31020775   3.409   7.033   9.966 -0.1694 -0.5580  0.0036
  181SLPC  H10X20776   3.318   7.089   9.936  0.2745  0.6053  0.7978
  181SLPC  H10Y20777   3.372   6.928   9.965 -3.8237  0.6523 -0.9325
  181SLPC  C31120778   3.529   7.054   9.866  0.2093 -0.1277  0.3499
  181SLPC  H11X20779   3.605   6.982   9.904 -0.2489  0.0849  1.6861
  181SLPC  H11Y20780   3.581   7.152   9.874 -0.2127  0.2176 -1.0439
  181SLPC  C31220781   3.518   7.011   9.719 -0.4978  0.3677 -0.4540
  181SLPC  H12X20782   3.454   6.921   9.722  0.1284 -0.0965 -0.8549
  181SLPC  H12Y20783   3.623   6.986   9.692 -0.6345  0.5884 -1.1986
  181SLPC  C31320784   3.460   7.114   9.629 -0.0150 -1.0087  0.5695
  181SLPC  H13X20785   3.522   7.205   9.644 -2.0283  0.2158  1.8358
  181SLPC  H13Y20786   3.355   7.132   9.662  0.0396  0.9383 -0.2351
  181SLPC  C31420787   3.461   7.084   9.484 -0.0956  0.1749 -0.5813
  181SLPC  H14X20788   3.391   7.000   9.461 -3.2723  1.6556  3.2244
  181SLPC  H14Y20789   3.561   7.061   9.441  0.3175 -0.2379  0.6073
  181SLPC  C31520790   3.402   7.199   9.401  0.3662  0.7781  0.0123
  181SLPC  H15X20791   3.474   7.283   9.407  1.6825 -0.2711 -0.6724
  181SLPC  H15Y20792   3.309   7.236   9.448 -0.5869 -0.4835 -0.8661
  181SLPC  C31620793   3.371   7.152   9.262 -0.9523  0.4356  0.0968
  181SLPC  H16X20794   3.301   7.067   9.251 -0.6125 -0.3481  3.4054
  181SLPC  H16Y20795   3.471   7.121   9.226 -0.6665  0.9728  0.4071
  181SLPC  C31720796   3.325   7.270   9.176 -0.2924 -0.1990  0.7179
  181SLPC  H17X20797   3.413   7.337   9.163 -1.5750  0.9170 -2.9541
  181SLPC  H17Y20798   3.247   7.328   9.229 -1.5008 -2.2888  1.2745
  181SLPC  C31820799   3.284   7.234   9.033  0.0049 -0.5817  0.3881
  181SLPC  H18X20800   3.366   7.180   8.981 -0.9831 -0.4901 -1.2714
  181SLPC  H18Y20801   3.249   7.326   8.980 -0.7490 -0.4555  1.0934
  181SLPC  H18Z20802   3.195   7.169   9.039 -1.9316  2.1322  2.3445
  182SLPC     N20803   1.259   0.975  11.077 -0.0082  0.0447  0.3122
  182SLPC   C1320804   1.371   0.880  11.067 -0.2111 -0.2953 -0.2881
  182SLPC  H13A20805   1.332   0.780  11.057  0.3784 -0.6537  0.7896
  182SLPC  H13B20806   1.432   0.901  10.980 -1.2120 -0.8735 -1.1304
  182SLPC  H13C20807   1.439   0.881  11.151  2.0895 -0.4271 -2.0990
  182SLPC   C1420808   1.310   1.120  11.059  0.4160  0.4523 -0.1812
  182SLPC  H14A20809   1.232   1.194  11.065 -0.4384 -0.5116  0.6484
  182SLPC  H14B20810   1.378   1.153  11.136  0.0240 -0.7946  0.7202
  182SLPC  H14C20811   1.351   1.138  10.961 -0.9089 -1.5700 -1.1378
  182SLPC   C1520812   1.205   0.963  11.219  0.2061  0.2774 -0.2456
  182SLPC  H15A20813   1.280   0.980  11.294  1.5699  1.5369 -1.8631
  182SLPC  H15B20814   1.125   1.032  11.241 -2.2822 -2.3088 -0.7982
  182SLPC  H15C20815   1.160   0.867  11.241  1.5198  0.2004  2.2418
  182SLPC   C1220816   1.151   0.927  10.980 -0.0696  0.3102  0.2043
  182SLPC  H12A20817   1.066   0.993  10.975 -0.5505 -0.4251 -2.5062
  182SLPC  H12B20818   1.109   0.833  11.011 -1.3283  1.5452  2.2754
  182SLPC   C1120819   1.191   0.922  10.830 -0.6516  0.5881 -0.1200
  182SLPC  H11A20820   1.230   1.024  10.811 -0.9207  1.1221  2.0230
  182SLPC  H11B20821   1.102   0.893  10.771  0.0871 -0.9035 -0.5381
  182SLPC     P20822   1.336   0.754  10.685  0.0737 -0.2873 -0.5233
  182SLPC   O1320823   1.484   0.773  10.669  0.2820 -0.1172 -0.1718
  182SLPC   O1420824   1.286   0.618  10.691  0.4727 -0.0385 -0.2725
  182SLPC   O1220825   1.290   0.825  10.810 -1.3449  0.1849  0.1580
  182SLPC   O1120826   1.260   0.838  10.579 -0.2735 -0.1717 -0.0935
  182SLPC    C120827   1.274   0.816  10.442  0.0356 -0.4460  0.2258
  182SLPC    HA20828   1.268   0.910  10.384  0.6640  0.1166  1.0746
  182SLPC    HB20829   1.376   0.778  10.418 -0.6861 -2.8153  0.7142
  182SLPC    C220830   1.163   0.728  10.389  0.2217  0.5416 -0.0594
  182SLPC    HS20831   1.182   0.626  10.429 -2.9682 -0.3255 -0.5756
  182SLPC   O2120832   1.165   0.708  10.248  0.1770  0.1288  0.1288
  182SLPC   C2120833   1.097   0.605  10.203 -0.6129 -0.0497 -0.1560
  182SLPC   O2220834   1.040   0.519  10.268  0.0461  0.2031  0.0596
  182SLPC   C2220835   1.093   0.623  10.049 -0.0446  0.3755 -0.3939
  182SLPC   H2R20836   1.064   0.724  10.014  1.4523  0.4899 -1.3989
  182SLPC   H2S20837   1.198   0.614  10.011 -0.0414 -1.4037 -0.0068
  182SLPC    C320838   1.026   0.774  10.448  0.3145  0.3643 -0.1898
  182SLPC    HX20839   1.024   0.757  10.558  1.8658 -1.3539 -0.4082
  182SLPC    HY20840   0.948   0.700  10.422  2.0750 -1.5775 -0.0366
  182SLPC   O3120841   0.985   0.906  10.410 -0.5901  0.2447 -0.1829
  182SLPC   C3120842   0.934   0.907  10.282 -0.0071  0.0591  0.0775
  182SLPC   O3220843   0.900   0.810  10.218  0.2386 -0.7321  0.0531
  182SLPC   C3220844   0.912   1.056  10.250  0.6189  0.4068  0.4026
  182SLPC   H2X20845   1.013   1.098  10.270  1.9351 -2.2528 -0.4194
  182SLPC   H2Y20846   0.838   1.094  10.324  1.0690  1.6666  0.2250
  182SLPC   C2320847   0.992   0.531   9.980 -0.0932 -0.3922 -0.4402
  182SLPC   H3R20848   0.890   0.544  10.023 -0.5537  0.1055 -1.6337
  182SLPC   H3S20849   1.034   0.428   9.982 -0.1670 -0.4793 -2.1658
  182SLPC   C2420850   0.973   0.585   9.831  0.2572 -0.0104 -0.2674
  182SLPC   H4R20851   0.920   0.682   9.816 -1.3728 -0.9563 -0.8359
  182SLPC   H4S20852   0.895   0.516   9.792 -0.1543  2.1846 -3.5435
  182SLPC   C2520853   1.109   0.579   9.749 -0.1204 -0.4783  0.0257
  182SLPC   H5R20854   1.157   0.479   9.756  1.2461  0.1640 -0.1134
  182SLPC   H5S20855   1.188   0.640   9.797 -0.7933  1.3259 -1.0837
  182SLPC   C2620856   1.100   0.631   9.607 -0.2128  0.3083 -0.6974
  182SLPC   H6R20857   1.072   0.738   9.613  0.5135  0.4554  0.3206
  182SLPC   H6S20858   1.013   0.578   9.563 -1.2314  2.3047 -1.1520
  182SLPC   C2720859   1.226   0.595   9.521  0.2148 -0.8583  0.2436
  182SLPC   H7R20860   1.241   0.485   9.526  4.4733 -0.4071 -0.3847
  182SLPC   H7S20861   1.312   0.634   9.579 -1.3835 -0.0751  2.1145
  182SLPC   C2820862   1.204   0.646   9.368  0.0495 -0.7585  0.5231
  182SLPC   H8R20863   1.304   0.673   9.328 -0.3568 -0.3967 -0.2444
  182SLPC   H8S20864   1.142   0.737   9.375 -0.9653 -1.2099 -2.2198
  182SLPC   C2920865   1.135   0.540   9.282  0.3156  0.5350  0.0672
  182SLPC   H9R20866   1.101   0.444   9.324 -1.2756  0.9374 -0.2763
  182SLPC  C21020867   1.121   0.561   9.150 -0.3714 -0.2492  0.1478
  182SLPC  H10R20868   1.093   0.478   9.084  1.0918 -0.2226 -0.5392
  182SLPC  C21120869   1.155   0.696   9.076  0.2711 -0.0816  0.0345
  182SLPC  H11R20870   1.164   0.779   9.149  0.3301  1.8063 -2.0511
  182SLPC  H11S20871   1.072   0.729   9.010  0.2589  0.5114  0.3499
  182SLPC  C21220872   1.274   0.689   8.987 -0.1709 -0.7141  0.0269
  182SLPC  H12R20873   1.363   0.728   9.039  0.6970 -1.0647 -1.1650
  182SLPC  C21320874   1.271   0.643   8.862  0.6316 -0.5373 -0.5037
  182SLPC  H13R20875   1.359   0.641   8.796 -0.0107  1.2247 -1.4555
  182SLPC  C21420876   1.150   0.588   8.796  0.3455 -0.1994  0.7786
  182SLPC  H14R20877   1.090   0.667   8.745  0.4975 -0.5844 -0.0044
  182SLPC  H14S20878   1.092   0.540   8.877 -0.7057  1.7281  1.2175
  182SLPC  C21520879   1.184   0.473   8.700  0.0044 -0.1596 -0.2827
  182SLPC  H15R20880   1.251   0.397   8.744 -1.2608 -1.3315 -0.3414
  182SLPC  H15S20881   1.240   0.520   8.616 -0.6310 -4.8559 -3.5374
  182SLPC  C21620882   1.066   0.392   8.638 -0.1542  0.1125 -0.5287
  182SLPC  H16R20883   1.020   0.466   8.569 -0.9666 -0.4933 -0.6388
  182SLPC  H16S20884   0.985   0.372   8.711 -1.0792  2.5446 -0.8308
  182SLPC  C21720885   1.106   0.253   8.575 -0.4046 -0.0778  0.5733
  182SLPC  H17R20886   1.014   0.192   8.560 -0.0228 -0.5365  0.0704
  182SLPC  H17S20887   1.175   0.192   8.637  1.0818 -0.1978 -1.1618
  182SLPC  C21820888   1.159   0.278   8.438  0.4769 -0.1535  0.3336
  182SLPC  H18R20889   1.267   0.300   8.448  0.3493  0.6347  0.0417
  182SLPC  H18S20890   1.111   0.371   8.401 -0.9890 -1.2376 -0.5799
  182SLPC  H18T20891   1.139   0.193   8.368 -3.2628  0.7817  0.1365
  182SLPC   C3320892   0.859   1.101  10.109 -0.3775 -0.6467 -0.4338
  182SLPC   H3X20893   0.841   1.210  10.125  1.1874 -0.5177  0.5204
  182SLPC   H3Y20894   0.765   1.046  10.087  1.0043 -2.1658 -2.7751
  182SLPC   C3420895   0.953   1.075   9.987  0.2373 -0.5356  0.3194
  182SLPC   H4X20896   1.012   0.982  10.001  0.2106 -0.4442  1.0351
  182SLPC   H4Y20897   1.025   1.159   9.988 -0.7933  0.3573  0.3108
  182SLPC   C3520898   0.887   1.085   9.849 -0.0644 -0.1785 -0.1159
  182SLPC   H5X20899   0.855   1.191   9.839  0.3624 -0.2894 -3.2898
  182SLPC   H5Y20900   0.800   1.017   9.846  0.1997 -0.6537  2.1181
  182SLPC   C3620901   0.975   1.041   9.727  0.5762  0.0670 -0.6539
  182SLPC   H6X20902   1.001   0.934   9.738 -0.9660 -0.0602  2.4009
  182SLPC   H6Y20903   1.069   1.099   9.738  0.3813  0.0708  1.2516
  182SLPC   C3720904   0.909   1.069   9.585 -0.1699 -0.0492  0.0981
  182SLPC   H7X20905   0.862   1.170   9.583 -0.3457 -0.0815  1.9994
  182SLPC   H7Y20906   0.826   0.995   9.582 -0.1540 -0.1151  1.2006
  182SLPC   C3820907   1.000   1.046   9.471 -0.0619  0.6318 -0.0779
  182SLPC   H8X20908   1.004   0.938   9.445  3.9158  0.2814  1.5622
  182SLPC   H8Y20909   1.105   1.065   9.501 -0.2995  0.4361  0.8989
  182SLPC   C3920910   0.955   1.122   9.342  0.1532 -0.3482  0.2340
  182SLPC   H9X20911   0.947   1.227   9.378 -2.2295 -1.2223  2.4165
  182SLPC   H9Y20912   0.854   1.087   9.313  0.7834 -0.8482 -1.3905
  182SLPC  C31020913   1.065   1.110   9.227  0.1265  0.4704 -0.8639
  182SLPC  H10X20914   1.079   1.008   9.188  0.7969 -0.0708  0.7512
  182SLPC  H10Y20915   1.157   1.130   9.286  0.0427  0.7430 -0.8238
  182SLPC  C31120916   1.057   1.215   9.111 -0.4877 -0.1369  0.2487
  182SLPC  H11X20917   1.083   1.315   9.152 -4.4481  1.0103  0.1759
  182SLPC  H11Y20918   0.953   1.216   9.073 -0.0301 -0.9968 -1.0760
  182SLPC  C31220919   1.163   1.189   8.999  0.1265  0.1200  0.5639
  182SLPC  H12X20920   1.268   1.182   9.032  0.2732 -1.2227 -0.1536
  182SLPC  H12Y20921   1.153   1.264   8.918  0.9796 -1.5677 -1.1407
  182SLPC  C31320922   1.134   1.052   8.917  0.0263 -0.1556  0.2527
  182SLPC  H13X20923   1.162   0.970   8.987  2.5145  0.9195  0.5744
  182SLPC  H13Y20924   1.203   1.035   8.832 -0.3746 -3.4238  0.5388
  182SLPC  C31420925   0.987   1.027   8.877 -0.0610  0.3746  0.3294
  182SLPC  H14X20926   0.913   1.040   8.959  0.0748  1.6389  0.2570
  182SLPC  H14Y20927   0.972   0.920   8.850 -0.0656  0.5194 -0.2519
  182SLPC  C31520928   0.943   1.105   8.749 -0.2818 -0.3210  0.2462
  182SLPC  H15X20929   1.013   1.098   8.663  1.4332 -1.9531  1.7284
  182SLPC  H15Y20930   0.937   1.210   8.785 -0.3421  0.0462 -0.8072
  182SLPC  C31620931   0.807   1.049   8.698  0.2111 -0.0134 -1.1783
  182SLPC  H16X20932   0.743   1.038   8.787  2.0734  0.5899  0.2699
  182SLPC  H16Y20933   0.833   0.947   8.663  1.7382 -0.3103  0.7463
  182SLPC  C31720934   0.737   1.135   8.593 -0.5429 -0.3704  0.6106
  182SLPC  H17X20935   0.652   1.072   8.559 -0.9045 -0.1814  1.1448
  182SLPC  H17Y20936   0.813   1.148   8.513 -1.7419 -1.7205 -0.7570
  182SLPC  C31820937   0.676   1.276   8.645  0.0656 -0.6611 -0.4126
  182SLPC  H18X20938   0.666   1.345   8.559  1.1306 -0.0829 -0.0872
  182SLPC  H18Y20939   0.746   1.319   8.720  0.5104  0.8842 -1.6826
  182SLPC  H18Z20940   0.577   1.257   8.692 -0.4992  2.1135 -0.4232
  183SLPC     N20941   2.584   2.031  11.053  0.2133 -0.3673 -0.4926
  183SLPC   C1320942   2.716   2.084  11.094 -0.7346  0.3709  0.4789
  183SLPC  H13A20943   2.747   2.061  11.194  0.4066 -1.0096 -0.1881
  183SLPC  H13B20944   2.784   2.042  11.022 -1.6212 -0.0595 -0.1214
  183SLPC  H13C20945   2.719   2.191  11.080  0.6676  0.3350  0.4572
  183SLPC   C1420946   2.486   2.105  11.141 -0.4024 -0.3616  0.4909
  183SLPC  H14A20947   2.384   2.073  11.123 -0.3748  0.3677 -1.0091
  183SLPC  H14B20948   2.513   2.089  11.244 -0.7817  0.3162  0.7001
  183SLPC  H14C20949   2.492   2.210  11.114 -0.1454 -0.0694  1.6714
  183SLPC   C1520950   2.586   1.887  11.078 -0.0696  0.5511  0.3968
  183SLPC  H15A20951   2.602   1.878  11.184  0.7085  0.1131  0.2508
  183SLPC  H15B20952   2.495   1.834  11.056  0.3357 -0.0100  0.0460
  183SLPC  H15C20953   2.665   1.843  11.018 -0.2996  0.6099  0.0503
  183SLPC   C1220954   2.549   2.052  10.903  0.1030 -0.7348  1.2748
  183SLPC  H12A20955   2.543   2.160  10.891 -1.6803 -1.1150 -1.8451
  183SLPC  H12B20956   2.448   2.017  10.887  0.2555 -0.5641 -0.1088
  183SLPC   C1120957   2.650   1.999  10.794 -0.9503 -0.7061 -0.4068
  183SLPC  H11A20958   2.604   1.993  10.693  1.5303 -0.6254 -1.5809
  183SLPC  H11B20959   2.681   1.894  10.810  2.3036 -0.0714 -2.2285
  183SLPC     P20960   2.903   2.013  10.745  0.1420  0.3681  0.0692
  183SLPC   O1320961   3.006   2.103  10.696 -0.9617 -0.1070 -0.2468
  183SLPC   O1420962   2.948   1.927  10.854 -0.1079 -0.0056  0.5004
  183SLPC   O1220963   2.766   2.086  10.787  0.2232 -0.0792  0.0365
  183SLPC   O1120964   2.850   1.928  10.623 -0.0929  0.1448 -0.4762
  183SLPC    C120965   2.839   1.992  10.491 -0.5861 -0.2463 -0.4070
  183SLPC    HA20966   2.753   2.063  10.496 -0.1517  0.2842 -0.4937
  183SLPC    HB20967   2.933   2.047  10.472 -0.8347 -0.0196 -0.9829
  183SLPC    C220968   2.797   1.900  10.381 -0.3184 -0.7855  0.2085
  183SLPC    HS20969   2.694   1.868  10.408  0.0108  0.1269  2.6489
  183SLPC   O2120970   2.882   1.781  10.365 -0.6981  0.1368  0.5069
  183SLPC   C2120971   2.821   1.668  10.314  0.0630 -0.8674  0.4859
  183SLPC   O2220972   2.700   1.659  10.294  0.4238  0.6890  0.4595
  183SLPC   C2220973   2.922   1.553  10.309 -0.5786  0.4210 -0.0035
  183SLPC   H2R20974   2.966   1.529  10.408 -0.3510 -1.0372 -0.4387
  183SLPC   H2S20975   2.869   1.463  10.271  2.1948 -3.3821  4.6271
  183SLPC    C320976   2.794   1.975  10.247  0.1844  0.1441  0.3338
  183SLPC    HX20977   2.754   2.076  10.272 -0.6579  0.5181 -2.3318
  183SLPC    HY20978   2.720   1.928  10.179 -3.6143  1.5254  3.3771
  183SLPC   O3120979   2.926   1.976  10.180 -0.2361 -0.0755 -0.4608
  183SLPC   C3120980   2.961   2.094  10.138 -0.4274  0.1372  0.2993
  183SLPC   O3220981   2.910   2.199  10.166 -0.3138 -0.1973 -0.1818
  183SLPC   C3220982   3.084   2.077  10.048  0.2239 -0.6884 -0.5624
  183SLPC   H2X20983   3.127   1.976  10.065  0.0798 -0.3722  1.7704
  183SLPC   H2Y20984   3.152   2.162  10.069 -1.6422  1.7299 -3.7825
  183SLPC   C2320985   3.048   1.581  10.229 -0.1259  0.0974  0.5699
  183SLPC   H3R20986   3.107   1.490  10.253  0.4007  0.9031  2.4298
  183SLPC   H3S20987   3.112   1.666  10.260  0.3905  0.5273 -1.5902
  183SLPC   C2420988   3.035   1.589  10.078  0.8150 -0.5086  0.4013
  183SLPC   H4R20989   3.140   1.579  10.042  2.0716 -3.3062  4.5295
  183SLPC   H4S20990   2.994   1.689  10.050  0.5682 -1.1254 -1.5191
  183SLPC   C2520991   2.966   1.471  10.011 -0.0513  0.5974  0.3519
  183SLPC   H5R20992   2.979   1.397  10.093 -0.4940 -0.4125 -0.4801
  183SLPC   H5S20993   3.021   1.432   9.923 -3.0109 -2.5164 -0.2133
  183SLPC   C2620994   2.823   1.480   9.962 -0.1676  0.4682 -0.3504
  183SLPC   H6R20995   2.753   1.507  10.044  0.5339 -0.5808  0.6001
  183SLPC   H6S20996   2.789   1.376   9.945  1.9130 -1.0578  4.0451
  183SLPC   C2720997   2.801   1.577   9.853 -0.7054 -0.4128  0.2693
  183SLPC   H7R20998   2.879   1.563   9.775 -0.0889 -3.4935  1.3819
  183SLPC   H7S20999   2.825   1.682   9.881  2.2889 -0.9755 -0.0380
  183SLPC   C2821000   2.659   1.555   9.783 -0.6400  0.2974 -0.3170
  183SLPC   H8R21001   2.651   1.633   9.704 -0.1569 -0.1841 -0.8548
  183SLPC   H8S21002   2.582   1.561   9.862  0.4541  0.1877  0.7699
  183SLPC   C2921003   2.659   1.424   9.708 -0.3247 -0.5270 -0.1984
  183SLPC   H9R21004   2.640   1.331   9.763 -1.7054  1.0091  1.9831
  183SLPC  C21021005   2.675   1.404   9.574 -0.6963  0.0403  0.2985
  183SLPC  H10R21006   2.668   1.306   9.524 -1.4158  0.3683 -0.2473
  183SLPC  C21121007   2.696   1.510   9.464 -0.2919  0.6639 -0.2261
  183SLPC  H11R21008   2.664   1.611   9.497 -0.2524  1.0075 -1.2199
  183SLPC  H11S21009   2.640   1.490   9.370  0.6179  0.8815 -0.8154
  183SLPC  C21221010   2.839   1.503   9.425  1.2234 -0.8957 -0.1682
  183SLPC  H12R21011   2.898   1.511   9.518 -0.7770 -1.9728  1.2213
  183SLPC  C21321012   2.903   1.501   9.306  0.2330 -0.1858  0.0186
  183SLPC  H13R21013   3.012   1.483   9.308  0.4505  0.8939 -1.5373
  183SLPC  C21421014   2.841   1.496   9.171 -0.7407  0.3196 -0.1431
  183SLPC  H14R21015   2.815   1.599   9.138 -3.1337 -0.3501 -0.4435
  183SLPC  H14S21016   2.741   1.450   9.179 -0.3946 -0.1503  1.8367
  183SLPC  C21521017   2.925   1.444   9.054 -0.5082 -0.5702  1.1183
  183SLPC  H15R21018   3.018   1.505   9.050 -0.4617 -0.7230 -0.7492
  183SLPC  H15S21019   2.870   1.458   8.959 -2.0620 -3.0470  1.6120
  183SLPC  C21621020   2.969   1.295   9.086  0.2933  0.2744  0.0735
  183SLPC  H16R21021   2.878   1.233   9.073  0.3077  0.2986 -0.1374
  183SLPC  H16S21022   2.996   1.295   9.194  0.1640  0.5998  0.1086
  183SLPC  C21721023   3.086   1.237   9.004  0.0758 -0.1449 -0.3938
  183SLPC  H17R21024   3.173   1.294   9.044 -2.2086  1.9373  1.8491
  183SLPC  H17S21025   3.072   1.250   8.895 -1.0622 -1.0036 -0.3558
  183SLPC  C21821026   3.107   1.085   9.021  0.3489  0.1579 -0.1047
  183SLPC  H18R21027   3.025   1.023   8.979 -1.6287  3.2378 -0.9875
  183SLPC  H18S21028   3.097   1.067   9.130 -2.9710 -1.2823 -0.5718
  183SLPC  H18T21029   3.198   1.046   8.970 -1.2400 -1.2063 -1.9846
  183SLPC   C3321030   3.057   2.087   9.894 -0.6406  0.2283 -0.0819
  183SLPC   H3X21031   3.154   2.109   9.846 -0.4671  0.6933  0.4802
  183SLPC   H3Y21032   2.985   2.168   9.868  0.4920  1.1685 -0.3303
  183SLPC   C3421033   3.000   1.954   9.828  0.5809  0.0974 -0.2333
  183SLPC   H4X21034   2.907   1.926   9.882  0.3204 -2.1354 -1.7444
  183SLPC   H4Y21035   3.074   1.871   9.835 -1.4768 -1.9254 -1.3608
  183SLPC   C3521036   2.940   1.967   9.683  0.8005 -0.3925  0.2635
  183SLPC   H5X21037   2.866   2.050   9.688 -0.1717 -1.1885 -0.5378
  183SLPC   H5Y21038   2.892   1.870   9.656 -0.0288  0.2251 -0.4727
  183SLPC   C3621039   3.059   1.998   9.588  0.5933  0.0914  0.1721
  183SLPC   H6X21040   3.134   1.922   9.617 -1.7067 -1.5051  2.2327
  183SLPC   H6Y21041   3.106   2.092   9.623 -1.9853  1.3776  0.3080
  183SLPC   C3721042   3.024   2.008   9.441 -0.6594 -0.6790  0.3327
  183SLPC   H7X21043   3.012   2.112   9.404 -1.2299 -0.7855  0.2142
  183SLPC   H7Y21044   2.926   1.963   9.415 -0.7073  0.6929 -1.9149
  183SLPC   C3821045   3.128   1.931   9.362 -0.0805 -0.2202  0.1215
  183SLPC   H8X21046   3.113   1.823   9.379  0.5604 -0.3762 -0.2869
  183SLPC   H8Y21047   3.228   1.966   9.395  1.3840 -0.6013 -3.6053
  183SLPC   C3921048   3.119   1.952   9.208 -0.4941  0.2745 -0.1081
  183SLPC   H9X21049   3.217   1.938   9.158 -0.6759 -2.5588  0.2716
  183SLPC   H9Y21050   3.081   2.057   9.202 -1.7493 -0.0770  1.2831
  183SLPC  C31021051   3.028   1.862   9.129  0.8755  1.0280 -0.6909
  183SLPC  H10X21052   2.924   1.862   9.170  0.6880  0.0706 -1.1392
  183SLPC  H10Y21053   3.078   1.763   9.124  0.1498  0.6734 -1.0056
  183SLPC  C31121054   3.023   1.898   8.977  0.4387 -0.0599 -0.1846
  183SLPC  H11X21055   3.124   1.892   8.931  2.0405 -2.0393  3.3607
  183SLPC  H11Y21056   2.986   2.003   8.974  1.5759  0.3094 -2.2631
  183SLPC  C31221057   2.938   1.798   8.904  0.2202  0.0552  0.1662
  183SLPC  H12X21058   2.835   1.801   8.944 -0.7091  1.8718 -2.2554
  183SLPC  H12Y21059   2.970   1.691   8.911  1.8150  0.3896 -1.6427
  183SLPC  C31321060   2.939   1.836   8.752 -0.6078  0.1997  0.2103
  183SLPC  H13X21061   3.045   1.821   8.724 -0.8100  0.2560 -0.5861
  183SLPC  H13Y21062   2.922   1.944   8.735  1.1765  0.9380  2.8770
  183SLPC  C31421063   2.837   1.755   8.680 -0.3222 -0.3228  0.1244
  183SLPC  H14X21064   2.738   1.784   8.720 -0.6732 -1.0468 -0.2150
  183SLPC  H14Y21065   2.869   1.651   8.703  0.6441  0.1375  0.8826
  183SLPC  C31521066   2.830   1.777   8.528  0.9889  0.0977  0.6312
  183SLPC  H15X21067   2.935   1.780   8.491  1.1225  1.2083  1.0909
  183SLPC  H15Y21068   2.780   1.873   8.500 -0.9131 -0.3441  2.3939
  183SLPC  C31621069   2.743   1.663   8.454 -0.4186 -0.0571 -0.5627
  183SLPC  H16X21070   2.635   1.662   8.476 -0.0345  0.3034  1.3822
  183SLPC  H16Y21071   2.768   1.559   8.483 -2.6238 -0.8855 -1.5302
  183SLPC  C31721072   2.759   1.665   8.303  0.0086 -0.2732  0.7590
  183SLPC  H17X21073   2.713   1.577   8.251  1.1766 -0.1465 -0.5146
  183SLPC  H17Y21074   2.865   1.676   8.274 -0.0281 -2.8906 -0.5068
  183SLPC  C31821075   2.684   1.781   8.235 -0.4478 -0.6657  0.6374
  183SLPC  H18X21076   2.711   1.875   8.288  0.8215 -0.1128 -0.9471
  183SLPC  H18Y21077   2.574   1.769   8.246 -0.4323  0.8163  2.6149
  183SLPC  H18Z21078   2.718   1.786   8.129 -1.1914 -0.2173  0.4132
  184SLPC     N21079   4.631   5.443  10.884  0.1674  0.0347  0.4718
  184SLPC   C1321080   4.540   5.561  10.913 -0.4536 -0.6460  0.0704
  184SLPC  H13A21081   4.502   5.608  10.824 -0.1340 -0.0875  0.2206
  184SLPC  H13B21082   4.452   5.528  10.966  0.3450 -2.3982  0.3277
  184SLPC  H13C21083   4.593   5.640  10.965 -2.2783 -0.4438  1.6788
  184SLPC   C1421084   4.559   5.342  10.799 -0.0203 -0.0914 -0.0878
  184SLPC  H14A21085   4.618   5.260  10.761  1.4195  0.8553  0.0366
  184SLPC  H14B21086   4.474   5.307  10.856  1.1107 -0.5066  1.3935
  184SLPC  H14C21087   4.518   5.390  10.712 -0.4450 -1.0907 -0.4391
  184SLPC   C1521088   4.671   5.382  11.017  0.5952 -0.4346  0.2681
  184SLPC  H15A21089   4.761   5.326  11.000 -0.1157 -1.8068  0.9515
  184SLPC  H15B21090   4.696   5.457  11.091 -1.2937 -0.3388  0.8337
  184SLPC  H15C21091   4.595   5.317  11.057  1.3618 -1.3862  0.1854
  184SLPC   C1221092   4.758   5.478  10.810 -0.2335 -0.2124 -0.2653
  184SLPC  H12A21093   4.729   5.526  10.717 -1.2664 -1.4537 -0.5918
  184SLPC  H12B21094   4.816   5.396  10.770 -0.7754 -0.2894 -0.8891
  184SLPC   C1121095   4.854   5.581  10.875  0.4020  0.2287 -0.1501
  184SLPC  H11A21096   4.906   5.523  10.954  2.4137  0.4110 -1.3208
  184SLPC  H11B21097   4.793   5.668  10.906  0.1757 -0.2855  0.8769
  184SLPC     P21098   4.910   5.719  10.658 -0.0648 -0.2790 -0.0794
  184SLPC   O1321099   4.767   5.730  10.629 -0.0933  0.0733  0.0495
  184SLPC   O1421100   4.981   5.844  10.704  0.2141 -0.0857  0.5365
  184SLPC   O1221101   4.940   5.605  10.762  0.8699  0.1116  0.8462
  184SLPC   O1121102   4.989   5.651  10.543 -0.7697 -0.1923  0.0248
  184SLPC    C121103   4.957   5.526  10.480 -0.1633 -0.1275  0.3946
  184SLPC    HA21104   5.042   5.457  10.493  0.0616 -0.5258 -2.8620
  184SLPC    HB21105   4.868   5.483  10.532  1.9372 -1.3905  3.0612
  184SLPC    C221106   4.948   5.542  10.328  0.8626  0.2295  0.2757
  184SLPC    HS21107   4.916   5.442  10.290 -0.8168  0.7599  0.2636
  184SLPC   O2121108   5.080   5.595  10.285  0.4713 -0.8847 -0.3308
  184SLPC   C2121109   5.169   5.514  10.276 -0.4636 -0.1193 -0.8014
  184SLPC   O2221110   5.162   5.391  10.285  0.4626 -0.3964 -0.4139
  184SLPC   C2221111   5.299   5.586  10.238  0.7199 -0.2337  0.4541
  184SLPC   H2R21112   5.273   5.693  10.252  0.8421 -0.0241 -0.8764
  184SLPC   H2S21113   5.378   5.550  10.306  0.3217 -1.5345  0.2394
  184SLPC    C321114   4.831   5.638  10.293  0.2736 -0.1536 -0.2870
  184SLPC    HX21115   4.854   5.726  10.356 -0.9876  0.4664 -0.6799
  184SLPC    HY21116   4.732   5.592  10.314 -0.5383  1.0702 -1.3829
  184SLPC   O3121117   4.844   5.680  10.153  0.3407 -0.0873  0.0732
  184SLPC   C3121118   4.786   5.805  10.136  0.3839 -0.3278 -0.3374
  184SLPC   O3221119   4.719   5.857  10.230 -0.1128  0.1752 -0.5078
  184SLPC   C3221120   4.784   5.847   9.994  0.3976 -0.1775  0.7143
  184SLPC   H2X21121   4.738   5.760   9.943 -1.1051  0.9418  0.1107
  184SLPC   H2Y21122   4.882   5.876   9.951 -0.3272 -0.9528 -1.5660
  184SLPC   C2321123   5.336   5.572  10.092 -0.4466 -0.4961 -0.3873
  184SLPC   H3R21124   5.244   5.590  10.032  0.4433 -2.0323 -2.2909
  184SLPC   H3S21125   5.346   5.462  10.074 -0.6684 -0.6735  0.5192
  184SLPC   C2421126   5.468   5.652  10.049  0.0585  0.1913  0.3501
  184SLPC   H4R21127   5.552   5.640  10.120 -1.3585  3.7332  2.7466
  184SLPC   H4S21128   5.451   5.761  10.048  1.1764  0.3662 -0.3228
  184SLPC   C2521129   5.519   5.603   9.908 -0.1376  0.4131 -0.1603
  184SLPC   H5R21130   5.429   5.605   9.843  1.2520 -1.7144 -2.2258
  184SLPC   H5S21131   5.556   5.498   9.909  0.0483  0.4764 -0.4556
  184SLPC   C2621132   5.630   5.696   9.853  0.2962  0.1067  0.5024
  184SLPC   H6R21133   5.707   5.706   9.933 -0.7328  0.8060  1.4260
  184SLPC   H6S21134   5.599   5.802   9.844  0.3745  0.0661 -0.2980
  184SLPC   C2721135   5.680   5.662   9.715 -0.3293  0.2714 -0.2830
  184SLPC   H7R21136   5.589   5.632   9.658 -1.1549  2.7699 -0.3424
  184SLPC   H7S21137   5.730   5.564   9.732  0.6918  0.3337 -2.8338
  184SLPC   C2821138   5.768   5.759   9.637  0.3549 -0.3180  0.5627
  184SLPC   H8R21139   5.854   5.792   9.697 -0.5093  0.1153  1.5681
  184SLPC   H8S21140   5.705   5.847   9.613  0.4426 -0.2102  0.7319
  184SLPC   C2921141   5.810   5.686   9.514  0.3739 -0.1500  0.3550
  184SLPC   H9R21142   5.903   5.627   9.517  0.2053 -0.4628 -0.4276
  184SLPC  C21021143   5.765   5.695   9.388 -0.1947  0.0358  0.5662
  184SLPC  H10R21144   5.811   5.643   9.303  0.3638  0.0590  0.8515
  184SLPC  C21121145   5.640   5.769   9.344 -0.3165 -0.0263 -0.2378
  184SLPC  H11R21146   5.580   5.797   9.433 -1.0562 -1.2083 -0.3495
  184SLPC  H11S21147   5.571   5.693   9.301 -2.3171  1.7094 -0.2072
  184SLPC  C21221148   5.665   5.866   9.234  0.1636 -0.4215  0.8402
  184SLPC  H12R21149   5.714   5.959   9.267 -1.9941  0.9424  0.2956
  184SLPC  C21321150   5.622   5.864   9.102 -0.7583 -0.1526 -0.4226
  184SLPC  H13R21151   5.651   5.953   9.045 -1.7959  1.8157  2.0071
  184SLPC  C21421152   5.547   5.755   9.031  0.3863  0.1094  0.2387
  184SLPC  H14R21153   5.576   5.654   9.067  3.0100  0.4445 -0.7861
  184SLPC  H14S21154   5.559   5.766   8.921  1.5890 -0.6692  0.2869
  184SLPC  C21521155   5.394   5.765   9.057 -0.4404 -0.8701 -0.3353
  184SLPC  H15R21156   5.357   5.866   9.030 -2.8237 -2.0011 -1.5420
  184SLPC  H15S21157   5.379   5.764   9.167  1.2499  0.0518 -0.0890
  184SLPC  C21621158   5.317   5.663   8.982  0.2911 -0.5832  0.0995
  184SLPC  H16R21159   5.341   5.568   9.034  0.8204  1.0692  2.9384
  184SLPC  H16S21160   5.348   5.647   8.876  1.4846 -0.5819  0.4328
  184SLPC  C21721161   5.163   5.677   8.985 -0.3941 -0.8835  0.0538
  184SLPC  H17R21162   5.132   5.703   9.088  0.9293  1.8035 -0.1955
  184SLPC  H17S21163   5.104   5.590   8.948 -1.2398 -1.0117  1.6729
  184SLPC  C21821164   5.123   5.810   8.913  0.1260  0.3343  0.0315
  184SLPC  H18R21165   5.162   5.900   8.965 -0.8093  0.8716 -0.1996
  184SLPC  H18S21166   5.013   5.816   8.928  0.2867  1.0706  0.9431
  184SLPC  H18T21167   5.142   5.811   8.804 -0.2037  2.1731 -0.0214
  184SLPC   C3321168   4.685   5.957   9.960 -0.8428  0.2455  0.7339
  184SLPC   H3X21169   4.741   6.045  10.000  0.3225 -0.3063  0.3053
  184SLPC   H3Y21170   4.586   5.950  10.011 -1.1666  0.9159  0.2214
  184SLPC   C3421171   4.655   5.988   9.813  0.6527  0.3217  0.2645
  184SLPC   H4X21172   4.748   5.993   9.752 -0.0294  1.2401 -0.7301
  184SLPC   H4Y21173   4.608   6.088   9.802  0.1850 -0.0383 -1.2032
  184SLPC   C3521174   4.556   5.890   9.735 -0.5892  0.1661  0.2955
  184SLPC   H5X21175   4.456   5.894   9.783 -1.2507 -1.6200 -0.9017
  184SLPC   H5Y21176   4.588   5.785   9.751 -2.3739 -0.2298  1.5071
  184SLPC   C3621177   4.552   5.942   9.588  0.7053  0.3351 -0.5323
  184SLPC   H6X21178   4.650   5.926   9.539 -0.0960 -2.0701 -1.4399
  184SLPC   H6Y21179   4.520   6.048   9.583 -0.4542 -0.0343 -1.2229
  184SLPC   C3721180   4.452   5.851   9.505  0.5808  0.0299 -0.0358
  184SLPC   H7X21181   4.358   5.870   9.560  0.1114  1.1324 -1.2017
  184SLPC   H7Y21182   4.479   5.744   9.522  1.0133  0.1668  0.1493
  184SLPC   C3821183   4.450   5.880   9.355  0.2339  0.0725 -0.5507
  184SLPC   H8X21184   4.554   5.857   9.321  1.6147 -0.8378  3.9223
  184SLPC   H8Y21185   4.417   5.983   9.333  1.9696  0.7265 -0.1808
  184SLPC   C3921186   4.370   5.777   9.275  0.0821  0.3909 -0.1372
  184SLPC   H9X21187   4.263   5.796   9.296 -0.3405 -2.4004  0.5350
  184SLPC   H9Y21188   4.396   5.679   9.321 -2.0727  1.5565  3.7689
  184SLPC  C31021189   4.379   5.773   9.118  0.5881 -0.5960 -0.4993
  184SLPC  H10X21190   4.484   5.764   9.084  0.6814 -0.3204 -0.2786
  184SLPC  H10Y21191   4.334   5.865   9.074 -0.1342  0.4425  2.3043
  184SLPC  C31121192   4.298   5.656   9.042  0.2500  0.8436  0.5344
  184SLPC  H11X21193   4.192   5.675   9.068 -0.4689 -0.5105 -1.2824
  184SLPC  H11Y21194   4.331   5.564   9.094 -2.3891 -0.5113 -0.0890
  184SLPC  C31221195   4.315   5.652   8.892 -0.4308  0.2237 -1.1608
  184SLPC  H12X21196   4.230   5.597   8.846 -0.9489 -0.0006  0.0436
  184SLPC  H12Y21197   4.411   5.607   8.858  1.2260  0.8055  2.5553
  184SLPC  C31321198   4.298   5.796   8.830 -0.9791 -0.0249 -0.0780
  184SLPC  H13X21199   4.388   5.861   8.832 -0.1320 -1.1273 -1.7567
  184SLPC  H13Y21200   4.219   5.842   8.893  0.4534  0.8047  1.1356
  184SLPC  C31421201   4.251   5.785   8.685 -0.7433  0.1783 -0.5841
  184SLPC  H14X21202   4.232   5.888   8.646  0.3921  0.5514 -0.1646
  184SLPC  H14Y21203   4.152   5.736   8.668 -0.4684 -1.0958  1.2913
  184SLPC  C31521204   4.350   5.701   8.596 -0.5198 -0.2984 -0.1748
  184SLPC  H15X21205   4.325   5.705   8.488 -2.2145 -0.5414  0.1864
  184SLPC  H15Y21206   4.332   5.595   8.621 -1.2578 -0.2394 -0.4521
  184SLPC  C31621207   4.501   5.738   8.600 -0.5702 -0.4206  1.0844
  184SLPC  H16X21208   4.544   5.675   8.519  0.9693  2.5108 -0.4588
  184SLPC  H16Y21209   4.546   5.723   8.701 -0.1048  0.5661  1.0356
  184SLPC  C31721210   4.524   5.886   8.548  0.8877  0.1224  0.4476
  184SLPC  H17X21211   4.473   5.956   8.618  3.3239  0.1541  2.2382
  184SLPC  H17Y21212   4.477   5.898   8.448 -0.3785 -0.9542  0.8968
  184SLPC  C31821213   4.669   5.933   8.552  0.1076 -0.4054  0.1840
  184SLPC  H18X21214   4.722   5.870   8.627  0.0686  1.8860  2.2013
  184SLPC  H18Y21215   4.694   6.038   8.577 -1.0932 -0.4255  1.5500
  184SLPC  H18Z21216   4.716   5.919   8.452  0.4749  1.7699  0.0327
  185SLPC     N21217   3.283   1.740   6.499 -0.3900  0.1605  0.7712
  185SLPC   C1321218   3.281   1.717   6.643  0.1672 -0.0620 -0.3027
  185SLPC  H13A21219   3.293   1.610   6.656  0.1868 -0.1663 -1.1621
  185SLPC  H13B21220   3.353   1.778   6.696  1.6191 -0.5903 -1.6530
  185SLPC  H13C21221   3.180   1.723   6.683  0.1577 -1.1009 -0.1511
  185SLPC   C1421222   3.195   1.856   6.458 -0.4118  0.0833 -0.2378
  185SLPC  H14A21223   3.099   1.842   6.506 -0.5435 -1.1100 -0.8260
  185SLPC  H14B21224   3.251   1.945   6.480 -0.9141  0.9595 -2.4086
  185SLPC  H14C21225   3.161   1.839   6.357  1.3373  1.9617 -1.1720
  185SLPC   C1521226   3.239   1.615   6.425 -0.2448  0.6310 -0.1315
  185SLPC  H15A21227   3.144   1.582   6.464  1.9717 -0.6246  4.4857
  185SLPC  H15B21228   3.249   1.629   6.318 -0.0577  1.5530  0.0042
  185SLPC  H15C21229   3.307   1.537   6.457  0.9529  0.8300 -2.1042
  185SLPC   C1221230   3.423   1.767   6.458  0.3356 -0.2972  0.3331
  185SLPC  H12A21231   3.427   1.795   6.354  0.7238 -0.7917  0.2091
  185SLPC  H12B21232   3.482   1.677   6.468 -0.1432 -0.4214  2.2516
  185SLPC   C1121233   3.513   1.881   6.520 -0.0186  0.2441 -0.4192
  185SLPC  H11A21234   3.617   1.881   6.480  0.5517 -0.7480  1.0110
  185SLPC  H11B21235   3.528   1.858   6.628  0.8540 -0.0524 -0.5985
  185SLPC     P21236   3.450   2.089   6.376 -0.3764  0.3168 -0.0736
  185SLPC   O1321237   3.495   1.997   6.270 -0.4594 -0.4760  0.0086
  185SLPC   O1421238   3.316   2.141   6.361  0.3584  0.0554  0.1825
  185SLPC   O1221239   3.456   2.012   6.512 -0.2453  0.0747 -0.2933
  185SLPC   O1121240   3.549   2.199   6.396  0.0509 -0.4068  0.0820
  185SLPC    C121241   3.652   2.201   6.496  0.1529  0.2165 -0.3789
  185SLPC    HA21242   3.702   2.102   6.501 -0.5292 -0.1075 -0.0591
  185SLPC    HB21243   3.722   2.278   6.454 -0.0439  2.6551  3.5090
  185SLPC    C221244   3.605   2.271   6.628  0.2130  0.1587  0.6942
  185SLPC    HS21245   3.696   2.294   6.688 -0.4845  1.1285  1.3951
  185SLPC   O2121246   3.514   2.198   6.706  0.1048 -0.1845  0.0377
  185SLPC   C2121247   3.561   2.094   6.780  0.0224  0.2968 -0.2879
  185SLPC   O2221248   3.672   2.044   6.771 -0.5576 -0.2938 -0.0254
  185SLPC   C2221249   3.445   2.046   6.871 -0.7020 -0.1330  0.5875
  185SLPC   H2R21250   3.392   2.138   6.904 -1.0566 -0.6895  1.5706
  185SLPC   H2S21251   3.380   1.976   6.815  0.2365 -0.9957  0.5553
  185SLPC    C321252   3.537   2.405   6.592 -0.0438  0.0540  0.6935
  185SLPC    HX21253   3.430   2.385   6.567  0.0064  0.8191 -0.1421
  185SLPC    HY21254   3.570   2.447   6.495 -3.6982  1.8187  0.1254
  185SLPC   O3121255   3.541   2.497   6.703  0.1378  0.6553  0.1164
  185SLPC   C3121256   3.633   2.588   6.708 -0.1412  0.0751 -0.3030
  185SLPC   O3221257   3.725   2.595   6.633 -0.2296 -0.7806  0.4951
  185SLPC   C3221258   3.598   2.681   6.828  0.0236  0.1674 -0.0076
  185SLPC   H2X21259   3.528   2.631   6.898 -4.0169  2.4285 -2.2145
  185SLPC   H2Y21260   3.542   2.770   6.792  0.1011 -0.0035 -0.5713
  185SLPC   C2321261   3.504   1.977   6.991  0.2548 -0.7093  0.7383
  185SLPC   H3R21262   3.587   2.038   7.031 -0.5536  1.4119 -0.7539
  185SLPC   H3S21263   3.544   1.876   6.966  0.3416 -0.4028 -0.3675
  185SLPC   C2421264   3.399   1.970   7.102 -0.1484 -0.3685 -0.8084
  185SLPC   H4R21265   3.347   1.872   7.103 -0.7355 -0.0700 -1.1964
  185SLPC   H4S21266   3.325   2.053   7.098  0.3344  0.1579  0.8339
  185SLPC   C2521267   3.462   1.970   7.244 -0.3080 -0.3000 -0.2533
  185SLPC   H5R21268   3.523   2.060   7.266 -0.3232 -0.4401  0.3570
  185SLPC   H5S21269   3.518   1.874   7.241 -2.5222 -1.6307 -0.7669
  185SLPC   C2621270   3.350   1.963   7.341  0.6013 -0.0587 -0.7394
  185SLPC   H6R21271   3.271   1.888   7.318  0.3041 -0.8518  2.6094
  185SLPC   H6S21272   3.308   2.066   7.340  2.7518  0.8548  0.2788
  185SLPC   C2721273   3.399   1.933   7.490 -0.4456 -0.0857 -0.0344
  185SLPC   H7R21274   3.468   1.845   7.495  0.9650  1.0593  1.0120
  185SLPC   H7S21275   3.321   1.898   7.560 -0.9322  1.1622  0.0473
  185SLPC   C2821276   3.488   2.049   7.547  0.0900  0.9901  0.0569
  185SLPC   H8R21277   3.583   2.058   7.490  0.7516  1.3413  1.1872
  185SLPC   H8S21278   3.511   2.019   7.652 -0.6720 -0.6718 -0.2317
  185SLPC   C2921279   3.416   2.180   7.552  0.1866  0.2805  0.3086
  185SLPC   H9R21280   3.407   2.224   7.451 -0.8949  0.7255  0.5888
  185SLPC  C21021281   3.375   2.246   7.661  0.4796  0.7685  0.1918
  185SLPC  H10R21282   3.323   2.341   7.646 -0.4349  0.2195 -0.1187
  185SLPC  C21121283   3.387   2.206   7.803 -0.3962 -0.1750  0.2016
  185SLPC  H11R21284   3.378   2.095   7.801  0.5778 -0.2306 -2.5179
  185SLPC  H11S21285   3.297   2.248   7.851 -0.3329  1.5459 -1.1403
  185SLPC  C21221286   3.503   2.253   7.889 -0.8006 -0.1799  0.3624
  185SLPC  H12R21287   3.548   2.349   7.859 -0.8320 -0.4890 -0.6866
  185SLPC  C21321288   3.578   2.179   7.976 -0.0145 -0.6241 -0.1354
  185SLPC  H13R21289   3.650   2.229   8.042  0.2339  0.0546 -0.9174
  185SLPC  C21421290   3.555   2.035   8.012 -0.3651  0.5120 -0.3157
  185SLPC  H14R21291   3.626   1.975   7.951  2.1973 -0.4766  3.4129
  185SLPC  H14S21292   3.457   1.987   7.994  0.5020 -1.9530  1.1431
  185SLPC  C21521293   3.590   2.020   8.162 -0.2456  0.1195  0.5388
  185SLPC  H15R21294   3.551   1.923   8.202 -2.4823  1.0249  0.6036
  185SLPC  H15S21295   3.538   2.100   8.219  1.2834  1.7247 -0.2750
  185SLPC  C21621296   3.742   2.030   8.193 -0.2634  1.1181  0.1290
  185SLPC  H16R21297   3.768   2.136   8.211 -1.1267  1.0200  2.1292
  185SLPC  H16S21298   3.803   1.993   8.108 -0.8815 -0.0130  0.1597
  185SLPC  C21721299   3.784   1.954   8.324  0.5954 -0.1860 -0.3421
  185SLPC  H17R21300   3.888   1.989   8.343  0.8307  0.4976 -2.6894
  185SLPC  H17S21301   3.789   1.843   8.314 -0.8867 -0.3088  0.1466
  185SLPC  C21821302   3.700   1.984   8.448  0.5944  0.3599  0.2302
  185SLPC  H18R21303   3.729   1.931   8.541  0.8467 -1.3981 -0.8335
  185SLPC  H18S21304   3.595   1.952   8.430  0.1796  1.4189  0.7615
  185SLPC  H18T21305   3.695   2.092   8.473 -0.2234  0.0929  1.2698
  185SLPC   C3321306   3.730   2.720   6.911 -0.3383 -0.1249 -0.1068
  185SLPC   H3X21307   3.788   2.793   6.850 -0.5361  1.6584  1.7717
  185SLPC   H3Y21308   3.788   2.627   6.931 -1.8723 -1.2541 -0.8474
  185SLPC   C3421309   3.705   2.779   7.048 -0.0380 -0.0369 -0.0084
  185SLPC   H4X21310   3.637   2.706   7.098  1.1348 -2.6887 -2.1502
  185SLPC   H4Y21311   3.668   2.884   7.049  0.4460  0.1507  2.7606
  185SLPC   C3521312   3.833   2.780   7.128 -0.3436 -0.6951 -0.4151
  185SLPC   H5X21313   3.900   2.859   7.089 -0.8418 -0.1583 -0.1850
  185SLPC   H5Y21314   3.897   2.689   7.120  0.6628 -0.0440  0.2044
  185SLPC   C3621315   3.797   2.790   7.279  0.0959  0.2685 -0.0334
  185SLPC   H6X21316   3.764   2.688   7.309  0.5189  0.0402 -0.3420
  185SLPC   H6Y21317   3.701   2.845   7.289 -0.6077 -0.7071 -1.3239
  185SLPC   C3721318   3.912   2.829   7.367 -0.5314  0.0454  1.2593
  185SLPC   H7X21319   3.933   2.935   7.341  1.1398 -0.3291  1.0188
  185SLPC   H7Y21320   4.006   2.771   7.353 -0.2828  0.6413  0.4563
  185SLPC   C3821321   3.863   2.820   7.518  0.3774  0.2336 -0.3650
  185SLPC   H8X21322   3.853   2.712   7.543  0.8580 -0.1922 -1.9309
  185SLPC   H8Y21323   3.762   2.860   7.542 -0.1215 -1.5113  0.5218
  185SLPC   C3921324   3.971   2.897   7.610  0.1944  0.9986 -0.1394
  185SLPC   H9X21325   3.992   2.987   7.547  4.4479 -0.0387 -0.3795
  185SLPC   H9Y21326   4.064   2.837   7.610 -1.5787 -1.8380 -0.3613
  185SLPC  C31021327   3.908   2.925   7.749  0.2466  0.7618 -0.2574
  185SLPC  H10X21328   3.806   2.968   7.733  0.1649  1.1486  1.2911
  185SLPC  H10Y21329   3.974   2.993   7.806  0.1303  0.3090  0.4279
  185SLPC  C31121330   3.883   2.797   7.829 -0.0226 -0.1027 -0.8286
  185SLPC  H11X21331   3.821   2.733   7.764 -0.6853  0.9126 -1.1971
  185SLPC  H11Y21332   3.822   2.827   7.917  0.0108  1.1033 -1.2205
  185SLPC  C31221333   4.014   2.721   7.879  0.2815 -1.0068  0.5817
  185SLPC  H12X21334   4.075   2.799   7.930  0.1015  0.0902 -0.8468
  185SLPC  H12Y21335   4.072   2.693   7.789 -1.3650  0.5983 -1.0093
  185SLPC  C31321336   3.997   2.596   7.958 -0.9938 -0.5511  0.2181
  185SLPC  H13X21337   4.093   2.540   7.957 -0.1606  0.8656 -1.1586
  185SLPC  H13Y21338   3.931   2.532   7.895  0.5926 -1.5935 -0.4222
  185SLPC  C31421339   3.929   2.620   8.095  0.1151  0.4379  0.3725
  185SLPC  H14X21340   3.842   2.687   8.078  0.7332  1.2433  0.3516
  185SLPC  H14Y21341   4.004   2.672   8.158  0.8624 -1.2539  0.9014
  185SLPC  C31521342   3.890   2.498   8.177 -0.5370 -0.4999 -0.3565
  185SLPC  H15X21343   3.983   2.439   8.188 -0.7794 -0.5603  1.4414
  185SLPC  H15Y21344   3.815   2.431   8.130 -0.9473  0.1970 -0.7064
  185SLPC  C31621345   3.844   2.542   8.318 -0.2436  0.9431  0.1892
  185SLPC  H16X21346   3.754   2.608   8.316 -1.1820 -0.3388 -1.0833
  185SLPC  H16Y21347   3.924   2.607   8.360  1.2987 -0.9615  0.2801
  185SLPC  C31721348   3.818   2.427   8.411 -0.5814  0.7154 -0.0891
  185SLPC  H17X21349   3.749   2.349   8.373 -0.4753 -0.5017  2.1490
  185SLPC  H17Y21350   3.766   2.482   8.493 -1.0238 -1.8567  1.3873
  185SLPC  C31821351   3.945   2.351   8.451  0.4454  1.1501  0.3974
  185SLPC  H18X21352   3.944   2.252   8.503  3.3010  1.0798  0.4373
  185SLPC  H18Y21353   4.011   2.420   8.508  1.6065 -1.3344  2.2120
  185SLPC  H18Z21354   3.993   2.329   8.353 -1.9559 -1.6111 -0.2138
  186SLPC     N21355   4.421   4.287   5.835  0.4514  0.3541 -0.6897
  186SLPC   C1321356   4.502   4.202   5.745 -0.4339 -0.2191  0.0441
  186SLPC  H13A21357   4.577   4.263   5.697 -1.7169  1.1472 -0.2662
  186SLPC  H13B21358   4.554   4.129   5.806 -0.0528  1.6163  1.9960
  186SLPC  H13C21359   4.441   4.155   5.669  1.7140 -0.2349 -1.7091
  186SLPC   C1421360   4.411   4.420   5.774 -0.8555 -0.3445  0.4421
  186SLPC  H14A21361   4.369   4.494   5.840 -0.9873  0.1678 -0.2086
  186SLPC  H14B21362   4.510   4.452   5.745 -1.6987  3.2991  1.3347
  186SLPC  H14C21363   4.345   4.434   5.689  0.7537  2.6602 -0.3857
  186SLPC   C1521364   4.496   4.304   5.965 -0.9662 -0.2805  0.7995
  186SLPC  H15A21365   4.509   4.206   6.009  0.7072 -0.3779  0.1021
  186SLPC  H15B21366   4.590   4.355   5.954 -1.4264  0.5257  0.5571
  186SLPC  H15C21367   4.448   4.372   6.035  1.3738  0.7886  1.4146
  186SLPC   C1221368   4.296   4.227   5.866 -0.5282 -0.2040 -0.7034
  186SLPC  H12A21369   4.304   4.131   5.916 -1.6862 -0.1930 -0.4720
  186SLPC  H12B21370   4.259   4.197   5.769 -0.1763  0.3035 -0.9949
  186SLPC   C1121371   4.196   4.325   5.931  0.5967  0.1113  0.0182
  186SLPC  H11A21372   4.099   4.272   5.948 -0.8335  2.3367 -0.9447
  186SLPC  H11B21373   4.165   4.410   5.866 -2.0119 -0.3262  0.6474
  186SLPC     P21374   4.177   4.487   6.122  0.1419 -0.3372  0.0947
  186SLPC   O1321375   4.211   4.610   6.053  0.0865 -0.5344  0.3229
  186SLPC   O1421376   4.034   4.458   6.136  0.1120  0.2630 -0.7879
  186SLPC   O1221377   4.244   4.368   6.059  0.0525  0.0320  0.1656
  186SLPC   O1121378   4.230   4.496   6.272  0.1690 -0.7343  0.0179
  186SLPC    C121379   4.314   4.399   6.320  0.2396 -0.7107  0.2162
  186SLPC    HA21380   4.299   4.294   6.287  1.6942 -1.5234  2.0960
  186SLPC    HB21381   4.419   4.424   6.296  0.3263 -0.2065  1.0926
  186SLPC    C221382   4.303   4.400   6.476 -0.4174  0.3170 -0.1378
  186SLPC    HS21383   4.382   4.341   6.527 -1.2329 -0.5829  0.0958
  186SLPC   O2121384   4.166   4.365   6.513  0.3042 -0.2033  0.4777
  186SLPC   C2121385   4.148   4.236   6.507  0.0103 -0.1333  0.4837
  186SLPC   O2221386   4.234   4.149   6.492  0.0510 -0.3515  0.2505
  186SLPC   C2221387   4.002   4.197   6.528 -0.4207  0.0258  0.0266
  186SLPC   H2R21388   3.935   4.283   6.509 -0.6008 -0.1180  0.0084
  186SLPC   H2S21389   3.971   4.119   6.455 -2.4860  0.0312  0.8664
  186SLPC    C321390   4.321   4.534   6.541 -0.0395  0.0552  0.2545
  186SLPC    HX21391   4.239   4.597   6.501  1.5855  2.1026  0.0586
  186SLPC    HY21392   4.420   4.565   6.502  0.4754  2.4279  3.2626
  186SLPC   O3121393   4.319   4.526   6.684  0.6536  0.2225 -0.1476
  186SLPC   C3121394   4.214   4.578   6.749  0.4583  0.1800  0.1853
  186SLPC   O3221395   4.112   4.624   6.696  0.4834  0.4881  0.0026
  186SLPC   C3221396   4.239   4.568   6.901 -0.0808  0.5535 -0.0019
  186SLPC   H2X21397   4.347   4.585   6.919  0.8350 -2.1011 -2.6624
  186SLPC   H2Y21398   4.225   4.459   6.918  2.4973  0.1415 -0.2830
  186SLPC   C2321399   3.980   4.132   6.673 -0.1055  0.0831 -0.0456
  186SLPC   H3R21400   4.046   4.043   6.680  0.5166  0.3939 -1.6529
  186SLPC   H3S21401   3.871   4.108   6.669  0.2983 -2.0161  0.7470
  186SLPC   C2421402   4.008   4.228   6.790 -0.2823  0.6181 -0.0481
  186SLPC   H4R21403   3.948   4.320   6.776 -1.3281  0.2127  1.6367
  186SLPC   H4S21404   4.117   4.249   6.791 -0.3102  0.7180  1.1567
  186SLPC   C2521405   3.985   4.175   6.931  0.3447  0.2416 -0.2553
  186SLPC   H5R21406   4.024   4.071   6.939  1.8114  0.8575  0.7788
  186SLPC   H5S21407   3.875   4.184   6.948  0.4538 -1.6150  1.6613
  186SLPC   C2621408   4.063   4.256   7.040  0.2638 -0.4257  0.7231
  186SLPC   H6R21409   4.057   4.363   7.010  0.6836 -0.3046  1.0681
  186SLPC   H6S21410   4.170   4.227   7.044  0.1213 -1.2553 -0.9489
  186SLPC   C2721411   4.019   4.237   7.188 -0.7296  0.2361 -0.3808
  186SLPC   H7R21412   3.910   4.241   7.206 -0.5753  1.4042  0.3998
  186SLPC   H7S21413   4.061   4.317   7.253  0.6864 -2.9453  2.7889
  186SLPC   C2821414   4.080   4.101   7.238 -0.0100 -0.0927  0.2965
  186SLPC   H8R21415   4.086   4.033   7.150 -1.0823  1.2255 -0.8289
  186SLPC   H8S21416   3.996   4.056   7.294 -0.7372  0.0404 -0.6805
  186SLPC   C2921417   4.202   4.107   7.322 -0.4129 -0.4301 -0.4397
  186SLPC   H9R21418   4.287   4.043   7.292 -1.6213 -1.5996 -1.4528
  186SLPC  C21021419   4.197   4.154   7.449  0.5330  0.0505 -0.1887
  186SLPC  H10R21420   4.289   4.168   7.507  1.2766  0.6591 -1.4990
  186SLPC  C21121421   4.073   4.212   7.520  0.1219 -0.1450 -0.4427
  186SLPC  H11R21422   3.987   4.201   7.451 -0.3364 -2.9905  0.4901
  186SLPC  H11S21423   4.093   4.321   7.521 -1.1950  0.1103 -0.9844
  186SLPC  C21221424   4.061   4.149   7.658  0.3356 -0.2834  0.6136
  186SLPC  H12R21425   3.973   4.082   7.665  0.0563  0.2293  1.9662
  186SLPC  C21321426   4.132   4.177   7.759  0.2197 -0.1918  0.1479
  186SLPC  H13R21427   4.108   4.135   7.858  0.2833  0.1680  0.3143
  186SLPC  C21421428   4.248   4.269   7.765 -1.2602 -0.5044 -0.3305
  186SLPC  H14R21429   4.257   4.343   7.682 -2.5111 -1.4644 -1.3485
  186SLPC  H14S21430   4.338   4.208   7.746 -1.2415 -1.1974  1.8271
  186SLPC  C21521431   4.281   4.343   7.898  0.0427 -0.0594 -0.4000
  186SLPC  H15R21432   4.377   4.397   7.886  1.0789 -1.6919  0.3208
  186SLPC  H15S21433   4.303   4.271   7.980  1.7779  0.6181 -0.2640
  186SLPC  C21621434   4.163   4.435   7.938 -0.2608  0.1133 -0.2656
  186SLPC  H16R21435   4.066   4.383   7.925 -0.5673  0.3554  0.9326
  186SLPC  H16S21436   4.166   4.522   7.870  1.2738  0.4886  0.2619
  186SLPC  C21721437   4.161   4.486   8.084 -0.0251  0.2901  0.5883
  186SLPC  H17R21438   4.068   4.547   8.084  0.4936  1.0821  1.2133
  186SLPC  H17S21439   4.251   4.550   8.100  1.2668 -1.1365 -0.8511
  186SLPC  C21821440   4.152   4.382   8.201 -0.7256  0.0851  0.0182
  186SLPC  H18R21441   4.076   4.306   8.173 -0.0509 -1.0685  1.2195
  186SLPC  H18S21442   4.122   4.433   8.295  1.2954  0.1411  0.6593
  186SLPC  H18T21443   4.248   4.326   8.213 -0.4058  1.0006  1.9848
  186SLPC   C3321444   4.154   4.658   6.989  0.1077  0.3971 -0.3829
  186SLPC   H3X21445   4.048   4.627   6.982 -0.1436  0.3086  3.0784
  186SLPC   H3Y21446   4.167   4.765   6.959  0.6134  0.0036 -1.6241
  186SLPC   C3421447   4.197   4.639   7.133 -0.6685 -0.9002  0.1048
  186SLPC   H4X21448   4.307   4.654   7.130 -0.9141  0.7750 -2.6234
  186SLPC   H4Y21449   4.175   4.534   7.159 -1.2118 -0.6409  0.7141
  186SLPC   C3521450   4.146   4.738   7.236 -0.4908  0.3353  0.1801
  186SLPC   H5X21451   4.038   4.745   7.259 -0.0275  2.5169  1.8075
  186SLPC   H5Y21452   4.174   4.838   7.197  0.1347  0.3276  0.6006
  186SLPC   C3621453   4.205   4.716   7.382 -0.1578 -0.6379  0.1502
  186SLPC   H6X21454   4.311   4.749   7.386 -0.5204  0.3947  1.6303
  186SLPC   H6Y21455   4.180   4.615   7.422 -1.3606  0.6127  2.7347
  186SLPC   C3721456   4.130   4.811   7.475  0.0587 -0.1515  0.0712
  186SLPC   H7X21457   4.020   4.803   7.458  0.0818  4.1332 -2.7214
  186SLPC   H7Y21458   4.154   4.919   7.472 -1.1131  0.2436  3.4790
  186SLPC   C3821459   4.155   4.778   7.623 -0.0478  0.4226  0.4984
  186SLPC   H8X21460   4.258   4.809   7.648 -0.2025  3.2800 -2.1135
  186SLPC   H8Y21461   4.137   4.671   7.648 -0.7083  0.6728  1.1185
  186SLPC   C3921462   4.056   4.855   7.714 -0.5037  0.3188  0.2918
  186SLPC   H9X21463   3.952   4.861   7.677 -0.4413  1.5584  0.2860
  186SLPC   H9Y21464   4.098   4.958   7.709  0.5881 -0.1112  0.3348
  186SLPC  C31021465   4.057   4.805   7.864 -0.1981 -0.4756 -0.1820
  186SLPC  H10X21466   4.163   4.786   7.892  0.0613  0.3891 -0.5913
  186SLPC  H10Y21467   4.008   4.705   7.859  0.4170 -0.6440 -3.4872
  186SLPC  C31121468   3.980   4.889   7.962 -0.5913 -0.8264 -0.2182
  186SLPC  H11X21469   3.872   4.868   7.949 -0.2464 -2.6444 -0.2166
  186SLPC  H11Y21470   3.992   4.998   7.944 -2.8133 -0.7951 -1.7509
  186SLPC  C31221471   4.028   4.856   8.106 -0.0264 -0.0763 -0.1440
  186SLPC  H12X21472   4.137   4.837   8.097  0.7055  0.8122  5.2866
  186SLPC  H12Y21473   3.984   4.756   8.127  0.1674 -0.2149 -0.3934
  186SLPC  C31321474   3.993   4.964   8.207  0.5572  0.6500  0.5428
  186SLPC  H13X21475   3.885   4.969   8.232  0.2971 -0.3033 -0.3373
  186SLPC  H13Y21476   4.026   5.061   8.165 -1.1359  0.2003 -1.9262
  186SLPC  C31421477   4.064   4.938   8.348  0.1068  0.0587 -1.0920
  186SLPC  H14X21478   4.072   5.031   8.408  1.4966 -0.3079 -0.7003
  186SLPC  H14Y21479   4.168   4.900   8.343  0.5501  0.9280  0.9574
  186SLPC  C31521480   3.986   4.830   8.424  0.3863  0.1622 -0.1347
  186SLPC  H15X21481   3.995   4.734   8.369  1.0146 -0.3730  0.9149
  186SLPC  H15Y21482   3.879   4.858   8.438  0.8325  1.6107  0.4977
  186SLPC  C31621483   4.031   4.821   8.571 -0.1482 -0.3704 -0.5308
  186SLPC  H16X21484   3.960   4.759   8.629  0.6662 -2.1380 -1.4002
  186SLPC  H16Y21485   4.034   4.921   8.620 -1.3859  0.2562 -1.7086
  186SLPC  C31721486   4.160   4.750   8.581  0.5320 -0.5058  0.1823
  186SLPC  H17X21487   4.189   4.742   8.689 -0.4677 -0.6844  0.4433
  186SLPC  H17Y21488   4.240   4.805   8.528 -0.5743  1.0444  0.1144
  186SLPC  C31821489   4.156   4.598   8.547 -0.4998  0.3216  0.6384
  186SLPC  H18X21490   4.138   4.595   8.437 -2.6959  0.9971  0.9442
  186SLPC  H18Y21491   4.084   4.542   8.610  1.1164 -0.8653  1.4540
  186SLPC  H18Z21492   4.253   4.556   8.580 -0.4640  0.0291  0.1540
  187SLPC     N21493   4.739   1.463   6.178  0.5905 -0.0312 -0.5971
  187SLPC   C1321494   4.870   1.443   6.110 -0.3784 -0.3729  0.1053
  187SLPC  H13A21495   4.866   1.394   6.014 -1.0073 -0.0670 -0.0226
  187SLPC  H13B21496   4.923   1.536   6.096  0.2654 -0.3780  2.2925
  187SLPC  H13C21497   4.940   1.395   6.178 -0.2415 -1.2302 -0.6288
  187SLPC   C1421498   4.657   1.343   6.175 -0.0636 -0.0262 -0.4416
  187SLPC  H14A21499   4.556   1.363   6.208 -0.1891 -0.2078 -0.7161
  187SLPC  H14B21500   4.658   1.303   6.075  2.5173 -1.0976 -0.0435
  187SLPC  H14C21501   4.702   1.271   6.242 -0.9044  0.4087  0.5983
  187SLPC   C1521502   4.663   1.569   6.115  0.3388 -0.3952  0.2054
  187SLPC  H15A21503   4.721   1.657   6.091  3.4777 -2.4285  0.0262
  187SLPC  H15B21504   4.621   1.538   6.021  0.4347  2.4897 -0.8348
  187SLPC  H15C21505   4.584   1.612   6.174  1.6900 -0.9451  2.4941
  187SLPC   C1221506   4.777   1.502   6.319 -0.0416  0.4729 -0.1214
  187SLPC  H12A21507   4.821   1.600   6.312 -0.5670  0.7761  0.7643
  187SLPC  H12B21508   4.856   1.436   6.353 -1.2844 -0.4432  1.0743
  187SLPC   C1121509   4.667   1.509   6.424 -0.6876  0.1564 -0.0815
  187SLPC  H11A21510   4.573   1.541   6.374 -2.0257 -1.9134  1.0455
  187SLPC  H11B21511   4.679   1.589   6.500 -0.2299  0.3251 -0.3291
  187SLPC     P21512   4.742   1.278   6.536  0.2353 -0.0943 -0.1030
  187SLPC   O1321513   4.669   1.154   6.565 -0.7451  0.4517 -0.3136
  187SLPC   O1421514   4.861   1.272   6.449  0.0361  0.3745 -0.1983
  187SLPC   O1221515   4.633   1.380   6.473  0.2119 -0.1562 -0.2653
  187SLPC   O1121516   4.778   1.355   6.672  0.0959  0.3355  0.4435
  187SLPC    C121517   4.671   1.404   6.754 -0.0496  0.3437  0.2805
  187SLPC    HA21518   4.712   1.478   6.826  0.4971  0.4642 -0.1544
  187SLPC    HB21519   4.614   1.471   6.686  1.0974 -0.7141 -1.7642
  187SLPC    C221520   4.584   1.313   6.838  0.0158  0.7735 -0.0739
  187SLPC    HS21521   4.541   1.229   6.779 -2.0963  0.3955  1.9145
  187SLPC   O2121522   4.475   1.397   6.892  0.6043 -0.4448  0.5380
  187SLPC   C2121523   4.380   1.332   6.957 -0.2776  0.2842  0.3768
  187SLPC   O2221524   4.354   1.212   6.960 -0.0587  0.2284  0.4638
  187SLPC   C2221525   4.290   1.429   7.034 -0.2473 -0.2919 -0.7407
  187SLPC   H2R21526   4.321   1.530   7.000  0.9200 -1.2636 -2.6429
  187SLPC   H2S21527   4.185   1.404   7.011 -0.5432  0.0586  0.1756
  187SLPC    C321528   4.676   1.257   6.957 -0.7074  0.5691  0.8785
  187SLPC    HX21529   4.702   1.355   7.004 -0.0160 -0.3845  2.5083
  187SLPC    HY21530   4.777   1.226   6.922 -1.5311  0.1316 -1.1287
  187SLPC   O3121531   4.621   1.170   7.054  0.1048 -0.2867 -0.4321
  187SLPC   C3121532   4.595   1.053   7.011  0.0953  0.2546  0.5357
  187SLPC   O3221533   4.633   1.008   6.901  0.0557 -0.8522 -0.1973
  187SLPC   C3221534   4.525   0.986   7.125  0.5840 -0.1405  0.0610
  187SLPC   H2X21535   4.448   0.914   7.089 -0.1094  2.5382 -4.2495
  187SLPC   H2Y21536   4.456   1.058   7.174  1.4282  1.3753 -0.9051
  187SLPC   C2321537   4.318   1.410   7.193  0.2019 -0.5666  0.1703
  187SLPC   H3R21538   4.424   1.436   7.213  0.6696 -2.5547  0.4144
  187SLPC   H3S21539   4.331   1.305   7.229  0.1237 -0.7954 -0.4534
  187SLPC   C2421540   4.222   1.489   7.283 -0.8305  0.9509  0.3341
  187SLPC   H4R21541   4.120   1.452   7.258 -0.2037 -1.1563  0.7700
  187SLPC   H4S21542   4.223   1.599   7.268 -0.7750  1.0065  0.7441
  187SLPC   C2521543   4.247   1.459   7.429  0.1143 -0.3440  0.3442
  187SLPC   H5R21544   4.340   1.503   7.471  1.3188 -1.1800 -1.3516
  187SLPC   H5S21545   4.255   1.349   7.442  0.7032 -0.5880 -1.7675
  187SLPC   C2621546   4.140   1.528   7.516  0.0441  0.7075 -0.3677
  187SLPC   H6R21547   4.041   1.490   7.483 -0.5499  1.3277  0.6505
  187SLPC   H6S21548   4.146   1.638   7.500  0.1578  1.0875  2.0561
  187SLPC   C2721549   4.167   1.506   7.663 -0.0543 -0.0938  0.4266
  187SLPC   H7R21550   4.271   1.525   7.695 -0.1943 -0.1116  0.9061
  187SLPC   H7S21551   4.149   1.399   7.688  1.6180 -1.2188 -2.9339
  187SLPC   C2821552   4.058   1.576   7.753 -0.3739 -0.1109  0.0427
  187SLPC   H8R21553   3.959   1.540   7.716 -0.5887  0.9044 -0.3992
  187SLPC   H8S21554   4.065   1.679   7.712  1.2764 -0.8820 -1.6552
  187SLPC   C2921555   4.067   1.571   7.902  0.2660 -0.2235  0.0975
  187SLPC   H9R21556   4.103   1.473   7.938  0.5104 -0.7403 -1.5205
  187SLPC  C21021557   4.002   1.660   7.980 -0.3395  0.1797  0.5365
  187SLPC  H10R21558   4.009   1.653   8.089 -0.8990 -1.0079  0.5044
  187SLPC  C21121559   3.923   1.778   7.931 -0.0451  0.6372 -0.2793
  187SLPC  H11R21560   3.975   1.849   7.863  0.7695  0.1711 -0.1591
  187SLPC  H11S21561   3.912   1.840   8.023  1.5195  2.1495 -1.0658
  187SLPC  C21221562   3.793   1.740   7.876  0.6005  0.3985 -0.7339
  187SLPC  H12R21563   3.734   1.686   7.952 -0.7782  0.4576 -1.7443
  187SLPC  C21321564   3.736   1.765   7.762 -0.2710  0.2631 -0.7049
  187SLPC  H13R21565   3.632   1.733   7.745 -0.1850 -0.0894 -0.5599
  187SLPC  C21421566   3.802   1.850   7.655  0.3038 -0.5937  1.1196
  187SLPC  H14R21567   3.891   1.903   7.695  0.1512  0.7757 -0.2856
  187SLPC  H14S21568   3.729   1.929   7.627  0.0101 -0.5393  2.0501
  187SLPC  C21521569   3.828   1.760   7.531 -0.1868 -0.5979  0.2266
  187SLPC  H15R21570   3.757   1.677   7.509 -0.6421 -0.3005  0.5698
  187SLPC  H15S21571   3.927   1.711   7.537  0.9131  1.2854 -1.6504
  187SLPC  C21621572   3.830   1.838   7.395 -0.3126 -0.0710  0.0060
  187SLPC  H16R21573   3.879   1.937   7.409 -3.5685  1.6615 -0.3823
  187SLPC  H16S21574   3.729   1.863   7.357 -0.1426  1.1865  0.3584
  187SLPC  C21721575   3.887   1.751   7.285  0.4845 -0.5635 -0.0765
  187SLPC  H17R21576   3.834   1.653   7.287 -0.8796  0.1784  0.1368
  187SLPC  H17S21577   3.993   1.731   7.312  0.0655  0.4117  2.4572
  187SLPC  C21821578   3.873   1.808   7.149  0.8799 -0.1671 -0.3307
  187SLPC  H18R21579   3.921   1.907   7.133  2.0124 -0.6198  0.1891
  187SLPC  H18S21580   3.767   1.833   7.128  0.3270  0.5408  3.1028
  187SLPC  H18T21581   3.916   1.744   7.069 -0.0889  0.5341 -1.4344
  187SLPC   C3321582   4.636   0.941   7.222 -0.3357  0.4268 -0.5570
  187SLPC   H3X21583   4.573   0.897   7.302  1.8391 -1.1013  0.3573
  187SLPC   H3Y21584   4.690   1.030   7.263  1.8507 -0.1892 -2.0439
  187SLPC   C3421585   4.723   0.828   7.178  0.4328  0.3699 -0.2157
  187SLPC   H4X21586   4.803   0.855   7.105  1.2810 -0.3099  0.4494
  187SLPC   H4Y21587   4.663   0.749   7.127 -0.9781  0.3985  1.3551
  187SLPC   C3521588   4.799   0.769   7.301 -0.1349  1.5049 -0.1617
  187SLPC   H5X21589   4.733   0.731   7.383  1.8396 -0.0800  0.7127
  187SLPC   H5Y21590   4.846   0.862   7.340  0.7862  0.2154  1.9250
  187SLPC   C3621591   4.907   0.661   7.268 -0.1102  0.1058  0.4950
  187SLPC   H6X21592   4.958   0.697   7.176  0.1344 -1.8196 -0.1462
  187SLPC   H6Y21593   4.862   0.567   7.232 -0.2778  0.8704 -1.3536
  187SLPC   C3721594   5.004   0.625   7.384  0.9768  0.0150 -0.7177
  187SLPC   H7X21595   5.068   0.542   7.346  0.9370 -0.4467  0.2035
  187SLPC   H7Y21596   5.072   0.712   7.395 -0.1776  0.5454  2.8098
  187SLPC   C3821597   4.940   0.573   7.510 -0.4018  0.5968 -0.1812
  187SLPC   H8X21598   4.894   0.475   7.485  0.6368  0.2959 -0.9658
  187SLPC   H8Y21599   4.864   0.649   7.536  1.6339  2.4111  0.6359
  187SLPC   C3921600   5.040   0.543   7.623  0.5973  0.0374  1.0092
  187SLPC   H9X21601   5.111   0.628   7.630  0.8328 -0.1286  0.6373
  187SLPC   H9Y21602   5.103   0.464   7.579  1.5818  0.8325  0.9815
  187SLPC  C31021603   4.969   0.527   7.756  0.8011  0.3120 -0.5080
  187SLPC  H10X21604   4.885   0.454   7.747 -0.6377  2.1474 -2.3800
  187SLPC  H10Y21605   4.913   0.620   7.778  0.6641  0.4209 -1.2924
  187SLPC  C31121606   5.060   0.494   7.873 -0.1969  0.1762 -0.3426
  187SLPC  H11X21607   5.145   0.566   7.875 -1.4136  1.6329 -0.7352
  187SLPC  H11Y21608   5.092   0.388   7.860 -4.1703 -1.0340 -0.9764
  187SLPC  C31221609   4.995   0.497   8.013  0.9188 -0.2018 -0.2722
  187SLPC  H12X21610   4.945   0.595   8.026 -0.4835 -0.8719 -0.5060
  187SLPC  H12Y21611   5.073   0.471   8.087 -0.1217 -4.4176 -0.5619
  187SLPC  C31321612   4.883   0.397   8.038  0.6260 -0.5608 -0.1987
  187SLPC  H13X21613   4.935   0.300   8.021  0.8859 -0.6124  0.8553
  187SLPC  H13Y21614   4.804   0.418   7.963  1.0684  0.5056 -0.3727
  187SLPC  C31421615   4.819   0.389   8.175 -0.1360 -0.1089 -1.0008
  187SLPC  H14X21616   4.804   0.494   8.207  1.3189  0.5089 -2.2794
  187SLPC  H14Y21617   4.894   0.355   8.250  1.7847 -0.9846 -3.2431
  187SLPC  C31521618   4.686   0.309   8.178 -0.6552 -0.1325  0.0226
  187SLPC  H15X21619   4.697   0.204   8.143  0.2465 -1.3870  3.8573
  187SLPC  H15Y21620   4.612   0.369   8.121  0.1182  0.8336  0.0160
  187SLPC  C31621621   4.641   0.300   8.325  0.0431  0.1390 -0.1480
  187SLPC  H16X21622   4.731   0.278   8.386 -0.7207 -0.9803  0.5853
  187SLPC  H16Y21623   4.576   0.211   8.336  2.0776 -1.5699 -1.7357
  187SLPC  C31721624   4.565   0.422   8.365  0.4627 -0.1311 -0.1676
  187SLPC  H17X21625   4.479   0.437   8.296  0.3666  1.1381  0.2296
  187SLPC  H17Y21626   4.624   0.513   8.343  1.6716 -0.5548  1.2884
  187SLPC  C31821627   4.528   0.431   8.512  0.2527  0.1730  0.4264
  187SLPC  H18X21628   4.451   0.508   8.532 -1.2115 -0.2627 -3.0920
  187SLPC  H18Y21629   4.617   0.450   8.575 -1.0034  0.0624  2.2754
  187SLPC  H18Z21630   4.488   0.328   8.525 -2.3436  0.6240 -3.1584
  188SLPC     N21631   5.889   2.843   6.263  0.2851 -0.5903 -0.0571
  188SLPC   C1321632   5.852   2.961   6.356  0.0963 -0.4028 -0.0981
  188SLPC  H13A21633   5.922   3.042   6.341 -1.0757  0.4829 -0.9371
  188SLPC  H13B21634   5.752   2.996   6.334 -0.5081 -3.1897 -2.0176
  188SLPC  H13C21635   5.865   2.942   6.462  0.5729 -0.7967 -0.2279
  188SLPC   C1421636   5.911   2.906   6.130  0.2298  0.9211 -0.1041
  188SLPC  H14A21637   5.816   2.946   6.099 -0.2676  0.0645  0.2834
  188SLPC  H14B21638   5.987   2.982   6.128  1.6189 -0.3385  2.3107
  188SLPC  H14C21639   5.941   2.838   6.051  0.9176  0.7434  0.3117
  188SLPC   C1521640   5.774   2.745   6.246 -0.0353 -0.4308 -0.4165
  188SLPC  H15A21641   5.692   2.800   6.202  0.4632  2.0421  1.6062
  188SLPC  H15B21642   5.805   2.673   6.172  0.9742 -0.6631  0.2261
  188SLPC  H15C21643   5.743   2.697   6.337 -0.9181  0.7780 -0.0638
  188SLPC   C1221644   6.013   2.773   6.297 -0.2087 -0.4663  0.0987
  188SLPC  H12A21645   6.094   2.844   6.287  0.1770 -0.9518 -0.1817
  188SLPC  H12B21646   6.025   2.696   6.223  1.8565 -1.0529  1.0136
  188SLPC   C1121647   6.018   2.703   6.432 -0.4653  0.2682 -0.1450
  188SLPC  H11A21648   5.967   2.758   6.514 -0.4093  0.8696 -0.5103
  188SLPC  H11B21649   6.124   2.682   6.458 -0.1866 -0.1802 -1.6004
  188SLPC     P21650   5.985   2.462   6.514  0.1963  0.2703 -0.1570
  188SLPC   O1321651   5.874   2.361   6.515 -0.9226 -0.1290 -0.4465
  188SLPC   O1421652   6.119   2.414   6.479 -0.3164 -0.4605  0.5014
  188SLPC   O1221653   5.943   2.580   6.411  0.0365 -0.1854 -0.5319
  188SLPC   O1121654   6.001   2.536   6.657  0.3971  0.4031  0.0000
  188SLPC    C121655   5.892   2.544   6.750  0.3269  0.3948  0.1180
  188SLPC    HA21656   5.826   2.456   6.732  1.0480  0.0010 -0.6601
  188SLPC    HB21657   5.919   2.550   6.857 -1.5164 -1.6037  0.7391
  188SLPC    C221658   5.806   2.672   6.720  0.4536  0.6408 -0.6631
  188SLPC    HS21659   5.801   2.676   6.609 -1.9426 -0.3218 -0.6149
  188SLPC   O2121660   5.881   2.782   6.775  0.3061  0.3814 -0.0747
  188SLPC   C2121661   5.851   2.905   6.740  0.5509  0.5199 -0.0315
  188SLPC   O2221662   5.777   2.933   6.643  0.1792  0.8022 -0.0234
  188SLPC   C2221663   5.902   3.019   6.833  0.2810  0.0792 -0.4172
  188SLPC   H2R21664   6.012   3.017   6.817  0.1664 -1.1964 -1.1102
  188SLPC   H2S21665   5.859   3.114   6.795  1.2270  0.4038 -0.7089
  188SLPC    C321666   5.660   2.659   6.760  0.5249  0.3678  0.8243
  188SLPC    HX21667   5.620   2.570   6.707 -0.1963  0.6518  0.9003
  188SLPC    HY21668   5.618   2.757   6.727  0.0987  0.4067  1.4712
  188SLPC   O3121669   5.656   2.644   6.907  0.1200  0.4424  0.2763
  188SLPC   C3121670   5.535   2.644   6.962  0.3005 -0.6549  0.3980
  188SLPC   O3221671   5.427   2.630   6.901 -0.3501  0.3476 -0.3475
  188SLPC   C3221672   5.549   2.650   7.113 -0.7464  0.2907  0.6334
  188SLPC   H2X21673   5.455   2.605   7.152 -0.5131 -0.0842  0.7620
  188SLPC   H2Y21674   5.549   2.756   7.147  0.9406  1.2533 -2.2520
  188SLPC   C2321675   5.844   2.989   6.972  0.6317  0.1888  0.3415
  188SLPC   H3R21676   5.887   2.905   7.029 -0.7348 -0.2839  0.6998
  188SLPC   H3S21677   5.739   2.957   6.957  0.6975  0.5690 -1.0811
  188SLPC   C2421678   5.849   3.114   7.056 -0.4559  0.4966  0.1207
  188SLPC   H4R21679   5.777   3.194   7.025 -0.6242  0.1146 -0.4680
  188SLPC   H4S21680   5.946   3.159   7.028  0.9901 -2.5896  0.0193
  188SLPC   C2521681   5.830   3.096   7.201 -0.4432  0.1989  0.4793
  188SLPC   H5R21682   5.926   3.053   7.237 -0.1188  0.6679  0.1673
  188SLPC   H5S21683   5.753   3.018   7.222 -0.9303  0.1918 -1.2429
  188SLPC   C2621684   5.791   3.220   7.287  0.2667  0.0366 -0.8116
  188SLPC   H6R21685   5.689   3.254   7.258  0.9147  1.4960 -1.4315
  188SLPC   H6S21686   5.860   3.304   7.263 -0.3445  0.3322 -1.5558
  188SLPC   C2721687   5.792   3.197   7.442  0.2686 -0.7155  0.2176
  188SLPC   H7R21688   5.877   3.130   7.468 -0.3766 -1.7006 -0.1831
  188SLPC   H7S21689   5.693   3.147   7.449 -0.3191  0.2436 -0.9426
  188SLPC   C2821690   5.790   3.330   7.534 -0.0323 -0.5080  0.3495
  188SLPC   H8R21691   5.706   3.397   7.502  2.1923  2.3456  0.2868
  188SLPC   H8S21692   5.883   3.386   7.512  0.3215 -1.4741 -0.6147
  188SLPC   C2921693   5.783   3.293   7.676 -0.1322  1.0789  1.1585
  188SLPC   H9R21694   5.689   3.247   7.710  0.2641  0.0681  0.8811
  188SLPC  C21021695   5.893   3.286   7.754 -0.5401 -0.5953 -0.3423
  188SLPC  H10R21696   5.884   3.254   7.859  1.5726 -0.9959 -0.2498
  188SLPC  C21121697   6.032   3.326   7.726 -0.6172 -0.4490 -0.2940
  188SLPC  H11R21698   6.048   3.372   7.626 -1.3135  2.0298  0.7008
  188SLPC  H11S21699   6.102   3.240   7.725 -3.0634 -2.4880 -1.1300
  188SLPC  C21221700   6.090   3.428   7.824 -0.0721  0.0575 -0.0483
  188SLPC  H12R21701   6.023   3.495   7.880  0.4280 -0.5507  1.3052
  188SLPC  C21321702   6.216   3.443   7.857  0.4447 -0.9966  0.0084
  188SLPC  H13R21703   6.236   3.506   7.946  0.9225 -1.6773  0.3862
  188SLPC  C21421704   6.335   3.368   7.817  1.0044 -0.0806  0.1289
  188SLPC  H14R21705   6.300   3.266   7.791 -1.7445  1.0716 -0.8658
  188SLPC  H14S21706   6.403   3.352   7.903 -1.0050 -0.1785  1.7361
  188SLPC  C21521707   6.421   3.426   7.699  0.2528  0.3843 -0.0536
  188SLPC  H15R21708   6.511   3.361   7.708 -0.4228 -0.0498  6.4911
  188SLPC  H15S21709   6.448   3.534   7.704  0.3178  0.3639  0.0588
  188SLPC  C21621710   6.359   3.393   7.569  0.3439 -0.5195 -0.4550
  188SLPC  H16R21711   6.260   3.442   7.559  0.7766  0.6525  0.8424
  188SLPC  H16S21712   6.335   3.286   7.552 -2.3091 -0.3270  1.8654
  188SLPC  C21721713   6.457   3.443   7.459 -0.0353 -0.7971 -0.5642
  188SLPC  H17R21714   6.551   3.384   7.471  1.2195  0.8652 -1.9396
  188SLPC  H17S21715   6.489   3.547   7.477 -0.7821 -1.0568  2.4036
  188SLPC  C21821716   6.393   3.422   7.321  0.3038 -0.6797 -0.2370
  188SLPC  H18R21717   6.343   3.324   7.333  0.1627 -0.5757  0.0204
  188SLPC  H18S21718   6.469   3.415   7.240 -1.9970 -0.5797 -2.4400
  188SLPC  H18T21719   6.313   3.495   7.299 -0.4731 -1.3105  0.4760
  188SLPC   C3321720   5.678   2.588   7.170  0.8553  0.2747  0.5567
  188SLPC   H3X21721   5.761   2.645   7.124  0.0567  0.7969 -0.2457
  188SLPC   H3Y21722   5.687   2.481   7.142 -0.8624  0.3550 -0.3534
  188SLPC   C3421723   5.689   2.605   7.321  0.4252  0.2667  0.2623
  188SLPC   H4X21724   5.773   2.534   7.335 -0.3792 -0.8214 -0.2752
  188SLPC   H4Y21725   5.600   2.560   7.370 -0.1389 -0.0652 -1.0385
  188SLPC   C3521726   5.714   2.746   7.362  0.5871 -1.0745 -0.0900
  188SLPC   H5X21727   5.623   2.808   7.349  0.3131 -0.7537  2.9773
  188SLPC   H5Y21728   5.794   2.781   7.293 -2.4535  0.7577 -2.8094
  188SLPC   C3621729   5.771   2.756   7.509  1.2936  0.8922 -1.0374
  188SLPC   H6X21730   5.848   2.833   7.532  1.5318  0.6351 -0.9713
  188SLPC   H6Y21731   5.816   2.655   7.525  0.2564  0.5375 -0.2849
  188SLPC   C3721732   5.661   2.776   7.619 -0.1392 -1.0007  0.8487
  188SLPC   H7X21733   5.592   2.691   7.600 -0.1657 -0.4485 -1.8503
  188SLPC   H7Y21734   5.620   2.878   7.604  0.9258 -0.8174 -1.0120
  188SLPC   C3821735   5.721   2.774   7.758 -0.6850  0.1828 -0.4958
  188SLPC   H8X21736   5.788   2.685   7.763 -2.1223 -0.9788 -1.6047
  188SLPC   H8Y21737   5.635   2.777   7.828 -0.0162 -1.3339  0.4240
  188SLPC   C3921738   5.798   2.896   7.798  0.2296 -0.2816 -0.3614
  188SLPC   H9X21739   5.790   2.981   7.727  2.9874 -0.1681 -0.6119
  188SLPC   H9Y21740   5.906   2.871   7.791 -0.3351 -2.4553 -1.7476
  188SLPC  C31021741   5.764   2.949   7.939 -0.1727 -0.5268 -0.0769
  188SLPC  H10X21742   5.653   2.954   7.944 -0.1806  0.4013 -1.0718
  188SLPC  H10Y21743   5.794   3.054   7.955 -2.8965  0.0404  1.6970
  188SLPC  C31121744   5.812   2.858   8.053 -0.9583 -0.1735 -0.3423
  188SLPC  H11X21745   5.912   2.819   8.024 -1.5546 -1.0617 -1.2663
  188SLPC  H11Y21746   5.742   2.772   8.048 -1.7197  0.4383 -0.3886
  188SLPC  C31221747   5.816   2.913   8.196  1.0827  0.2612  0.0884
  188SLPC  H12X21748   5.882   3.002   8.211  0.7390  0.6820 -0.8572
  188SLPC  H12Y21749   5.847   2.834   8.268  0.7039  0.2962  0.2963
  188SLPC  C31321750   5.671   2.963   8.240  0.5932 -0.1727 -0.0432
  188SLPC  H13X21751   5.594   2.888   8.213  0.6645 -1.3520  2.8268
  188SLPC  H13Y21752   5.650   3.047   8.171  1.4275 -0.5656 -0.7958
  188SLPC  C31421753   5.657   3.014   8.379  0.2517 -0.6807 -0.0195
  188SLPC  H14X21754   5.652   2.927   8.448  4.4982 -0.0502  1.2092
  188SLPC  H14Y21755   5.561   3.069   8.391  1.4683  2.0041 -1.9463
  188SLPC  C31521756   5.764   3.118   8.423  0.6989  0.2801  0.0344
  188SLPC  H15X21757   5.775   3.185   8.336 -1.1622  0.7125  0.1147
  188SLPC  H15Y21758   5.857   3.059   8.440  0.8723  0.5629  0.0753
  188SLPC  C31621759   5.731   3.196   8.550 -0.4408 -0.4669  0.3806
  188SLPC  H16X21760   5.822   3.243   8.593 -0.4788 -0.4396  0.4331
  188SLPC  H16Y21761   5.695   3.137   8.637 -0.0859 -0.4124  0.5674
  188SLPC  C31721762   5.607   3.295   8.530 -1.1076 -0.2488  0.3363
  188SLPC  H17X21763   5.522   3.226   8.515 -1.1743 -0.2042  0.5110
  188SLPC  H17Y21764   5.626   3.351   8.436  0.6310  0.1502  0.9090
  188SLPC  C31821765   5.589   3.387   8.650  0.4876 -0.0968  0.0346
  188SLPC  H18X21766   5.584   3.336   8.748  1.4090  2.0031  1.2139
  188SLPC  H18Y21767   5.501   3.454   8.638 -0.8119 -1.5989  1.0734
  188SLPC  H18Z21768   5.676   3.456   8.646  0.0479  0.4059 -1.2549
  189SLPC     N21769   0.622   4.787   6.342  0.2634  0.6774  0.3676
  189SLPC   C1321770   0.614   4.933   6.314 -0.4585  0.5825  0.1653
  189SLPC  H13A21771   0.714   4.961   6.286 -0.9058  3.7646  1.5072
  189SLPC  H13B21772   0.546   4.959   6.234 -0.3413  0.0980 -0.0881
  189SLPC  H13C21773   0.588   4.983   6.406 -1.7129  0.2180  0.0232
  189SLPC   C1421774   0.649   4.712   6.215 -0.1272  0.1324  0.5146
  189SLPC  H14A21775   0.566   4.733   6.150  0.3780 -1.1231 -0.5646
  189SLPC  H14B21776   0.747   4.733   6.173 -0.9253 -0.1021 -1.4963
  189SLPC  H14C21777   0.652   4.606   6.235  0.3575  0.2675  1.1929
  189SLPC   C1521778   0.486   4.755   6.400  0.0345 -0.0825 -0.0902
  189SLPC  H15A21779   0.473   4.649   6.416 -1.5899  0.4356  2.1531
  189SLPC  H15B21780   0.474   4.796   6.499 -0.4433 -0.1602 -0.1132
  189SLPC  H15C21781   0.405   4.797   6.342 -0.4052  1.5779  1.6818
  189SLPC   C1221782   0.738   4.766   6.443  0.7147 -0.1456 -0.2811
  189SLPC  H12A21783   0.754   4.661   6.459  1.1576 -0.0671 -0.2038
  189SLPC  H12B21784   0.696   4.791   6.540 -0.2044 -0.8535 -0.4961
  189SLPC   C1121785   0.881   4.829   6.419  0.5323  0.0900  0.2949
  189SLPC  H11A21786   0.923   4.786   6.325 -2.7764 -0.4455 -0.9871
  189SLPC  H11B21787   0.940   4.799   6.509  1.4029 -0.7767 -0.5483
  189SLPC     P21788   1.004   5.061   6.399  0.2001  0.0372  0.1121
  189SLPC   O1321789   1.126   4.978   6.379 -0.5735 -0.2367 -0.3351
  189SLPC   O1421790   0.979   5.167   6.299 -1.0089  0.3065  0.4250
  189SLPC   O1221791   0.873   4.976   6.416  0.2298  0.7376 -0.5692
  189SLPC   O1121792   1.016   5.123   6.542 -0.5393  0.3818 -0.0334
  189SLPC    C121793   1.043   5.042   6.651  0.7366 -0.4116 -0.1760
  189SLPC    HA21794   1.097   4.947   6.632  0.0124 -0.6646 -0.9730
  189SLPC    HB21795   1.116   5.103   6.709 -1.2898  1.7577  0.1975
  189SLPC    C221796   0.918   5.025   6.745  0.2509 -0.6349  0.2369
  189SLPC    HS21797   0.836   4.986   6.681  2.1161 -2.5680 -1.0728
  189SLPC   O2121798   0.887   5.156   6.798  0.4539  0.1268 -0.4384
  189SLPC   C2121799   0.764   5.201   6.800  0.4844  0.3783  0.2508
  189SLPC   O2221800   0.670   5.134   6.759  0.1442 -0.3420 -0.1187
  189SLPC   C2221801   0.763   5.340   6.864 -0.3978 -0.0449 -0.7882
  189SLPC   H2R21802   0.847   5.345   6.937 -0.8327  0.7140 -0.3229
  189SLPC   H2S21803   0.789   5.413   6.785 -0.2247  0.2265 -0.4813
  189SLPC    C321804   0.959   4.927   6.865 -0.5082 -0.6599  0.0045
  189SLPC    HX21805   1.051   4.969   6.912  0.4294  1.1465 -3.3102
  189SLPC    HY21806   0.983   4.823   6.832  1.1841 -0.0615 -0.6881
  189SLPC   O3121807   0.863   4.916   6.966  0.1811 -0.1651  0.1626
  189SLPC   C3121808   0.757   4.851   6.940  0.0307  0.0815 -0.2649
  189SLPC   O3221809   0.733   4.786   6.842 -0.8520 -0.0685 -0.2267
  189SLPC   C3221810   0.653   4.874   7.049  0.7651  0.4450 -0.4574
  189SLPC   H2X21811   0.561   4.819   7.018  0.3497  1.2477 -0.6823
  189SLPC   H2Y21812   0.632   4.983   7.038 -0.3814  0.4113  1.2666
  189SLPC   C2321813   0.630   5.381   6.924  0.3536 -0.2503 -0.8518
  189SLPC   H3R21814   0.573   5.300   6.974 -2.0107  1.4127 -0.7849
  189SLPC   H3S21815   0.574   5.438   6.847  1.2544 -0.4115 -1.6382
  189SLPC   C2421816   0.655   5.496   7.030  0.6671  0.0205 -0.6125
  189SLPC   H4R21817   0.570   5.567   7.045  0.2368 -0.9146  1.6191
  189SLPC   H4S21818   0.747   5.552   7.005 -0.5124  1.0368 -2.7978
  189SLPC   C2521819   0.673   5.437   7.169 -0.0710  0.7500 -0.2763
  189SLPC   H5R21820   0.738   5.348   7.157  1.1625  1.4686  0.8687
  189SLPC   H5S21821   0.568   5.411   7.193  0.0606  1.4925  1.1879
  189SLPC   C2621822   0.710   5.533   7.278 -0.3797  0.2909 -0.5856
  189SLPC   H6R21823   0.642   5.620   7.275  0.6634  1.2101  1.3880
  189SLPC   H6S21824   0.813   5.570   7.257  0.8853 -2.6114  0.1510
  189SLPC   C2721825   0.713   5.466   7.418  0.4287 -0.5690 -0.2814
  189SLPC   H7R21826   0.800   5.398   7.428 -0.6527 -2.5584 -3.5036
  189SLPC   H7S21827   0.622   5.403   7.430 -0.9829  1.2462 -1.3128
  189SLPC   C2821828   0.731   5.579   7.525  0.2306  0.4727  0.7747
  189SLPC   H8R21829   0.651   5.653   7.504 -1.0330 -1.5589 -1.8445
  189SLPC   H8S21830   0.830   5.626   7.505  0.1250 -0.1675 -1.4155
  189SLPC   C2921831   0.706   5.530   7.670  0.0731 -0.3942 -0.0790
  189SLPC   H9R21832   0.750   5.438   7.711 -0.2654 -0.8945 -0.8264
  189SLPC  C21021833   0.649   5.592   7.776 -0.2154  0.2393 -0.0228
  189SLPC  H10R21834   0.624   5.541   7.870  0.3917 -1.2301 -0.6415
  189SLPC  C21121835   0.590   5.735   7.770  0.0057 -0.0728  0.0828
  189SLPC  H11R21836   0.481   5.748   7.792 -0.4955 -2.6775 -0.7194
  189SLPC  H11S21837   0.607   5.784   7.672 -0.1812 -0.7467 -0.2920
  189SLPC  C21221838   0.671   5.809   7.871 -0.0424 -0.5852 -0.4058
  189SLPC  H12R21839   0.776   5.825   7.843 -0.2872  3.0705  0.4930
  189SLPC  C21321840   0.637   5.871   7.983  0.4414 -0.9064 -0.0734
  189SLPC  H13R21841   0.716   5.924   8.038  0.7874 -0.5698 -0.8942
  189SLPC  C21421842   0.496   5.880   8.039 -0.3857  0.0899  0.4399
  189SLPC  H14R21843   0.422   5.873   7.956  0.3187 -1.1947 -0.1035
  189SLPC  H14S21844   0.494   5.979   8.090  0.4758  0.8294 -0.9255
  189SLPC  C21521845   0.462   5.763   8.129  0.2639 -0.4402 -0.5645
  189SLPC  H15R21846   0.518   5.774   8.224  0.4364  0.5720 -0.7752
  189SLPC  H15S21847   0.493   5.668   8.081 -0.8296 -1.3340  0.4517
  189SLPC  C21621848   0.309   5.751   8.154 -0.0106 -0.2613 -0.6407
  189SLPC  H16R21849   0.295   5.675   8.233 -0.5499  2.4603  2.0015
  189SLPC  H16S21850   0.258   5.716   8.062  0.3595  0.0674 -0.9716
  189SLPC  C21721851   0.243   5.886   8.195  0.0880  0.6799  0.2537
  189SLPC  H17R21852   0.133   5.877   8.180  0.0971  0.2506  0.4148
  189SLPC  H17S21853   0.279   5.964   8.125 -1.0447  1.1231  0.1520
  189SLPC  C21821854   0.270   5.940   8.338 -0.0096  0.2142  0.2755
  189SLPC  H18R21855   0.205   6.027   8.362 -1.4896 -1.1421  1.2837
  189SLPC  H18S21856   0.377   5.969   8.350  0.0744 -0.3538  0.9393
  189SLPC  H18T21857   0.236   5.875   8.422 -1.9251 -0.2879 -0.8632
  189SLPC   C3321858   0.683   4.838   7.193  0.5324  0.0166 -0.2777
  189SLPC   H3X21859   0.742   4.745   7.205  0.0762 -0.2954 -0.4610
  189SLPC   H3Y21860   0.584   4.813   7.236  0.1731 -0.4178 -1.3381
  189SLPC   C3421861   0.737   4.958   7.273 -0.1454 -0.1354  0.4568
  189SLPC   H4X21862   0.691   4.955   7.374  1.2868 -2.2263  1.0652
  189SLPC   H4Y21863   0.699   5.054   7.232  0.9651  0.2715  0.3621
  189SLPC   C3521864   0.890   4.962   7.296  0.1309 -0.0098  0.0237
  189SLPC   H5X21865   0.933   4.989   7.197 -3.6905  0.0690 -1.6974
  189SLPC   H5Y21866   0.932   4.860   7.309 -0.9457 -0.3395  1.0552
  189SLPC   C3621867   0.927   5.048   7.413 -0.0307 -0.4334  0.3214
  189SLPC   H6X21868   0.875   5.146   7.401  0.8995 -0.0043 -0.3904
  189SLPC   H6Y21869   1.033   5.078   7.395 -0.4867 -0.8330 -3.5290
  189SLPC   C3721870   0.907   4.988   7.553 -0.2039 -0.0381  0.0896
  189SLPC   H7X21871   0.965   4.894   7.560 -0.4442 -0.1247  0.9392
  189SLPC   H7Y21872   0.805   4.948   7.567 -1.3901  1.5025 -3.4490
  189SLPC   C3821873   0.936   5.082   7.671 -0.4155  0.5080 -0.0417
  189SLPC   H8X21874   0.886   5.176   7.638 -0.9360  1.5498  3.4808
  189SLPC   H8Y21875   1.046   5.085   7.682 -0.2703 -0.7454 -1.0621
  189SLPC   C3921876   0.866   5.041   7.802 -0.5826  0.2451 -0.4856
  189SLPC   H9X21877   0.925   4.957   7.843 -0.1699  0.7393 -0.0549
  189SLPC   H9Y21878   0.767   4.998   7.775 -0.0188 -0.0399 -2.1482
  189SLPC  C31021879   0.840   5.154   7.895 -0.0482 -0.3541 -0.3708
  189SLPC  H10X21880   0.812   5.110   7.993  1.4372 -1.4112 -0.3918
  189SLPC  H10Y21881   0.759   5.221   7.859  0.5438  0.5088 -0.1050
  189SLPC  C31121882   0.957   5.247   7.911  0.0812 -0.0734  0.7875
  189SLPC  H11X21883   0.973   5.308   7.820  0.0024  0.1634  0.9331
  189SLPC  H11Y21884   1.050   5.192   7.936 -0.9142 -1.8560  0.6654
  189SLPC  C31221885   0.932   5.350   8.018  1.0047  0.1823  0.4876
  189SLPC  H12X21886   0.842   5.412   7.999  0.9538 -0.6752 -2.1771
  189SLPC  H12Y21887   1.021   5.417   8.011  0.5380  0.7949  0.3395
  189SLPC  C31321888   0.927   5.289   8.158 -0.1255  0.6031 -0.5895
  189SLPC  H13X21889   1.033   5.286   8.193 -0.9651 -1.3972  1.8961
  189SLPC  H13Y21890   0.901   5.181   8.165  0.4477  0.4563 -0.6350
  189SLPC  C31421891   0.840   5.386   8.241  0.3450 -0.0895  0.0198
  189SLPC  H14X21892   0.738   5.386   8.197  0.0794 -2.0808  0.5617
  189SLPC  H14Y21893   0.883   5.488   8.240  0.1015  0.0585  2.1685
  189SLPC  C31521894   0.830   5.345   8.390 -0.1867 -0.3181  0.2447
  189SLPC  H15X21895   0.771   5.420   8.447 -1.2643 -1.1313  0.2140
  189SLPC  H15Y21896   0.936   5.345   8.421 -0.4565 -0.7109  1.1661
  189SLPC  C31621897   0.758   5.218   8.422 -0.0872 -0.0634  0.5410
  189SLPC  H16X21898   0.810   5.138   8.365  0.7957  1.2852 -0.5888
  189SLPC  H16Y21899   0.654   5.226   8.384  0.5348 -1.3249 -1.4813
  189SLPC  C31721900   0.771   5.178   8.570  0.0997  0.1724 -0.5411
  189SLPC  H17X21901   0.879   5.183   8.595  0.3571 -1.2488 -1.3115
  189SLPC  H17Y21902   0.726   5.079   8.591 -0.2606  0.6218  0.8680
  189SLPC  C31821903   0.686   5.264   8.657  0.0712 -0.0618  0.6678
  189SLPC  H18X21904   0.584   5.280   8.614  0.2946 -0.6565 -0.0856
  189SLPC  H18Y21905   0.718   5.368   8.681 -1.6177  0.4547  0.7651
  189SLPC  H18Z21906   0.676   5.204   8.750 -1.6487 -1.5746 -0.4556
  190SLPC     N21907   2.143   4.338   6.101  0.0450  0.3781  0.4693
  190SLPC   C1321908   2.262   4.294   6.183  0.7459 -0.5000 -0.0703
  190SLPC  H13A21909   2.241   4.218   6.257 -0.4018  1.6443  1.8479
  190SLPC  H13B21910   2.341   4.244   6.128 -0.4393 -2.3596 -0.1577
  190SLPC  H13C21911   2.299   4.377   6.241 -1.8572  1.0717 -0.5585
  190SLPC   C1421912   2.103   4.216   6.016  0.5743  0.3261  0.0467
  190SLPC  H14A21913   2.190   4.184   5.959  0.3262  0.6894 -0.5428
  190SLPC  H14B21914   2.064   4.132   6.072 -0.5318 -0.4445 -1.8290
  190SLPC  H14C21915   2.027   4.237   5.943  0.2773  0.8557  0.5119
  190SLPC   C1521916   2.198   4.448   6.016 -0.1146 -0.1635  0.6094
  190SLPC  H15A21917   2.290   4.417   5.968 -0.0844  0.6210  0.1476
  190SLPC  H15B21918   2.125   4.478   5.943 -0.2218 -0.2505  0.6812
  190SLPC  H15C21919   2.215   4.540   6.070 -0.5765 -0.5735  1.4638
  190SLPC   C1221920   2.032   4.367   6.190 -0.6448  0.1041  0.9758
  190SLPC  H12A21921   1.948   4.403   6.133 -0.9862 -0.5462  1.0642
  190SLPC  H12B21922   2.076   4.442   6.253 -0.6486  0.2223  0.8374
  190SLPC   C1121923   1.983   4.258   6.280 -0.1806  0.2255 -0.1125
  190SLPC  H11A21924   2.067   4.218   6.340  1.6406  1.8917 -1.5052
  190SLPC  H11B21925   1.941   4.165   6.236  0.0257 -1.1667  2.5556
  190SLPC     P21926   1.931   4.410   6.476  0.0450 -0.0612  0.0104
  190SLPC   O1321927   2.073   4.386   6.510 -0.4343  0.4824 -0.3036
  190SLPC   O1421928   1.887   4.541   6.421 -0.3250  0.0693  0.6802
  190SLPC   O1221929   1.888   4.295   6.374 -0.0225  0.3085  0.1940
  190SLPC   O1121930   1.839   4.371   6.597 -0.6268 -0.8889  0.3109
  190SLPC    C121931   1.698   4.335   6.577  0.0630 -0.7577 -1.0781
  190SLPC    HA21932   1.671   4.309   6.472 -1.9731 -0.7192 -0.5739
  190SLPC    HB21933   1.677   4.249   6.644 -0.0962  1.0997  1.3180
  190SLPC    C221934   1.611   4.444   6.646 -0.0872  1.1218  0.2601
  190SLPC    HS21935   1.625   4.525   6.571 -2.3074  0.6937 -0.6458
  190SLPC   O2121936   1.667   4.483   6.774 -0.2770 -0.4201 -0.2551
  190SLPC   C2121937   1.615   4.599   6.829  0.5415  0.3642  0.3307
  190SLPC   O2221938   1.529   4.666   6.778  0.0186  0.3506  0.4263
  190SLPC   C2221939   1.655   4.599   6.976 -0.2862  0.3796 -0.4428
  190SLPC   H2R21940   1.742   4.530   6.980 -0.6982 -0.0187  2.2780
  190SLPC   H2S21941   1.678   4.701   7.013  2.5241 -0.0159 -0.9940
  190SLPC    C321942   1.461   4.394   6.662  0.2648 -0.0637  0.2207
  190SLPC    HX21943   1.432   4.362   6.560  0.7243 -2.3445  0.7805
  190SLPC    HY21944   1.404   4.485   6.691 -0.1464 -0.9746  2.4164
  190SLPC   O3121945   1.440   4.293   6.761 -0.0216 -0.3963 -0.0737
  190SLPC   C3121946   1.383   4.178   6.708  0.3115 -0.5076  0.0074
  190SLPC   O3221947   1.379   4.150   6.590 -0.7897 -0.1125 -0.1110
  190SLPC   C3221948   1.335   4.088   6.816 -0.3485  0.5167 -0.0371
  190SLPC   H2X21949   1.325   4.150   6.908  0.8750  1.7860 -0.7359
  190SLPC   H2Y21950   1.412   4.012   6.838 -1.6756 -1.0075 -0.5468
  190SLPC   C2321951   1.535   4.555   7.062  0.6579  0.2388 -0.1590
  190SLPC   H3R21952   1.500   4.454   7.032  0.4436  0.6434 -1.3057
  190SLPC   H3S21953   1.463   4.637   7.041  0.3313 -0.1164 -0.4281
  190SLPC   C2421954   1.550   4.540   7.215 -0.0883  0.1733  0.1428
  190SLPC   H4R21955   1.605   4.448   7.244  1.1388  0.5784 -0.8627
  190SLPC   H4S21956   1.446   4.543   7.254 -0.7950 -0.1641 -1.6445
  190SLPC   C2521957   1.628   4.662   7.272 -0.5306 -0.2576 -0.3784
  190SLPC   H5R21958   1.574   4.753   7.237  0.7881  1.1539  1.1764
  190SLPC   H5S21959   1.728   4.671   7.226 -0.9646 -1.6501 -1.6411
  190SLPC   C2621960   1.649   4.673   7.423  0.3487  0.0763 -0.3440
  190SLPC   H6R21961   1.689   4.774   7.445  2.9269 -1.2241  1.1417
  190SLPC   H6S21962   1.733   4.612   7.463  1.2606  1.2723 -0.4356
  190SLPC   C2721963   1.532   4.623   7.507 -0.5252 -0.5889  0.2366
  190SLPC   H7R21964   1.486   4.531   7.465 -0.3172  0.8067 -3.2171
  190SLPC   H7S21965   1.451   4.698   7.520 -0.1179  0.1650 -1.4279
  190SLPC   C2821966   1.570   4.607   7.654 -0.1403  0.4964 -0.0514
  190SLPC   H8R21967   1.649   4.529   7.654 -0.5909  0.0203  1.1074
  190SLPC   H8S21968   1.486   4.568   7.715  1.9235 -2.7939  0.8425
  190SLPC   C2921969   1.630   4.731   7.720  0.1859 -0.0745 -0.0246
  190SLPC   H9R21970   1.620   4.822   7.659  1.6765 -0.7832 -1.3415
  190SLPC  C21021971   1.698   4.740   7.842  0.5879  0.2145 -0.1319
  190SLPC  H10R21972   1.718   4.840   7.883  1.9312 -0.5321  1.0527
  190SLPC  C21121973   1.721   4.623   7.934  0.0073 -0.1093  0.1472
  190SLPC  H11R21974   1.804   4.641   8.005 -1.2296  0.3818  1.4766
  190SLPC  H11S21975   1.755   4.530   7.884 -0.1027 -0.4602  0.7220
  190SLPC  C21221976   1.607   4.589   8.022 -0.0499 -0.8280 -0.4506
  190SLPC  H12R21977   1.519   4.566   7.959 -1.3687 -0.5472  1.2553
  190SLPC  C21321978   1.599   4.590   8.158  0.1261 -0.3230 -0.0122
  190SLPC  H13R21979   1.506   4.569   8.212 -0.7109  1.0138 -0.8746
  190SLPC  C21421980   1.711   4.626   8.258 -0.3142  0.6714  0.0007
  190SLPC  H14R21981   1.806   4.632   8.202 -0.0036  0.0154  0.4454
  190SLPC  H14S21982   1.716   4.547   8.336 -1.0984  0.5209 -0.0949
  190SLPC  C21521983   1.698   4.755   8.333  0.2395 -0.2065 -1.1549
  190SLPC  H15R21984   1.712   4.842   8.265  0.2281  2.7336  2.4259
  190SLPC  H15S21985   1.786   4.761   8.401 -0.7024 -0.6143  0.1161
  190SLPC  C21621986   1.573   4.779   8.419  0.4871 -0.3933  0.3909
  190SLPC  H16R21987   1.569   4.699   8.496 -0.0105 -3.6274 -2.8395
  190SLPC  H16S21988   1.478   4.765   8.362  1.4217  0.9419 -1.5168
  190SLPC  C21721989   1.568   4.918   8.486 -0.6100 -0.5095 -0.2007
  190SLPC  H17R21990   1.594   5.008   8.426  2.2722 -1.1910 -0.0441
  190SLPC  H17S21991   1.656   4.923   8.552 -0.6186 -0.4959 -0.1904
  190SLPC  C21821992   1.434   4.932   8.557 -0.3551 -0.5874  0.5679
  190SLPC  H18R21993   1.442   5.021   8.622 -0.0157 -0.6236  0.5771
  190SLPC  H18S21994   1.425   4.837   8.614 -2.2787 -1.1135 -0.5563
  190SLPC  H18T21995   1.360   4.938   8.474  0.4999 -0.4840 -0.2050
  190SLPC   C3321996   1.189   4.040   6.793 -0.1287 -0.3874 -0.5731
  190SLPC   H3X21997   1.198   3.970   6.707  0.6337 -0.3306 -0.5464
  190SLPC   H3Y21998   1.115   4.122   6.779 -0.2784 -0.0741  1.9721
  190SLPC   C3421999   1.140   3.963   6.906 -0.2452 -0.7190 -0.3490
  190SLPC   H4X22000   1.215   3.887   6.935 -1.3174 -1.6612 -0.0378
  190SLPC   H4Y22001   1.047   3.909   6.878 -0.5487 -0.7160  0.6417
  190SLPC   C3522002   1.099   4.047   7.040  0.1721  0.4825 -0.0902
  190SLPC   H5X22003   1.008   4.103   7.008  0.7163  1.0743 -0.6289
  190SLPC   H5Y22004   1.178   4.122   7.062  1.0361 -0.5606  0.3600
  190SLPC   C3622005   1.074   3.978   7.173  0.4679  0.0833 -0.0474
  190SLPC   H6X22006   1.163   3.916   7.198  0.2538  0.0618  0.6739
  190SLPC   H6Y22007   0.997   3.900   7.153 -0.4036  1.0128 -0.3067
  190SLPC   C3722008   1.033   4.055   7.300  0.2712  0.8054 -0.8370
  190SLPC   H7X22009   0.947   4.117   7.269 -2.3014 -1.3279  1.7737
  190SLPC   H7Y22010   1.113   4.125   7.333 -0.1340 -0.9190  4.2960
  190SLPC   C3822011   0.975   3.978   7.425 -0.3972  0.2559 -0.0581
  190SLPC   H8X22012   1.063   3.931   7.475 -0.7287  0.3850  0.6538
  190SLPC   H8Y22013   0.889   3.913   7.401 -2.0530  2.2799  0.3068
  190SLPC   C3922014   0.936   4.078   7.530 -0.1726 -0.3820  0.9918
  190SLPC   H9X22015   0.847   4.138   7.502 -0.4767 -1.9757 -1.5348
  190SLPC   H9Y22016   1.021   4.148   7.546 -0.0417 -0.2921 -0.1010
  190SLPC  C31022017   0.904   4.012   7.666 -0.2803  0.2578  0.1492
  190SLPC  H10X22018   0.989   3.942   7.678  0.5911  1.1197 -0.8827
  190SLPC  H10Y22019   0.808   3.958   7.649 -0.3866  0.3142  0.5679
  190SLPC  C31122020   0.898   4.103   7.791 -0.2865 -0.0863 -0.0916
  190SLPC  H11X22021   0.796   4.103   7.834 -0.7269  1.8161 -1.0615
  190SLPC  H11Y22022   0.914   4.209   7.762  2.1069 -0.1261  0.9520
  190SLPC  C31222023   1.003   4.072   7.895 -0.4695 -0.5109 -0.7400
  190SLPC  H12X22024   1.104   4.078   7.849 -0.1130  0.1880  0.1168
  190SLPC  H12Y22025   0.986   3.969   7.934 -0.8080 -0.6088 -1.1444
  190SLPC  C31322026   1.001   4.183   8.010  0.2279  0.6053  0.3823
  190SLPC  H13X22027   0.916   4.174   8.081  1.2095 -0.6384  1.4319
  190SLPC  H13Y22028   1.007   4.272   7.944  0.1171  0.1658 -0.2328
  190SLPC  C31422029   1.115   4.175   8.107 -0.3626  0.7409 -0.2476
  190SLPC  H14X22030   1.212   4.191   8.056 -0.2809  1.4397  0.1136
  190SLPC  H14Y22031   1.117   4.080   8.164 -2.7810 -0.0106 -1.3580
  190SLPC  C31522032   1.116   4.281   8.221  0.3926 -0.2811  0.0504
  190SLPC  H15X22033   1.037   4.256   8.294  0.8537  0.7155  0.9055
  190SLPC  H15Y22034   1.095   4.379   8.173  1.4440 -0.5635 -0.9935
  190SLPC  C31622035   1.246   4.293   8.289  0.6457 -0.0516 -0.7008
  190SLPC  H16X22036   1.331   4.318   8.222 -0.9782  1.8160 -2.1124
  190SLPC  H16Y22037   1.282   4.207   8.350 -0.0165  1.3634  1.7043
  190SLPC  C31722038   1.239   4.408   8.391 -0.0979 -0.3120 -0.0489
  190SLPC  H17X22039   1.148   4.392   8.453 -0.3871  2.6029  0.3530
  190SLPC  H17Y22040   1.227   4.501   8.333 -0.8622  1.1013  2.2787
  190SLPC  C31822041   1.357   4.405   8.492  0.4242 -0.1145 -0.1202
  190SLPC  H18X22042   1.449   4.420   8.433 -1.0813  3.6439 -1.6753
  190SLPC  H18Y22043   1.373   4.305   8.537 -1.2138 -0.0278  0.6898
  190SLPC  H18Z22044   1.338   4.475   8.576 -1.1084  0.4669 -0.9123
  191SLPC     N22045   0.511   6.689   6.056 -0.0072  0.6768 -0.0363
  191SLPC   C1322046   0.506   6.705   6.204  0.3629  0.1914  0.3803
  191SLPC  H13A22047   0.488   6.811   6.219 -2.5574 -0.2929  0.4187
  191SLPC  H13B22048   0.419   6.649   6.233  1.3395 -2.4135 -1.5205
  191SLPC  H13C22049   0.597   6.666   6.247 -0.1908 -1.3263  0.1853
  191SLPC   C1422050   0.645   6.735   6.011  0.3568 -0.8785  0.3246
  191SLPC  H14A22051   0.659   6.834   6.052  3.7886 -0.3110 -1.9904
  191SLPC  H14B22052   0.723   6.663   6.030  1.1155 -0.8392 -2.4342
  191SLPC  H14C22053   0.643   6.749   5.904 -1.8790  1.0174  0.5683
  191SLPC   C1522054   0.396   6.765   5.994  0.0599  0.6076  0.3165
  191SLPC  H15A22055   0.303   6.725   6.029  0.2648 -1.4227 -1.4161
  191SLPC  H15B22056   0.408   6.869   6.020  0.9342  0.4571  0.5510
  191SLPC  H15C22057   0.406   6.749   5.888  1.7112 -1.0427  0.6987
  191SLPC   C1222058   0.493   6.538   6.020  0.1412 -0.9364  0.2180
  191SLPC  H12A22059   0.401   6.514   6.072 -0.0999  1.1778  0.7855
  191SLPC  H12B22060   0.570   6.475   6.063  0.8118  0.0086  0.4023
  191SLPC   C1122061   0.497   6.489   5.875 -0.2429 -0.4903 -0.1512
  191SLPC  H11A22062   0.414   6.537   5.819 -1.6478 -2.6797  0.0098
  191SLPC  H11B22063   0.462   6.384   5.867 -2.0154  0.1736 -1.4768
  191SLPC     P22064   0.724   6.377   5.829 -0.2542  0.1301  0.0729
  191SLPC   O1322065   0.664   6.261   5.758  0.2397  0.0808 -0.0638
  191SLPC   O1422066   0.861   6.410   5.787 -0.0432 -0.0646 -0.1444
  191SLPC   O1222067   0.624   6.499   5.816 -1.3022 -0.3135  0.0604
  191SLPC   O1122068   0.727   6.350   5.989 -1.0145  0.5146 -0.6878
  191SLPC    C122069   0.822   6.255   6.038 -0.0548 -0.7553  0.0494
  191SLPC    HA22070   0.805   6.149   6.011 -0.1227 -0.7110 -0.0784
  191SLPC    HB22071   0.926   6.281   6.007  0.2523 -0.9734  0.8810
  191SLPC    C222072   0.823   6.268   6.193  0.2966  0.2369  0.5894
  191SLPC    HS22073   0.856   6.368   6.228 -0.6080  0.6241  0.3497
  191SLPC   O2122074   0.903   6.160   6.241  0.2511  0.5812  0.3071
  191SLPC   C2122075   0.969   6.190   6.348 -0.2965  0.3362  0.3512
  191SLPC   O2222076   0.968   6.300   6.403 -0.0202 -0.0343 -0.4294
  191SLPC   C2222077   1.055   6.062   6.389  1.0340 -0.0741  0.1720
  191SLPC   H2R22078   0.985   5.978   6.412  1.6968 -0.3641  1.1507
  191SLPC   H2S22079   1.130   6.031   6.313  0.3891  0.9436 -0.9119
  191SLPC    C322080   0.675   6.240   6.244 -0.2919  0.0728 -0.5098
  191SLPC    HX22081   0.649   6.138   6.210  0.7648 -1.3117  2.6848
  191SLPC    HY22082   0.598   6.303   6.194  0.0176  0.7768 -0.1139
  191SLPC   O3122083   0.653   6.244   6.385  0.2247  0.1161  0.1975
  191SLPC   C3122084   0.647   6.367   6.445  0.0847  0.3491  0.1830
  191SLPC   O3222085   0.637   6.472   6.382 -0.6542 -0.7585  0.4011
  191SLPC   C3222086   0.645   6.359   6.601 -0.1472  0.2617 -0.5763
  191SLPC   H2X22087   0.742   6.404   6.631 -0.5870  0.9605 -0.1984
  191SLPC   H2Y22088   0.644   6.250   6.625  2.8846  1.0058  3.3980
  191SLPC   C2322089   1.125   6.081   6.525  0.0208  0.0944  0.4710
  191SLPC   H3R22090   1.198   6.164   6.509  1.0993 -0.3819  2.6975
  191SLPC   H3S22091   1.186   5.989   6.535 -0.8761 -0.6811 -0.9933
  191SLPC   C2422092   1.037   6.117   6.642 -0.1724  0.7332  0.2684
  191SLPC   H4R22093   0.956   6.041   6.655  0.5663 -0.5500 -2.3847
  191SLPC   H4S22094   0.987   6.216   6.634 -0.5496  0.5030 -0.2010
  191SLPC   C2522095   1.112   6.117   6.777 -0.6927 -0.7972 -0.0103
  191SLPC   H5R22096   1.214   6.157   6.764 -2.0171  2.4313 -0.9447
  191SLPC   H5S22097   1.113   6.015   6.822 -0.1672 -1.1508 -0.8120
  191SLPC   C2622098   1.030   6.194   6.878  0.2729  0.2555  0.2284
  191SLPC   H6R22099   1.016   6.299   6.847 -0.2919 -0.0256 -0.4822
  191SLPC   H6S22100   1.085   6.198   6.974  1.5478 -1.1538 -0.4120
  191SLPC   C2722101   0.891   6.123   6.901  0.1327 -0.2424  0.4447
  191SLPC   H7R22102   0.893   6.014   6.881 -0.5318 -0.4452  1.4005
  191SLPC   H7S22103   0.818   6.157   6.825  1.6095  1.4152 -0.2410
  191SLPC   C2822104   0.823   6.135   7.034  0.1825  0.3280  0.0774
  191SLPC   H8R22105   0.888   6.120   7.123 -0.7721  2.1288  1.1131
  191SLPC   H8S22106   0.750   6.051   7.042 -0.4286  0.6887 -1.4350
  191SLPC   C2922107   0.750   6.267   7.049  0.6990  0.1531 -0.3122
  191SLPC   H9R22108   0.660   6.265   6.986 -0.2948 -0.0329  1.0893
  191SLPC  C21022109   0.767   6.371   7.133  0.1293 -0.2529 -0.3976
  191SLPC  H10R22110   0.703   6.460   7.125 -0.5766 -0.6551  0.7242
  191SLPC  C21122111   0.874   6.382   7.245 -0.0131  0.7311  0.5590
  191SLPC  H11R22112   0.918   6.281   7.258 -0.3127  0.2262 -2.1408
  191SLPC  H11S22113   0.828   6.393   7.346 -4.1340 -3.0419 -0.7404
  191SLPC  C21222114   0.974   6.491   7.218  0.4113 -0.0191 -0.1373
  191SLPC  H12R22115   0.994   6.503   7.111  0.2245  0.0618 -0.1649
  191SLPC  C21322116   1.020   6.581   7.301 -0.6225  0.3115 -0.0421
  191SLPC  H13R22117   1.101   6.648   7.268  0.2720 -0.6504  0.1948
  191SLPC  C21422118   0.987   6.592   7.448  0.8884 -0.6977 -0.1933
  191SLPC  H14R22119   1.080   6.626   7.498  0.7980  2.0552 -1.8177
  191SLPC  H14S22120   0.945   6.501   7.497  0.1179  0.4532  1.3287
  191SLPC  C21522121   0.883   6.712   7.474  0.9308 -0.4778 -0.0257
  191SLPC  H15R22122   0.785   6.688   7.428  0.5814 -0.3860  0.6555
  191SLPC  H15S22123   0.916   6.810   7.432 -1.4684  0.9693  1.3374
  191SLPC  C21622124   0.856   6.742   7.622  0.2519  0.0432  0.2607
  191SLPC  H16R22125   0.834   6.846   7.655  2.0999 -0.2847  2.6412
  191SLPC  H16S22126   0.951   6.723   7.676 -0.0218  0.7342  0.9925
  191SLPC  C21722127   0.747   6.649   7.687  0.0584 -0.3538 -0.1435
  191SLPC  H17R22128   0.765   6.541   7.672 -0.4533 -0.7663  1.9813
  191SLPC  H17S22129   0.643   6.673   7.655  0.2251 -0.4497 -0.7457
  191SLPC  C21822130   0.734   6.675   7.846  0.3930 -0.2554  0.2914
  191SLPC  H18R22131   0.714   6.784   7.860 -1.2597 -0.5586  0.3652
  191SLPC  H18S22132   0.836   6.664   7.889  0.4978  0.7046  0.3009
  191SLPC  H18T22133   0.661   6.620   7.909 -1.9417  2.9822  0.5533
  191SLPC   C3322134   0.525   6.434   6.661  0.0777  0.5433  0.1052
  191SLPC   H3X22135   0.430   6.387   6.629  1.5991 -1.8145 -1.1078
  191SLPC   H3Y22136   0.521   6.537   6.619 -0.4353 -0.1439 -1.5659
  191SLPC   C3422137   0.509   6.439   6.807  0.4727 -0.5779  0.5456
  191SLPC   H4X22138   0.600   6.456   6.870 -0.7551  1.8053  1.7654
  191SLPC   H4Y22139   0.465   6.339   6.826  0.0027 -0.5229 -0.2405
  191SLPC   C3522140   0.418   6.555   6.866 -0.0773  0.1713  0.8733
  191SLPC   H5X22141   0.311   6.525   6.854  0.6857 -1.8363 -1.2564
  191SLPC   H5Y22142   0.418   6.644   6.800 -2.1664 -0.8778 -0.5752
  191SLPC   C3622143   0.454   6.582   7.011  0.3403  0.6293  0.6721
  191SLPC   H6X22144   0.561   6.611   7.018  0.4778  0.1709  0.5332
  191SLPC   H6Y22145   0.437   6.490   7.072 -0.4514 -0.4805 -1.1746
  191SLPC   C3722146   0.390   6.697   7.083  0.2614 -0.3251  0.2184
  191SLPC   H7X22147   0.282   6.677   7.096  0.0149  0.0329 -1.2183
  191SLPC   H7Y22148   0.400   6.785   7.016 -4.5573 -0.8813 -1.4353
  191SLPC   C3822149   0.467   6.739   7.213  0.4364  0.0426 -0.3278
  191SLPC   H8X22150   0.576   6.742   7.192  0.3569 -1.3823 -1.0176
  191SLPC   H8Y22151   0.442   6.676   7.301  0.5646 -0.1805 -0.4503
  191SLPC   C3922152   0.429   6.878   7.259 -0.6722  0.0883 -0.7545
  191SLPC   H9X22153   0.327   6.874   7.301 -1.2054 -1.4442 -2.1681
  191SLPC   H9Y22154   0.451   6.951   7.179  0.5184  0.2064 -0.3391
  191SLPC  C31022155   0.531   6.915   7.378  0.4876 -0.3661  0.5416
  191SLPC  H10X22156   0.530   7.027   7.377 -1.2482 -0.3738 -0.5531
  191SLPC  H10Y22157   0.639   6.892   7.364  0.3714 -0.3880 -0.3026
  191SLPC  C31122158   0.491   6.884   7.521 -0.4017  0.3960 -0.3927
  191SLPC  H11X22159   0.534   6.787   7.551  0.8019  0.3476 -2.1939
  191SLPC  H11Y22160   0.381   6.870   7.525 -0.6904  1.9673 -1.9302
  191SLPC  C31222161   0.517   6.992   7.622  0.2147  0.3282  0.3907
  191SLPC  H12X22162   0.462   7.084   7.594 -1.9493 -0.8781  0.5270
  191SLPC  H12Y22163   0.625   7.016   7.631  0.8037 -1.7003 -0.9046
  191SLPC  C31322164   0.462   6.942   7.764 -0.3621 -0.2631  0.0613
  191SLPC  H13X22165   0.520   6.849   7.783 -1.3275 -0.8987 -0.1097
  191SLPC  H13Y22166   0.355   6.921   7.744  0.1763 -1.6763 -1.4385
  191SLPC  C31422167   0.489   7.042   7.878  0.1206 -0.1961  0.2677
  191SLPC  H14X22168   0.564   7.118   7.846  2.9824 -2.9801  0.1510
  191SLPC  H14Y22169   0.528   6.986   7.965  1.6835  2.1111  1.1017
  191SLPC  C31522170   0.364   7.107   7.933  0.4762  0.0131 -0.8368
  191SLPC  H15X22171   0.311   7.158   7.850 -2.8303  0.1862  1.2724
  191SLPC  H15Y22172   0.387   7.195   7.997 -0.6639  0.5150 -1.0904
  191SLPC  C31622173   0.259   7.007   7.996 -0.9346 -0.2853  0.2499
  191SLPC  H16X22174   0.245   6.916   7.934 -0.9447  0.5251 -0.9556
  191SLPC  H16Y22175   0.156   7.050   7.990 -0.9212 -0.1863  0.6908
  191SLPC  C31722176   0.308   6.964   8.133  0.3572  0.2495 -0.1861
  191SLPC  H17X22177   0.418   6.954   8.135  0.4021  1.0140  2.4183
  191SLPC  H17Y22178   0.264   6.864   8.150  0.6315 -0.0588 -1.2416
  191SLPC  C31822179   0.268   7.064   8.244 -0.3629  0.4150  0.4153
  191SLPC  H18X22180   0.158   7.063   8.253 -0.3220  1.0417  1.0503
  191SLPC  H18Y22181   0.298   7.169   8.221  0.2042  0.9510  3.2702
  191SLPC  H18Z22182   0.317   7.032   8.339 -0.0744 -0.0532  0.1107
  192SLPC     N22183   0.453   0.886   6.260  0.8662 -0.4489  0.2611
  192SLPC   C1322184   0.332   0.885   6.176 -0.6042  0.2604  0.4382
  192SLPC  H13A22185   0.252   0.825   6.217  1.1628 -2.2114  0.3881
  192SLPC  H13B22186   0.287   0.982   6.161 -2.6877 -0.7195  0.1315
  192SLPC  H13C22187   0.347   0.836   6.081 -0.5806  1.2795 -0.0861
  192SLPC   C1422188   0.569   0.929   6.179  0.7588 -0.4922  0.0313
  192SLPC  H14A22189   0.596   0.851   6.110  0.0659 -0.2539 -0.5155
  192SLPC  H14B22190   0.548   1.016   6.118  1.1651 -0.6242 -0.2960
  192SLPC  H14C22191   0.656   0.954   6.238  3.1982 -0.1229 -3.5153
  192SLPC   C1522192   0.471   0.750   6.309  0.1568 -0.3121  0.2213
  192SLPC  H15A22193   0.485   0.679   6.228 -0.9417  0.2013 -0.4185
  192SLPC  H15B22194   0.553   0.744   6.379  1.2218  4.1993 -0.5159
  192SLPC  H15C22195   0.386   0.711   6.364 -0.5341  1.5476  0.4969
  192SLPC   C1222196   0.431   0.987   6.376  0.0491  0.0296  0.2925
  192SLPC  H12A22197   0.525   1.005   6.426  0.4737  0.5423 -0.6772
  192SLPC  H12B22198   0.366   0.951   6.454 -1.2487  0.6573 -0.4758
  192SLPC   C1122199   0.393   1.134   6.341  0.1450 -0.3095 -0.1739
  192SLPC  H11A22200   0.387   1.183   6.441 -1.0951  1.0397 -0.9064
  192SLPC  H11B22201   0.296   1.147   6.289 -0.3487  0.4895  0.9166
  192SLPC     P22202   0.615   1.248   6.339  0.3679  0.0498  0.1177
  192SLPC   O1322203   0.742   1.206   6.269 -0.1550 -0.3690  0.2793
  192SLPC   O1422204   0.596   1.391   6.351  0.7744 -0.2390 -0.4619
  192SLPC   O1222205   0.493   1.192   6.256 -0.3023  0.3143 -0.0143
  192SLPC   O1122206   0.610   1.185   6.478 -0.1754  0.0277  0.1432
  192SLPC    C122207   0.731   1.178   6.552 -0.4810  0.0451  0.0027
  192SLPC    HA22208   0.818   1.144   6.492  1.1014  2.0425  1.1269
  192SLPC    HB22209   0.747   1.282   6.587  0.5102  0.2289 -0.9634
  192SLPC    C222210   0.721   1.073   6.676 -0.4321  0.1373 -0.0413
  192SLPC    HS22211   0.691   0.980   6.623 -1.6957 -0.1453  1.1680
  192SLPC   O2122212   0.634   1.112   6.787 -0.6031 -0.2821 -0.1316
  192SLPC   C2122213   0.502   1.097   6.761 -0.0954 -0.7490 -0.6765
  192SLPC   O2222214   0.449   1.029   6.677  0.1256 -0.2975  0.0643
  192SLPC   C2222215   0.422   1.168   6.880 -0.1411  0.6943 -0.3059
  192SLPC   H2R22216   0.486   1.245   6.928  0.2829  1.4819 -2.0626
  192SLPC   H2S22217   0.335   1.214   6.829 -0.2491 -0.3789 -1.1005
  192SLPC    C322218   0.867   1.046   6.735 -0.4439 -0.1180  0.1561
  192SLPC    HX22219   0.929   1.007   6.652 -0.7872 -3.3619  1.3611
  192SLPC    HY22220   0.865   0.959   6.804 -0.4693 -0.9434 -0.8727
  192SLPC   O3122221   0.918   1.165   6.798 -0.3860 -0.0456  0.9457
  192SLPC   C3122222   1.042   1.151   6.841  0.1456 -0.3863  0.9005
  192SLPC   O3222223   1.113   1.052   6.815  0.6164 -0.5652  0.3060
  192SLPC   C3222224   1.091   1.276   6.923  0.5624  0.0377  0.5929
  192SLPC   H2X22225   1.046   1.373   6.894  0.9242 -0.0220 -0.1980
  192SLPC   H2Y22226   1.201   1.283   6.911  0.6560 -0.9880  0.8412
  192SLPC   C2322227   0.371   1.069   6.990 -0.5489 -0.5753  0.1782
  192SLPC   H3R22228   0.308   0.990   6.944 -0.0784 -0.4532 -0.6910
  192SLPC   H3S22229   0.298   1.137   7.039  1.3342  1.0812  0.7602
  192SLPC   C2422230   0.479   1.013   7.082  0.2710 -0.1432 -0.0829
  192SLPC   H4R22231   0.555   1.092   7.098 -0.5897  0.3577  1.7068
  192SLPC   H4S22232   0.529   0.929   7.030  2.0914  1.0776 -0.3338
  192SLPC   C2522233   0.438   0.973   7.226 -0.2400 -0.7598 -0.0147
  192SLPC   H5R22234   0.384   0.877   7.211 -0.3811 -1.1320  2.5953
  192SLPC   H5S22235   0.366   1.047   7.265  1.4918 -0.4580  2.7469
  192SLPC   C2622236   0.549   0.949   7.332  0.2935 -0.8486  0.1432
  192SLPC   H6R22237   0.621   1.033   7.319 -0.2541 -0.4019 -0.0289
  192SLPC   H6S22238   0.594   0.853   7.299 -1.5224 -1.9483  0.7829
  192SLPC   C2722239   0.509   0.942   7.480 -0.1555 -0.8073  0.0191
  192SLPC   H7R22240   0.591   0.892   7.535  2.2160  3.0752  0.1699
  192SLPC   H7S22241   0.412   0.891   7.497 -1.0675  0.7594 -0.3856
  192SLPC   C2822242   0.499   1.082   7.548  0.1034  0.3045  0.0188
  192SLPC   H8R22243   0.401   1.126   7.520  0.6898  1.0044 -0.9742
  192SLPC   H8S22244   0.576   1.148   7.502  0.8313  0.2829  1.1882
  192SLPC   C2922245   0.509   1.079   7.699 -0.0560 -0.1161  0.7796
  192SLPC   H9R22246   0.569   0.999   7.744 -1.7495 -2.4410 -0.9867
  192SLPC  C21022247   0.434   1.139   7.789  0.3326 -0.5971 -0.3052
  192SLPC  H10R22248   0.473   1.114   7.889  0.1738 -2.3925 -0.6866
  192SLPC  C21122249   0.318   1.234   7.783  0.0469 -0.5233  0.3880
  192SLPC  H11R22250   0.294   1.245   7.675 -2.0829 -2.3158  0.6171
  192SLPC  H11S22251   0.356   1.332   7.819 -1.6171  0.5227 -0.6562
  192SLPC  C21222252   0.209   1.179   7.872  0.3879 -0.5918  0.2059
  192SLPC  H12R22253   0.137   1.113   7.822 -1.3532  1.0566  0.4768
  192SLPC  C21322254   0.192   1.218   8.000 -0.0793 -1.3183 -0.6669
  192SLPC  H13R22255   0.110   1.170   8.056  0.2507  1.8305  2.6410
  192SLPC  C21422256   0.274   1.308   8.091 -0.4510  0.4495  0.2696
  192SLPC  H14R22257   0.351   1.365   8.035  1.2792 -1.4235  0.6853
  192SLPC  H14S22258   0.325   1.235   8.157 -0.7290 -1.8033 -1.9225
  192SLPC  C21522259   0.195   1.410   8.178  0.2125 -0.9127 -0.7892
  192SLPC  H15R22260   0.132   1.476   8.115  0.1482  0.8141  1.0277
  192SLPC  H15S22261   0.274   1.466   8.233 -1.1917 -2.3023  2.7838
  192SLPC  C21622262   0.101   1.349   8.286 -0.1835  0.2760 -0.1264
  192SLPC  H16R22263   0.012   1.299   8.242 -1.4126  1.7742  0.6421
  192SLPC  H16S22264   0.065   1.441   8.335 -0.6170 -0.0767  0.2210
  192SLPC  C21722265   0.164   1.261   8.390 -0.2010 -0.0013 -0.7535
  192SLPC  H17R22266   0.097   1.254   8.478 -2.3614  0.0675 -2.3768
  192SLPC  H17S22267   0.162   1.160   8.343 -0.3734 -0.2332 -0.2495
  192SLPC  C21822268   0.299   1.311   8.448 -0.5429 -0.1770 -0.0086
  192SLPC  H18R22269   0.300   1.414   8.491  1.5981 -0.3246  0.3191
  192SLPC  H18S22270   0.375   1.301   8.369 -1.8639 -0.0861 -1.3185
  192SLPC  H18T22271   0.340   1.252   8.532 -1.1764 -0.4188  0.1368
  192SLPC   C3322272   1.069   1.254   7.069  0.0425  0.2931  0.1380
  192SLPC   H3X22273   1.130   1.322   7.132 -1.1535  1.9636 -0.4548
  192SLPC   H3Y22274   1.095   1.151   7.102 -0.3226 -0.5451 -2.0848
  192SLPC   C3422275   0.929   1.294   7.122  0.1449 -0.6055  0.1167
  192SLPC   H4X22276   0.856   1.258   7.046  0.2074 -2.3033  0.8418
  192SLPC   H4Y22277   0.932   1.405   7.128 -1.5579 -0.3862 -2.3389
  192SLPC   C3522278   0.890   1.258   7.269  0.0146  0.1057 -0.7574
  192SLPC   H5X22279   0.912   1.149   7.272 -0.3539 -0.0206 -2.3587
  192SLPC   H5Y22280   0.780   1.263   7.275  0.1083  0.9096  0.3091
  192SLPC   C3622281   0.963   1.335   7.380  0.2069  0.1327 -0.6980
  192SLPC   H6X22282   0.966   1.439   7.342  2.2470  0.4339  0.2408
  192SLPC   H6Y22283   1.073   1.318   7.380  0.2035  0.1240 -1.2908
  192SLPC   C3722284   0.894   1.330   7.519 -0.0235 -0.1383 -0.2198
  192SLPC   H7X22285   0.897   1.224   7.553 -2.5037 -0.2284 -0.1258
  192SLPC   H7Y22286   0.788   1.365   7.516  0.5504  1.5067 -2.2559
  192SLPC   C3822287   0.963   1.435   7.615  0.1846  0.1136 -0.1380
  192SLPC   H8X22288   0.952   1.539   7.576  1.0124  0.2749  0.0273
  192SLPC   H8Y22289   1.071   1.408   7.624 -0.4064 -1.4361  2.6913
  192SLPC   C3922290   0.900   1.429   7.755  0.5248 -0.0595  0.4114
  192SLPC   H9X22291   0.802   1.476   7.732  2.2043  2.2385 -2.4592
  192SLPC   H9Y22292   0.959   1.485   7.830  0.8817 -0.8942  0.7522
  192SLPC  C31022293   0.881   1.290   7.813 -0.7434  0.1274 -1.0079
  192SLPC  H10X22294   0.986   1.255   7.822 -0.8679  0.1958  0.7402
  192SLPC  H10Y22295   0.827   1.219   7.746 -0.4326  0.8885 -2.0857
  192SLPC  C31122296   0.818   1.294   7.952 -0.5506 -0.0347  0.1677
  192SLPC  H11X22297   0.729   1.362   7.953 -0.8676 -0.4526  1.2846
  192SLPC  H11Y22298   0.880   1.324   8.039 -0.8644 -0.1880  0.4472
  192SLPC  C31222299   0.765   1.163   8.001  0.7973  0.2696  0.1489
  192SLPC  H12X22300   0.839   1.080   8.009 -1.8883 -2.4831 -2.5632
  192SLPC  H12Y22301   0.675   1.142   7.941 -0.3800  1.2293  1.5286
  192SLPC  C31322302   0.713   1.171   8.143 -0.1813 -0.1452 -0.1778
  192SLPC  H13X22303   0.625   1.238   8.156  0.8268  1.1268  0.1816
  192SLPC  H13Y22304   0.794   1.203   8.211  0.6248 -1.3375 -0.5644
  192SLPC  C31422305   0.677   1.033   8.208  0.1429  0.9297 -0.0346
  192SLPC  H14X22306   0.666   1.042   8.318 -0.3682 -3.1947  0.3381
  192SLPC  H14Y22307   0.753   0.962   8.169  1.6495  1.9131  1.0671
  192SLPC  C31522308   0.535   0.980   8.163  0.3987  0.1919 -0.5004
  192SLPC  H15X22309   0.533   1.011   8.056 -1.6658  2.7869  0.2476
  192SLPC  H15Y22310   0.461   1.042   8.218  2.1099  1.8423  0.0136
  192SLPC  C31622311   0.506   0.833   8.187  0.1895 -0.4971 -0.3706
  192SLPC  H16X22312   0.400   0.810   8.163  0.5954 -0.9307 -1.7672
  192SLPC  H16Y22313   0.524   0.804   8.293  1.6356 -3.0208 -1.2654
  192SLPC  C31722314   0.601   0.737   8.112  1.7203  0.3854  0.0323
  192SLPC  H17X22315   0.564   0.634   8.129 -0.8657  1.5441  1.9101
  192SLPC  H17Y22316   0.704   0.748   8.150  0.8038  1.2310  2.3658
  192SLPC  C31822317   0.598   0.768   7.961  0.0213 -0.5258 -0.7078
  192SLPC  H18X22318   0.498   0.786   7.919 -0.4640 -0.3269  0.4989
  192SLPC  H18Y22319   0.648   0.689   7.901  2.5267  0.4779 -0.0425
  192SLPC  H18Z22320   0.665   0.854   7.938  0.4862 -0.1677  1.7892
  193SOD    SOD22321   2.353   5.016  14.529  0.1090 -0.0052 -0.0290
  194SOD    SOD22322   5.793   0.294   1.389 -0.0217 -0.2412 -0.4096
  195SOD    SOD22323   2.044   6.303  11.458 -0.3708  0.4710 -0.7987
  196SOD    SOD22324   6.221   5.196  13.731 -0.5719 -0.0154 -0.1452
  197SOD    SOD22325   0.300   0.932  13.834 -0.1332  0.4263 -0.1219
  198SOD    SOD22326   4.210   0.375  13.163  0.1716  0.0309  0.0459
  199SOD    SOD22327   5.348   4.528   5.031  0.2748  0.2480 -0.0601
  200SOD    SOD22328   5.112   5.427   0.178 -0.7172  0.6989 -0.2546
  201SOD    SOD22329   6.679   6.237  11.350  0.0882 -0.3854  0.1160
  202SOD    SOD22330   5.841   3.318   2.064 -0.4117  0.0615  0.0568
  203SOD    SOD22331   0.845   5.938   5.367  1.0267  0.1574  0.2253
  204SOD    SOD22332   5.014   3.551  13.516  0.2210  0.0253 -0.1861
  205SOD    SOD22333   5.773   1.278   0.663 -0.0490  0.1788  0.4403
  206SOD    SOD22334   3.879   4.325  11.604  0.3856 -0.4563  0.2202
  207SOD    SOD22335   5.739   5.453  15.766  0.2157 -0.6057  0.1812
  208SOD    SOD22336   5.071   6.588   5.020  0.4675  0.3160  0.0171
  209SOD    SOD22337   1.413   5.563   0.827  0.2122 -0.0945 -0.3604
  210SOD    SOD22338   0.083   3.342   2.812  0.2244 -0.3227  0.2650
  211SOD    SOD22339   1.817   1.810  11.611 -0.3810 -0.1434  0.1468
  212SOD    SOD22340   2.392   5.872   1.511  0.2198 -0.1862  0.3023
  213SOD    SOD22341   3.308   3.573  11.498 -0.7035  0.2635  0.5203
  214SOD    SOD22342   4.558   4.695  11.352  0.0668  0.4560 -0.2893
  215SOD    SOD22343   6.322   2.521  11.499  0.2172 -0.0115 -0.1678
  216SOD    SOD22344   1.616   6.310   4.793 -0.1168  0.2790 -0.5897
  217SOD    SOD22345   5.256   0.658   5.498  0.2857  0.3081 -0.1072
  218SOD    SOD22346   5.024   1.603   5.496  0.1304  0.1718  1.0623
  219SOD    SOD22347   3.893   5.737   6.329  0.2032 -0.2995  0.5710
  220SOD    SOD22348   4.924   3.799  14.450  0.3087 -0.1404 -0.2594
  221SOD    SOD22349   1.286   2.090  16.545 -0.2385 -0.1224  0.3338
  222SOD    SOD22350   2.144   4.679  12.750 -0.1741  0.3520 -0.0524
  223SOD    SOD22351   1.331   5.597   2.576 -0.0420 -0.1702 -0.1264
  224SOD    SOD22352   3.140   5.032  14.908  0.0617  0.2854  0.0580
  225SOD    SOD22353   5.214   5.404  12.201  0.4936  0.1865  0.3136
  226SOD    SOD22354   1.346   0.323   4.414 -0.0650 -0.4077 -0.3412
  227SOD    SOD22355   3.325   0.749  15.818 -0.0643  0.1832 -0.0588
  228SOD    SOD22356   0.365   0.545   2.628  0.0727 -0.5104  0.0865
  229SOD    SOD22357   0.693   5.369  13.552  0.2846  0.1338  0.3798
  230SOD    SOD22358   5.402   6.275   2.000  0.0025 -0.1300  0.4763
  231SOD    SOD22359   0.644   4.491   5.774 -0.0113 -0.2882 -0.3616
  232SOD    SOD22360   6.655   5.725   3.042 -0.1793  0.0076 -0.1953
  233SOD    SOD22361   1.156   3.296  15.084  0.3251 -0.2247 -0.0868
  234SOD    SOD22362   6.114   5.058  10.734 -0.3110  0.1930  0.3080
  235SOD    SOD22363   4.128   2.943  13.185  0.0823  0.3584  0.0026
  236SOD    SOD22364   4.425   3.340  11.288  0.2005 -0.5074 -0.2432
  237SOD    SOD22365   0.979   0.485  15.474 -0.2323 -0.2423 -0.1486
  238SOD    SOD22366   1.434   6.201  11.161 -0.2295 -0.1710  0.0866
  239SOD    SOD22367   1.037   4.575  11.496 -0.2277  0.6172  0.1823
  240SOD    SOD22368   0.714   5.707  16.168 -0.0515 -0.0854 -0.5203
  241SOD    SOD22369   1.873   3.304  14.831 -0.0644 -0.1948 -0.4233
  242SOD    SOD22370   6.481   1.852   2.486  0.3856  0.0997  0.1969
  243SOD    SOD22371   4.884   5.325   5.946  0.3430  0.0475  0.4251
  244SOD    SOD22372   6.210   1.916   4.517  0.2537  0.0798 -0.2431
  245SOD    SOD22373   0.992   2.354   5.939  0.3790 -0.3620 -0.9187
  246SOD    SOD22374   4.336   1.989   0.807 -0.2345  0.8101  0.0147
  247SOD    SOD22375   6.752   6.574  13.865 -0.2193  0.5215 -0.0079
  248SOD    SOD22376   0.794   3.331  13.956 -0.4972 -0.3412  0.0193
  249SOD    SOD22377   2.432   2.436   2.750 -0.5059  0.3814  0.4788
  250SOD    SOD22378   0.600   0.507   5.512 -0.4947  0.1596  0.1392
  251SOD    SOD22379   6.792   6.185  15.775 -0.3446  0.0397  0.3357
  252SOD    SOD22380   6.281   0.691   4.726 -0.0080  0.1088  0.3959
  253SOD    SOD22381   5.767   2.665  14.424 -0.1287 -0.0777  0.2348
  254SOD    SOD22382   5.579   2.505   2.468  0.2960  0.0614 -0.1251
  255SOD    SOD22383   4.046   3.185   6.291  0.4267 -0.2690 -0.4837
  256SOD    SOD22384   4.838   0.723  12.813  0.6657  0.0847  0.0961
  257SOD    SOD22385   0.713   1.701   5.750  0.5010  0.0584 -0.6858
  258SOD    SOD22386   0.796   2.684  11.854 -0.4542  0.4530  0.0891
  259SOD    SOD22387   6.129   1.179  16.049  0.1867 -0.1790  0.1522
  260SOD    SOD22388   4.775   1.918   3.654 -0.0511  0.0325  0.2891
  261SOD    SOD22389   2.589   3.449  14.417 -0.0703 -0.1015  0.0740
  262SOD    SOD22390   5.323   3.927   4.936 -0.0810 -0.1270 -0.6387
  263SOD    SOD22391   2.775   6.143   3.000 -0.0374  0.1653 -0.1357
  264SOD    SOD22392   0.575   2.835  16.713 -0.1109  0.1000 -0.5817
  265SOD    SOD22393   6.769   6.027  14.577  0.5419 -0.1281 -0.0820
  266CLA    CLA22394   3.081   2.613  15.888  0.1701  0.1461 -0.1533
  267CLA    CLA22395   2.479   1.971  15.098 -0.3297  0.5042 -0.0607
  268CLA    CLA22396   6.407   2.556  12.910  0.0174  0.1630  0.0995
  269CLA    CLA22397   6.748   0.549   4.850 -0.0884  0.4935  0.0876
  270CLA    CLA22398   5.759   2.846  14.853 -0.0095  0.3701  0.3040
  271CLA    CLA22399   1.645   6.812   4.621 -0.0218  0.0091  0.4858
  272CLA    CLA22400   6.298   1.161  13.219 -0.3634 -0.1024  0.1213
  273CLA    CLA22401   6.810   1.316  11.488  0.8799 -0.1145 -0.1016
  274CLA    CLA22402   4.576   3.241  13.264 -0.2619 -0.0544 -0.2183
  275CLA    CLA22403   6.794   6.593  11.829  0.2184  0.4467 -0.5413
  276CLA    CLA22404   5.740   4.585   5.407 -0.2911  0.2851  0.3621
  277CLA    CLA22405   4.538   5.469   5.616  0.1431  0.4515  0.0316
  278CLA    CLA22406   6.605   0.518   1.480 -0.1319 -0.2385 -0.1625
  279CLA    CLA22407   5.967   2.987   2.452 -0.3132  0.0056 -0.0401
  280CLA    CLA22408   3.580   2.258   4.145 -0.5931  0.2458  0.1512
  281CLA    CLA22409   2.534   5.055  16.169 -0.1304 -0.2415  0.0042
  282CLA    CLA22410   6.764   3.082   0.291  0.2605  0.0066 -0.5592
  283CLA    CLA22411   1.315   3.388  13.834 -0.0813  0.3705 -0.1987
  284CLA    CLA22412   4.837   5.321  17.059 -0.5477 -0.4472  0.0703
  285CLA    CLA22413   0.652   1.567  16.915  0.6119 -0.0183 -0.0475
  286CLA    CLA22414   4.348   1.125   1.904  0.2511 -0.1239 -0.0565
  287CLA    CLA22415   6.184   6.594  13.061 -0.3346  0.1119 -0.1977
  288CLA    CLA22416   6.111   5.425  11.810  0.6528 -0.1623 -0.1786
  289CLA    CLA22417   1.429   0.701   3.553 -0.0901  0.3989 -0.2876
  290CLA    CLA22418   5.148   1.829   4.671 -0.3123  0.2149 -0.3986
  291CLA    CLA22419   6.399   4.769  14.562 -0.2578 -0.3404  0.3271
  292CLA    CLA22420   2.926   3.648  12.077 -0.0325  0.0289 -0.2533
  293CLA    CLA22421   0.962   5.790  13.681  0.3164  0.1201 -0.1453
  294CLA    CLA22422   4.538   4.220   0.960  0.3729 -0.4084 -0.4468
  295CLA    CLA22423   4.642   4.776   5.186  0.1896 -0.6540 -0.4541
  296CLA    CLA22424   0.670   6.150   3.681  0.1482 -0.6051  0.4051
  297CLA    CLA22425   4.301   3.139  12.624 -0.2062  0.1699 -0.5370
  298CLA    CLA22426   6.210   3.612   5.081  0.1828  0.2206  0.2095
  299CLA    CLA22427   0.774   6.176  14.539 -0.2545 -0.4794  0.4048
  300CLA    CLA22428   1.200   0.393   0.215 -0.0406  0.0521  0.2688
  301CLA    CLA22429   0.555   4.786  13.008  0.2955  0.4548 -0.4432
  302CLA    CLA22430   4.805   3.978  13.975  0.2169 -0.3096  0.0560
  303CLA    CLA22431   4.040   4.723   3.250 -0.6318  0.0329  0.1332
  304CLA    CLA22432   0.792   5.660   0.648 -0.1713 -0.0227 -0.2808
  305CLA    CLA22433   5.142   1.373   3.625 -0.4387 -0.3823 -0.1438
  306CLA    CLA22434   2.310   1.106   5.279 -0.2945  0.2361 -0.6228
  307CLA    CLA22435   1.366   6.166  13.406  0.0275  0.1718 -0.3615
  308CLA    CLA22436   2.176   4.598  17.098  0.1361  0.1184 -0.0102
  309CLA    CLA22437   0.351   2.471  16.073 -0.0591  0.1930  0.2025
  310CLA    CLA22438   3.534   0.186  14.880 -0.0612  0.0205 -0.1475
  311CLA    CLA22439   5.695   0.919   1.436 -0.1463  0.1969 -0.2493
  312CLA    CLA22440   0.023   1.609   4.360 -0.2505 -0.0584  0.2593
  313CLA    CLA22441   5.167   2.835   1.608  0.0631  0.4074  0.2884
  314CLA    CLA22442   0.578   2.932  14.096  0.1911  0.4259 -0.1005
  315CLA    CLA22443   2.369   3.923   4.582 -0.0724 -0.0801  0.1191
  316CLA    CLA22444   1.415   4.005  14.726  0.3142  0.3066  0.0391
  317CLA    CLA22445   1.336   3.501  16.178 -0.3136 -0.0702 -0.0877
  318CLA    CLA22446   1.693   5.271   3.092 -0.2147 -0.3722  0.0016
  319TIP3   OH222447   1.663   2.111   5.539 -0.3776  0.4080  0.3847
  319TIP3    H122448   1.680   2.018   5.527  0.3649  0.5818  0.0266
  319TIP3    H222449   1.585   2.115   5.595 -0.0361 -0.4259  0.9290
  320TIP3   OH222450   0.362   4.420  12.591 -0.7568 -0.0733 -0.5487
  320TIP3    H122451   0.308   4.429  12.512 -1.0057 -2.5976 -0.7075
  320TIP3    H222452   0.314   4.357  12.645 -0.3670  1.2990  1.4452
  321TIP3   OH222453   0.346   5.037   3.677  0.2221 -0.6078  0.0004
  321TIP3    H122454   0.319   5.125   3.651  1.5729  0.7735  3.0332
  321TIP3    H222455   0.267   4.984   3.669 -1.4436  1.6072  1.2187
  322TIP3   OH222456   6.157   6.353  15.984  0.2209  0.1521  0.6019
  322TIP3    H122457   6.232   6.368  15.927 -0.2662  0.4736  0.0338
  322TIP3    H222458   6.112   6.278  15.946 -0.2431  0.5226  0.4095
  323TIP3   OH222459   6.619   5.927  12.503  0.3392 -0.2618 -0.0571
  323TIP3    H122460   6.589   5.930  12.594 -0.0339  0.6131 -0.2041
  323TIP3    H222461   6.585   5.845  12.469 -2.8957  1.2016 -0.5621
  324TIP3   OH222462   1.988   5.830   3.510  0.1736 -0.3933  0.2210
  324TIP3    H122463   1.989   5.825   3.606 -1.5527  1.9950  0.3955
  324TIP3    H222464   1.895   5.823   3.487  0.6490 -1.8487 -1.3549
  325TIP3   OH222465   1.013   4.337  13.166 -0.7050 -0.2412  0.2522
  325TIP3    H122466   1.008   4.248  13.131 -1.4016  0.1548 -0.6783
  325TIP3    H222467   0.937   4.381  13.130 -0.7296  0.5537  1.2494
  326TIP3   OH222468   3.235   3.417   3.127  0.0640 -0.0536 -0.3789
  326TIP3    H122469   3.240   3.479   3.055  0.5044  1.0053  0.5543
  326TIP3    H222470   3.241   3.471   3.206 -0.3885 -1.1962  0.4546
  327TIP3   OH222471   2.713   4.484   1.730  0.6857 -0.1747 -0.7724
  327TIP3    H122472   2.738   4.574   1.748  0.4643 -0.4711  1.0675
  327TIP3    H222473   2.753   4.465   1.645  0.1091  1.8756 -1.5263
  328TIP3   OH222474   1.236   1.648  13.333  0.1332  0.3237 -0.0244
  328TIP3    H122475   1.180   1.701  13.275 -1.1898 -0.5690  0.4197
  328TIP3    H222476   1.222   1.684  13.420  2.3475  1.8518 -0.2461
  329TIP3   OH222477   6.537   5.137  14.140 -0.0040  0.0657  0.3061
  329TIP3    H122478   6.586   5.219  14.141  1.5811 -0.8568  1.4692
  329TIP3    H222479   6.604   5.070  14.128 -1.3043 -1.0605 -0.8461
  330TIP3   OH222480   1.160   1.714  13.594 -0.0862  0.2789 -0.4277
  330TIP3    H122481   1.107   1.794  13.590 -1.3622 -0.5782 -0.8137
  330TIP3    H222482   1.148   1.681  13.683 -2.2115 -1.2415 -1.2321
  331TIP3   OH222483   0.444   1.044   4.817  0.5697  0.1656  0.3159
  331TIP3    H122484   0.463   1.132   4.848  0.1176 -0.4208  2.3458
  331TIP3    H222485   0.530   1.007   4.797  0.9372  0.3591  1.4857
  332TIP3   OH222486   2.786   0.242   2.956 -0.3253 -0.0228  0.1314
  332TIP3    H122487   2.858   0.266   3.014  1.3825 -1.3678 -1.3657
  332TIP3    H222488   2.787   0.309   2.887  0.4544 -0.8789 -0.6940
  333TIP3   OH222489   4.159   3.700  15.872 -0.5222 -0.4673  0.3345
  333TIP3    H122490   4.164   3.668  15.782  3.2480  2.0682 -0.4781
  333TIP3    H222491   4.127   3.790  15.864 -2.4913 -0.9885  1.8087
  334TIP3   OH222492   1.938   2.817  11.901  0.6369  0.3043  0.3481
  334TIP3    H122493   2.007   2.756  11.928  0.8202  0.2518 -0.2313
  334TIP3    H222494   1.976   2.864  11.827 -0.4121 -0.6042 -0.7686
  335TIP3   OH222495   6.434   5.883   4.440  0.9891  0.1488 -0.2104
  335TIP3    H122496   6.376   5.920   4.507  3.3234  0.5947  1.6136
  335TIP3    H222497   6.441   5.791   4.462 -0.2719 -0.2588 -1.4017
  336TIP3   OH222498   2.615   2.160   3.028 -0.7110  0.1172 -0.4151
  336TIP3    H122499   2.563   2.120   2.959  1.1848  0.4520 -2.0816
  336TIP3    H222500   2.554   2.172   3.101 -2.3044 -1.8535 -1.4044
  337TIP3   OH222501   2.646   2.858  14.449 -0.0288 -0.4719 -0.2323
  337TIP3    H122502   2.655   2.948  14.479 -1.0339  0.3106 -2.2080
  337TIP3    H222503   2.734   2.834  14.419  0.4360 -0.4722  1.0682
  338TIP3   OH222504   5.924   2.037  14.593 -0.1864 -0.0032  0.5152
  338TIP3    H122505   5.998   1.977  14.596 -2.4282 -3.1450 -2.5445
  338TIP3    H222506   5.873   2.016  14.672 -0.9690 -2.2337 -0.5413
  339TIP3   OH222507   3.353   6.407  12.753  0.6629  0.2521  0.1138
  339TIP3    H122508   3.261   6.395  12.732  0.6591  0.8444 -0.2115
  339TIP3    H222509   3.400   6.348  12.694  0.4876 -0.1219  0.3489
  340TIP3   OH222510   1.982   0.225   2.700  0.0921 -1.0311  0.0092
  340TIP3    H122511   2.005   0.297   2.760 -0.8333  0.3199 -1.2039
  340TIP3    H222512   2.016   0.147   2.742 -0.9932 -0.1737  2.5558
  341TIP3   OH222513   1.186   5.623   0.282 -0.1733 -0.1867 -0.1273
  341TIP3    H122514   1.166   5.599   0.372  0.7802  3.0557  1.0189
  341TIP3    H222515   1.267   5.577   0.262 -0.0320 -0.3976  0.9137
  342TIP3   OH222516   1.871   1.266  10.812  0.4102  0.3811  0.2070
  342TIP3    H122517   1.832   1.211  10.743  3.6300 -2.3104  0.3920
  342TIP3    H222518   1.863   1.356  10.778 -2.7086 -0.4023 -1.2839
  343TIP3   OH222519   4.440   3.429   0.680 -0.0976  0.1119 -0.3105
  343TIP3    H122520   4.524   3.388   0.659 -0.0679 -0.4962  0.9288
  343TIP3    H222521   4.422   3.402   0.770 -1.7023  0.1122 -0.6189
  344TIP3   OH222522   5.517   4.576   1.691  0.0559  0.2494  0.1457
  344TIP3    H122523   5.445   4.584   1.754 -0.5327  1.1981 -0.6401
  344TIP3    H222524   5.502   4.646   1.628  1.0294 -0.2642 -0.6741
  345TIP3   OH222525   4.942   2.174  12.618 -0.5482 -0.2993  0.1715
  345TIP3    H122526   4.882   2.239  12.583  0.1584  0.7656  0.9320
  345TIP3    H222527   5.020   2.181  12.564 -0.2572 -0.1328  0.6169
  346TIP3   OH222528   2.335   2.376   4.461  0.0990 -0.1809  0.1782
  346TIP3    H122529   2.352   2.464   4.426 -2.0722  0.5695  0.9078
  346TIP3    H222530   2.396   2.367   4.534 -0.0370  0.9514  0.4404
  347TIP3   OH222531   4.521   5.737  16.096  0.2134 -0.3827  0.0307
  347TIP3    H122532   4.457   5.709  16.162 -0.0137  1.2041  0.5153
  347TIP3    H222533   4.596   5.679  16.109  0.1604 -0.1127  1.6719
  348TIP3   OH222534   4.327   3.383   6.481  0.0094  0.4849 -0.1349
  348TIP3    H122535   4.337   3.473   6.449  0.4595  0.8574  1.0088
  348TIP3    H222536   4.416   3.355   6.501 -0.2588  0.2767  0.8037
  349TIP3   OH222537   2.123   1.884  13.689  0.7184  0.7926  0.0674
  349TIP3    H122538   2.130   1.937  13.769  1.7894  2.7745 -1.3065
  349TIP3    H222539   2.177   1.807  13.707  0.1556  0.7288  1.6134
  350TIP3   OH222540   5.395   4.481  16.576 -0.4912  0.3119 -0.0153
  350TIP3    H122541   5.484   4.495  16.609 -0.7999 -0.4281  1.1339
  350TIP3    H222542   5.338   4.528  16.637 -1.1665 -2.1176  1.2631
  351TIP3   OH222543   1.544   4.769   4.297 -0.4052 -0.5417  0.1098
  351TIP3    H122544   1.494   4.755   4.217  2.6509 -3.4577 -1.3920
  351TIP3    H222545   1.536   4.687   4.345  1.6345 -0.4702  0.5984
  352TIP3   OH222546   4.420   5.261  12.571 -0.4250  0.4754 -0.4866
  352TIP3    H122547   4.347   5.263  12.633 -0.3245 -1.4473 -0.2900
  352TIP3    H222548   4.489   5.313  12.613 -0.3065 -0.9131  1.0856
  353TIP3   OH222549   6.555   5.597   3.702 -0.6575  0.2605  0.7644
  353TIP3    H122550   6.550   5.692   3.694 -1.1867  0.0978 -1.0032
  353TIP3    H222551   6.548   5.580   3.796 -1.4338  1.9130  1.0161
  354TIP3   OH222552   5.175   5.566   3.927  0.2169  0.3562  0.5542
  354TIP3    H122553   5.157   5.566   4.021 -1.4264  0.5963  0.2589
  354TIP3    H222554   5.202   5.655   3.908  0.1381  0.4190  0.7329
  355TIP3   OH222555   4.134   6.331  11.478  0.6027  0.3102 -0.1699
  355TIP3    H122556   4.057   6.300  11.430  0.6271  0.5369 -0.3586
  355TIP3    H222557   4.170   6.401  11.423  1.5169 -0.4558 -0.5645
  356TIP3   OH222558   2.649   2.107  13.793 -0.1755 -0.2454 -0.0095
  356TIP3    H122559   2.642   2.075  13.883 -2.5062  2.0214  0.6615
  356TIP3    H222560   2.619   2.198  13.797  1.8035  0.5876 -2.6992
  357TIP3   OH222561   5.463   5.803   0.908  0.0096  0.0576  0.0043
  357TIP3    H122562   5.450   5.850   0.826  1.1549  0.0850 -0.1651
  357TIP3    H222563   5.420   5.719   0.895 -0.0166  0.1528 -0.5309
  358TIP3   OH222564   2.349   6.431   5.290 -0.3331  0.6568 -0.4637
  358TIP3    H122565   2.328   6.511   5.242  2.2697  1.2400 -0.6771
  358TIP3    H222566   2.376   6.369   5.222  0.5352  0.5490 -0.0244
  359TIP3   OH222567   5.330   3.467  10.702 -0.0004  0.0532 -0.5266
  359TIP3    H122568   5.395   3.472  10.772 -2.0218  0.6806  1.3126
  359TIP3    H222569   5.288   3.382  10.714 -0.1772  0.0481 -1.1597
  360TIP3   OH222570   3.242   2.229   2.743  1.0393  0.3801 -0.0515
  360TIP3    H122571   3.329   2.265   2.758  1.6594 -1.6413  1.4076
  360TIP3    H222572   3.188   2.268   2.812  0.8113  1.4669 -0.8269
  361TIP3   OH222573   1.864   6.172   6.570  0.0459 -0.0968 -0.0823
  361TIP3    H122574   1.879   6.078   6.572 -1.8356 -0.4287 -0.8161
  361TIP3    H222575   1.775   6.184   6.603  0.3233  1.4465  0.1802
  362TIP3   OH222576   4.571   2.744  13.765 -0.1646 -0.5317 -0.8072
  362TIP3    H122577   4.660   2.779  13.770 -0.6474  0.6274  0.0440
  362TIP3    H222578   4.573   2.683  13.692  1.3152 -0.4772 -0.8278
  363TIP3   OH222579   2.838   5.175  15.729 -0.0075  0.2338  0.3846
  363TIP3    H122580   2.760   5.162  15.784  0.1497  0.9929  0.8082
  363TIP3    H222581   2.839   5.270  15.713  0.1203  0.0516 -0.6863
  364TIP3   OH222582   5.764   3.548   2.644  0.6824 -0.3938  0.1049
  364TIP3    H122583   5.818   3.486   2.596 -0.5831 -1.7530  0.3974
  364TIP3    H222584   5.817   3.628   2.649  1.3396 -0.6474 -2.4040
  365TIP3   OH222585   3.390   4.004  14.856 -0.1979  0.1205 -0.4052
  365TIP3    H122586   3.446   3.957  14.917 -0.0536 -0.7606 -1.2060
  365TIP3    H222587   3.446   4.072  14.819  0.4624 -0.9498 -1.4327
  366TIP3   OH222588   3.034   3.656  10.570  0.3281  0.0897  0.9195
  366TIP3    H122589   3.080   3.574  10.589  0.8315  0.4736  1.3662
  366TIP3    H222590   2.945   3.642  10.603  0.5225 -0.1311  1.3431
  367TIP3   OH222591   6.110   1.029  11.763 -0.2217  0.4241 -0.3201
  367TIP3    H122592   6.083   1.103  11.708 -0.4122  0.2213 -0.4991
  367TIP3    H222593   6.205   1.030  11.758 -0.2287  0.5544 -0.4630
  368TIP3   OH222594   1.743   6.160   2.041 -0.2711  0.1208 -0.4835
  368TIP3    H122595   1.722   6.251   2.023 -1.8487  1.4413  6.4900
  368TIP3    H222596   1.837   6.160   2.059 -0.2717  0.3829 -0.4775
  369TIP3   OH222597   3.250   1.235  15.846  0.4680  0.3596  0.5896
  369TIP3    H122598   3.192   1.217  15.921 -0.1603  1.4770  0.3830
  369TIP3    H222599   3.298   1.314  15.872  0.8147  0.3015  0.1242
  370TIP3   OH222600   2.435   1.844   3.667  0.2654 -0.3574  0.7133
  370TIP3    H122601   2.404   1.832   3.756  0.0394  0.8770  0.8162
  370TIP3    H222602   2.492   1.921   3.672 -0.9993  0.6984 -0.4691
  371TIP3   OH222603   3.926   3.505   1.342  0.0160  0.2788 -0.1184
  371TIP3    H122604   3.868   3.458   1.281  0.3838 -1.8028  1.0949
  371TIP3    H222605   3.932   3.448   1.418  2.6686  1.0405  0.2928
  372TIP3   OH222606   5.409   1.799  13.055  0.0397  0.3900 -0.1888
  372TIP3    H122607   5.479   1.785  12.991  0.7675 -0.3093  0.7499
  372TIP3    H222608   5.422   1.888  13.087  1.7848 -0.4625  1.5211
  373TIP3   OH222609   4.747   4.925   2.821  0.4849  0.0215  0.5553
  373TIP3    H122610   4.738   4.945   2.728 -1.7028  0.4049  0.8328
  373TIP3    H222611   4.799   4.998   2.856  0.3424  0.4673 -0.1508
  374TIP3   OH222612   0.231   0.525  16.321 -0.3717 -0.1897 -0.3527
  374TIP3    H122613   0.213   0.448  16.375  1.0285  0.0123  0.4219
  374TIP3    H222614   0.145   0.557  16.296 -0.9828 -1.8605 -0.4705
  375TIP3   OH222615   0.744   1.795  13.541  0.1565  0.0345  0.2926
  375TIP3    H122616   0.771   1.827  13.627  1.7305  0.3217 -0.2906
  375TIP3    H222617   0.779   1.860  13.479 -0.2125 -0.6200 -0.6171
  376TIP3   OH222618   3.534   6.309   3.288  0.7285  0.6523  0.0636
  376TIP3    H122619   3.611   6.259   3.314  0.4825  0.5693  0.6314
  376TIP3    H222620   3.471   6.295   3.359 -0.8836 -1.6279 -1.7280
  377TIP3   OH222621   3.385   6.734  16.270  0.2507 -0.1351 -0.6973
  377TIP3    H122622   3.335   6.730  16.189 -1.2094 -1.8694  0.2518
  377TIP3    H222623   3.444   6.659  16.266 -1.9042 -1.9943  1.1170
  378TIP3   OH222624   4.284   6.739  15.710 -0.8852 -0.1892  0.0151
  378TIP3    H122625   4.308   6.677  15.780 -0.9256  0.1415  0.3189
  378TIP3    H222626   4.193   6.717  15.690 -0.7369 -0.5745 -0.2364
  379TIP3   OH222627   5.253   6.294  11.263 -0.0475  0.1092  0.0369
  379TIP3    H122628   5.331   6.265  11.310  0.3713 -0.7091 -1.1592
  379TIP3    H222629   5.285   6.361  11.202  0.0554 -1.5853 -1.8126
  380TIP3   OH222630   2.248   2.005   3.457  0.2764  0.1341 -0.2774
  380TIP3    H122631   2.276   1.957   3.534 -1.4647 -0.2979  0.1178
  380TIP3    H222632   2.205   2.083   3.491  0.2252  0.3499 -0.8244
  381TIP3   OH222633   5.794   5.861  12.720 -0.0391 -0.4894 -0.3191
  381TIP3    H122634   5.756   5.935  12.767 -0.7415 -0.4803 -0.9048
  381TIP3    H222635   5.752   5.862  12.635  1.8568  0.0059 -1.2724
  382TIP3   OH222636   5.664   6.326  14.263 -0.4926  0.4301 -0.4554
  382TIP3    H122637   5.582   6.294  14.302  0.5391  0.4414  1.8283
  382TIP3    H222638   5.641   6.348  14.173 -3.1585  1.0442  0.3250
  383TIP3   OH222639   6.209   6.492  16.500 -0.1217 -0.3323 -0.5868
  383TIP3    H122640   6.143   6.475  16.566 -0.3890 -0.7939 -0.9752
  383TIP3    H222641   6.171   6.559  16.444 -0.2494 -0.5794 -0.7940
  384TIP3   OH222642   2.023   5.466   0.925 -0.2018 -0.1239  0.1943
  384TIP3    H122643   2.099   5.453   0.869 -1.6616 -0.1545 -1.7957
  384TIP3    H222644   2.060   5.495   1.009  2.1073 -1.9274 -0.1582
  385TIP3   OH222645   5.017   6.031   3.879 -0.0186  0.3513 -0.2250
  385TIP3    H122646   5.008   5.971   3.806 -0.7154 -0.6415  0.6666
  385TIP3    H222647   4.935   6.081   3.881 -0.1887  0.0602  0.1545
  386TIP3   OH222648   6.050   1.622   3.703 -0.3064  0.4095 -0.0891
  386TIP3    H122649   5.983   1.682   3.736  0.5529  0.3167  1.9064
  386TIP3    H222650   6.109   1.677   3.652 -1.6984  0.5447 -1.5963
  387TIP3   OH222651   1.039   2.488   3.200  0.0857 -0.1455  0.2262
  387TIP3    H122652   1.024   2.577   3.170  0.1026 -0.1766  0.1275
  387TIP3    H222653   0.999   2.485   3.287  0.2178  0.0025  0.2946
  388TIP3   OH222654   5.810   2.368  12.082  0.3343 -0.1148  0.6633
  388TIP3    H122655   5.832   2.402  12.169  0.5194 -0.3955  0.7259
  388TIP3    H222656   5.873   2.297  12.067  1.8679  1.5058 -0.7139
  389TIP3   OH222657   6.358   4.091  16.498 -0.3000 -0.0757 -0.5596
  389TIP3    H122658   6.332   4.004  16.527 -0.9877 -0.3499 -1.9362
  389TIP3    H222659   6.290   4.149  16.532  0.9047  0.1410  1.5629
  390TIP3   OH222660   2.491   5.216  15.013 -0.2773  1.0766  0.3032
  390TIP3    H122661   2.510   5.270  15.090  0.4274 -0.2850  1.1158
  390TIP3    H222662   2.444   5.274  14.954 -2.0606  1.7814  2.3376
  391TIP3   OH222663   2.689   2.837   5.213 -0.3141 -0.2019  0.4742
  391TIP3    H122664   2.680   2.784   5.134 -2.5197  1.3906 -0.3885
  391TIP3    H222665   2.600   2.842   5.249  0.2151  1.2526  1.6414
  392TIP3   OH222666   5.051   2.063   4.842  0.1378 -0.2630 -0.3835
  392TIP3    H122667   5.073   2.143   4.794  1.9422 -0.1101  0.6287
  392TIP3    H222668   5.085   1.992   4.786 -0.3830 -0.2504 -0.7143
  393TIP3   OH222669   4.745   4.067  13.688 -0.1717  0.2460  1.0415
  393TIP3    H122670   4.756   4.038  13.779 -1.2635 -1.9255  0.5007
  393TIP3    H222671   4.669   4.019  13.656  1.6920 -0.9114 -1.8258
  394TIP3   OH222672   3.785   5.509   3.982  0.5007  0.2346  0.8246
  394TIP3    H122673   3.696   5.491   4.012  0.2482 -0.6200 -0.4158
  394TIP3    H222674   3.784   5.485   3.889  1.9060  0.6414  0.7025
  395TIP3   OH222675   0.556   4.144   3.634  0.2507  0.3386 -0.0654
  395TIP3    H122676   0.504   4.192   3.569  0.1615 -0.2505 -0.4318
  395TIP3    H222677   0.565   4.056   3.597  1.6478  0.4795 -0.0727
  396TIP3   OH222678   2.485   5.723   4.713  0.5497 -0.5268 -0.6874
  396TIP3    H122679   2.544   5.787   4.671 -1.1901  1.0270 -0.8198
  396TIP3    H222680   2.404   5.771   4.727 -0.1131 -2.1261  1.1407
  397TIP3   OH222681   2.476   3.264   2.353  0.0178  0.0529  0.0904
  397TIP3    H122682   2.549   3.325   2.356  0.9972 -1.1003  0.3124
  397TIP3    H222683   2.456   3.254   2.259 -0.0395  0.5800  0.0471
  398TIP3   OH222684   2.011   2.333   5.096 -0.1751 -0.4267  0.3456
  398TIP3    H122685   1.950   2.281   5.044 -1.4868  0.7355  0.6826
  398TIP3    H222686   2.029   2.410   5.042  1.9138 -1.2822 -0.2386
  399TIP3   OH222687   0.184   3.061   1.378  0.3393 -0.4737  0.1037
  399TIP3    H122688   0.246   3.085   1.310 -0.3596 -0.1094 -0.4182
  399TIP3    H222689   0.237   3.022   1.447  1.2646  0.6990  0.0728
  400TIP3   OH222690   6.095   5.538   0.779  0.3701 -0.4049 -0.3344
  400TIP3    H122691   6.065   5.461   0.827 -2.6795 -0.3994 -2.1277
  400TIP3    H222692   6.019   5.595   0.774  2.1024  1.9665 -0.5882
  401TIP3   OH222693   1.041   6.750   3.474  0.9924 -0.3770 -0.6071
  401TIP3    H122694   1.079   6.823   3.523 -0.3989  0.1812 -0.3385
  401TIP3    H222695   1.054   6.773   3.382  0.8244  0.0641 -0.5198
  402TIP3   OH222696   1.686   6.664  16.963  0.2360 -0.0859  0.6498
  402TIP3    H122697   1.762   6.607  16.957 -0.4950 -1.1941  1.7780
  402TIP3    H222698   1.696   6.710  17.046 -0.5521 -0.5679  1.0136
  403TIP3   OH222699   0.495   2.256  15.876 -0.2903  0.3588 -0.2140
  403TIP3    H122700   0.448   2.293  15.951  1.1443  0.4478  0.6563
  403TIP3    H222701   0.500   2.328  15.813 -2.3049  0.0187 -0.8044
  404TIP3   OH222702   4.486   6.544   2.063 -0.0285 -0.1484  0.3822
  404TIP3    H122703   4.559   6.593   2.025 -0.8759  1.5123  0.8504
  404TIP3    H222704   4.408   6.580   2.021 -0.8025  0.1707  2.0129
  405TIP3   OH222705   5.549   5.561   2.002 -0.2129  0.3166 -0.0613
  405TIP3    H122706   5.600   5.499   1.949  0.3205 -0.1114  0.9329
  405TIP3    H222707   5.595   5.563   2.086 -1.9935 -0.2764  0.9571
  406TIP3   OH222708   2.037   1.087  13.381  1.2479  0.2497  0.5210
  406TIP3    H122709   2.035   1.160  13.444 -0.1602  0.7998 -0.1540
  406TIP3    H222710   2.054   1.128  13.297  2.5700 -0.4367  0.4407
  407TIP3   OH222711   4.179   3.186   0.626  0.3789  0.3838  0.0970
  407TIP3    H122712   4.153   3.097   0.602  0.2150  0.7192 -0.9806
  407TIP3    H222713   4.170   3.236   0.545  1.2303  1.2113  0.5100
  408TIP3   OH222714   2.747   6.245   1.861  0.0970  0.2008 -0.2165
  408TIP3    H122715   2.696   6.168   1.885  2.2006 -1.1770 -0.0347
  408TIP3    H222716   2.794   6.219   1.782 -0.4618  1.8977 -1.1294
  409TIP3   OH222717   1.422   3.884   2.803 -0.3747  0.4248 -0.7180
  409TIP3    H122718   1.348   3.900   2.863  1.0710 -0.7271  1.4428
  409TIP3    H222719   1.402   3.799   2.765 -0.3803  0.3102 -0.4628
  410TIP3   OH222720   2.090   3.491   0.051 -0.5687 -0.0247 -0.3066
  410TIP3    H122721   2.085   3.534   0.136 -1.3874 -0.2654 -0.2262
  410TIP3    H222722   2.001   3.459   0.035 -0.4128 -0.0165 -1.2338
  411TIP3   OH222723   5.696   0.960   0.001 -0.9427 -0.3795 -0.3747
  411TIP3    H122724   5.730   0.949  -0.088 -1.3429 -1.3485 -0.4113
  411TIP3    H222725   5.678   0.871   0.031  1.1888 -0.2497  1.4596
  412TIP3   OH222726   3.998   2.324   1.960 -0.0103 -0.8748  0.6920
  412TIP3    H122727   4.055   2.248   1.974  0.5025 -0.4382  0.9548
  412TIP3    H222728   3.916   2.300   2.004  0.2347 -1.1702  0.9894
  413TIP3   OH222729   5.644   4.723   6.042 -0.9649  0.4934  0.2960
  413TIP3    H122730   5.736   4.724   6.018 -0.9952  1.4944  0.2295
  413TIP3    H222731   5.616   4.633   6.026 -0.1423  0.3297 -0.2048
  414TIP3   OH222732   5.427   0.722  11.717 -0.2538  0.1149  0.0582
  414TIP3    H122733   5.486   0.749  11.788  0.6340 -1.8835  0.0905
  414TIP3    H222734   5.345   0.770  11.735  0.6755  1.3400  1.1556
  415TIP3   OH222735   0.560   5.150   0.161 -0.1101  0.2796  0.1222
  415TIP3    H122736   0.504   5.121   0.090 -0.9494  2.2412 -0.0559
  415TIP3    H222737   0.506   5.143   0.240 -0.4225  1.5520  0.0404
  416TIP3   OH222738   3.052   4.799   3.440 -0.0123  0.3721 -1.0551
  416TIP3    H122739   2.962   4.791   3.408  0.2154  3.3607 -2.6773
  416TIP3    H222740   3.096   4.719   3.410 -2.0811 -1.0290 -0.3763
  417TIP3   OH222741   5.731   4.932   2.757 -0.3135 -0.2638  0.0820
  417TIP3    H122742   5.780   4.871   2.812 -1.3243  0.2209  1.5538
  417TIP3    H222743   5.780   4.936   2.675  1.9164 -0.0418  1.4080
  418TIP3   OH222744   0.627   4.732   0.529 -0.2215 -0.1523 -0.3851
  418TIP3    H122745   0.583   4.763   0.608 -0.6834 -2.0584  0.1504
  418TIP3    H222746   0.556   4.699   0.474  0.2791 -0.7194 -0.6953
  419TIP3   OH222747   4.967   1.989   4.442  0.2279  0.7104  0.4431
  419TIP3    H122748   4.973   1.978   4.537 -2.0762  0.4751  0.5869
  419TIP3    H222749   4.964   1.900   4.407  1.1738  0.7951  0.1275
  420TIP3   OH222750   6.265   0.479  11.670 -0.7863  0.1968  0.0398
  420TIP3    H122751   6.203   0.433  11.613 -0.5286 -0.7188  0.4880
  420TIP3    H222752   6.349   0.474  11.623 -1.0967  1.6544 -0.6826
  421TIP3   OH222753   1.176   5.902  13.355 -0.1762 -0.1768  0.2443
  421TIP3    H122754   1.224   5.985  13.353  0.6052 -0.6200  0.0959
  421TIP3    H222755   1.245   5.835  13.348 -0.8691 -0.8131 -0.5800
  422TIP3   OH222756   1.682   1.521  12.090 -0.6587  0.0821  0.8868
  422TIP3    H122757   1.739   1.461  12.043 -2.4702 -0.3469 -0.8443
  422TIP3    H222758   1.631   1.465  12.149 -1.3803  0.0747  0.2644
  423TIP3   OH222759   3.275   5.429  12.089  0.0841 -0.0338 -0.4521
  423TIP3    H122760   3.309   5.359  12.032  1.1159 -0.6377  0.8880
  423TIP3    H222761   3.321   5.508  12.060  0.9253 -0.4219 -0.1793
  424TIP3   OH222762   2.125   1.294  14.456 -0.5425  0.0983 -0.5767
  424TIP3    H122763   2.132   1.310  14.551 -0.3539 -0.6229 -0.4671
  424TIP3    H222764   2.077   1.370  14.423  0.8546  1.1912 -0.1582
  425TIP3   OH222765   6.327   6.803   4.339  0.1633  0.3597 -0.2779
  425TIP3    H122766   6.295   6.755   4.263 -1.2903  1.3167 -0.3087
  425TIP3    H222767   6.407   6.845   4.309  0.2959 -0.3292 -0.8900
  426TIP3   OH222768   0.820   5.912  11.341  0.2177  0.4484  0.3720
  426TIP3    H122769   0.746   5.878  11.290 -1.3007  0.6324  2.3809
  426TIP3    H222770   0.887   5.931  11.276 -2.9111  4.0607 -2.0348
  427TIP3   OH222771   6.661   6.735   4.510 -0.2200 -0.4630  0.1348
  427TIP3    H122772   6.598   6.710   4.577  0.1187 -2.9402 -0.4243
  427TIP3    H222773   6.699   6.817   4.542 -2.4142  0.1173  1.3442
  428TIP3   OH222774   3.822   0.197  14.769  0.2937  0.0714 -0.8223
  428TIP3    H122775   3.736   0.199  14.811  0.5583 -0.8055 -0.2268
  428TIP3    H222776   3.823   0.115  14.720  1.1869 -0.4338  0.0249
  429TIP3   OH222777   0.683   2.854  14.914 -0.3573 -0.3471  0.6289
  429TIP3    H122778   0.731   2.774  14.896 -0.1966 -0.2379  0.5698
  429TIP3    H222779   0.676   2.857  15.010  0.3647 -0.0103  0.6798
  430TIP3   OH222780   1.330   3.038   3.832  0.0350  0.4765 -0.3540
  430TIP3    H122781   1.352   2.960   3.882 -1.4550  0.2114 -0.0897
  430TIP3    H222782   1.321   3.008   3.742 -1.9124  0.0678 -0.0374
  431TIP3   OH222783   4.787   2.135  16.992  0.0538 -0.0357  0.6343
  431TIP3    H122784   4.843   2.063  16.963 -1.7742 -1.2853  0.1290
  431TIP3    H222785   4.759   2.110  17.080 -1.0742 -0.2677  0.2268
  432TIP3   OH222786   2.706   3.354  12.872 -0.0108  0.2705 -0.0034
  432TIP3    H122787   2.668   3.280  12.921 -0.6688  0.7828  0.2638
  432TIP3    H222788   2.653   3.358  12.792 -0.0129  0.4942  0.0108
  433TIP3   OH222789   3.039   3.039   3.665  0.0228 -0.1285  0.1902
  433TIP3    H122790   2.986   3.001   3.735  0.6773  0.6505  1.1112
  433TIP3    H222791   2.977   3.089   3.612 -0.0583  1.4166  1.7040
  434TIP3   OH222792   3.139   5.535  16.097  0.2327  0.2643  0.0954
  434TIP3    H122793   3.151   5.445  16.066 -1.9985  0.6121 -1.9257
  434TIP3    H222794   3.220   5.580  16.071  0.7080 -0.7761 -0.2668
  435TIP3   OH222795   1.893   6.815  15.630 -0.0652  0.4092  0.0583
  435TIP3    H122796   1.884   6.720  15.633 -1.3638  0.5290  0.2826
  435TIP3    H222797   1.804   6.848  15.643  0.7198  1.6966  2.5370
  436TIP3   OH222798   6.795   4.987  15.985  0.0876 -0.8727  0.3137
  436TIP3    H122799   6.852   4.971  16.060  2.5684  1.5979 -0.9590
  436TIP3    H222800   6.842   4.949  15.911  0.3160  1.5536 -0.8206
  437TIP3   OH222801   0.063   3.579  14.950  0.0977 -0.0115  0.2926
  437TIP3    H122802   0.044   3.594  15.043 -0.7390 -0.2760  0.1767
  437TIP3    H222803   0.037   3.488  14.936  0.2912  0.0074 -0.1819
  438TIP3   OH222804   6.672   0.535   2.898 -0.7817 -0.6215 -0.7867
  438TIP3    H122805   6.657   0.621   2.937  3.1686  0.2668 -1.0734
  438TIP3    H222806   6.649   0.547   2.806 -0.2885  0.1197 -0.8184
  439TIP3   OH222807   1.564   1.165  12.931  0.8042 -0.1312 -0.0118
  439TIP3    H122808   1.580   1.200  12.843  0.2480 -1.2142 -0.5469
  439TIP3    H222809   1.632   1.100  12.944  2.1589  1.4692  1.1932
  440TIP3   OH222810   2.195   0.688  12.281 -0.1518  0.2475 -0.2996
  440TIP3    H122811   2.258   0.717  12.215  0.8440  0.2876  0.6543
  440TIP3    H222812   2.177   0.766  12.332 -0.2026  0.0019  0.0570
  441TIP3   OH222813   6.106   2.374  12.436  0.4303  0.5529  0.1921
  441TIP3    H122814   6.155   2.379  12.354 -0.5648  1.2541 -0.3712
  441TIP3    H222815   6.145   2.440  12.492  0.5218  0.6913 -0.0367
  442TIP3   OH222816   0.745   5.004  13.778 -0.4764 -0.3978 -0.2328
  442TIP3    H122817   0.821   4.994  13.720 -0.2869 -1.2670  0.1736
  442TIP3    H222818   0.736   5.099  13.788  1.5674 -0.3284  1.0667
  443TIP3   OH222819   6.681   3.824  14.237  0.4027 -0.4646 -0.4206
  443TIP3    H122820   6.640   3.780  14.312 -2.6577  0.2455 -1.6152
  443TIP3    H222821   6.709   3.908  14.271 -1.3180  0.0115 -0.1165
  444TIP3   OH222822   0.061   2.472  14.425  0.1170 -0.3649 -0.2574
  444TIP3    H122823   0.101   2.512  14.347 -0.5886  0.9932  0.0657
  444TIP3    H222824   0.125   2.485  14.494  0.7614 -1.6063 -0.5985
  445TIP3   OH222825   6.285   0.519   6.160  0.0140  0.2320  0.2132
  445TIP3    H122826   6.346   0.463   6.207  1.3126  0.6670 -0.9223
  445TIP3    H222827   6.320   0.608   6.170 -1.3944  0.7131  1.0319
  446TIP3   OH222828   1.778   3.022  15.935 -0.8514  0.0031 -0.2205
  446TIP3    H122829   1.814   2.996  16.020  0.0659 -0.6891 -0.8094
  446TIP3    H222830   1.723   2.949  15.909 -0.8206  0.0441 -0.4023
  447TIP3   OH222831   5.093   4.537   3.372 -0.5189  0.5611  0.0437
  447TIP3    H122832   5.173   4.544   3.424 -0.0372 -0.5306 -0.5378
  447TIP3    H222833   5.119   4.487   3.295 -1.1860  2.3336 -1.3447
  448TIP3   OH222834   4.879   3.713   3.030 -0.3830  0.0715 -0.0743
  448TIP3    H122835   4.785   3.700   3.047 -0.1212  0.1264  1.5028
  448TIP3    H222836   4.895   3.804   3.056 -0.3061  0.7188 -2.2985
  449TIP3   OH222837   5.505   5.010  12.953 -0.2693 -0.4556  0.0339
  449TIP3    H122838   5.575   4.944  12.958 -1.3719 -1.7201 -0.9232
  449TIP3    H222839   5.433   4.972  13.003 -0.2460  0.9254  1.1629
  450TIP3   OH222840   0.836   6.670   5.184 -0.2865  0.0408 -0.1853
  450TIP3    H122841   0.816   6.649   5.275 -1.7392  0.9686 -0.2873
  450TIP3    H222842   0.916   6.722   5.188 -0.1621 -0.2076  0.5364
  451TIP3   OH222843   5.226   1.396  15.295  0.4965 -0.7051  0.0892
  451TIP3    H122844   5.176   1.318  15.320 -1.5652  0.6163  0.2597
  451TIP3    H222845   5.246   1.383  15.202 -1.3328 -0.6780 -0.3286
  452TIP3   OH222846   2.881   2.836   2.443 -0.3296 -0.1804 -0.3887
  452TIP3    H122847   2.859   2.889   2.366 -0.7087  0.0673 -0.1155
  452TIP3    H222848   2.966   2.868   2.472 -0.7589  0.5974  0.0399
  453TIP3   OH222849   1.324   1.058  16.091 -0.1120 -0.1703 -0.3339
  453TIP3    H122850   1.243   1.029  16.048  0.7425  0.3945 -2.4031
  453TIP3    H222851   1.390   0.995  16.061  0.1515 -0.8945  1.6936
  454TIP3   OH222852   2.192   4.756   5.963 -0.1797  0.1862  0.7389
  454TIP3    H122853   2.166   4.774   5.873 -0.7146 -0.7466  0.6942
  454TIP3    H222854   2.284   4.732   5.958  0.1464  1.4512  0.6164
  455TIP3   OH222855   5.810   5.377  10.631 -0.3096  0.2537  0.3835
  455TIP3    H122856   5.726   5.382  10.586  0.0685 -0.5875 -0.4326
  455TIP3    H222857   5.873   5.416  10.571 -0.5225  3.3736  2.1166
  456TIP3   OH222858   5.511   0.268   4.029  0.3288  0.5424 -0.3712
  456TIP3    H122859   5.519   0.343   4.088 -0.2374  0.0151  0.3702
  456TIP3    H222860   5.569   0.202   4.066 -0.4931 -0.0092 -0.0691
  457TIP3   OH222861   5.797   0.764  14.731 -0.0528  0.9102 -0.1453
  457TIP3    H122862   5.841   0.792  14.651 -0.1382  0.5658 -0.3130
  457TIP3    H222863   5.788   0.844  14.783  1.9558  0.7545  0.4744
  458TIP3   OH222864   0.380   3.009   4.637 -0.1102  0.0197 -0.2272
  458TIP3    H122865   0.368   2.956   4.716  0.1702  0.4312  0.0878
  458TIP3    H222866   0.396   3.097   4.669 -0.1239  0.2124 -0.7487
  459TIP3   OH222867   6.726   3.225   3.758  0.4272 -0.7444 -0.0661
  459TIP3    H122868   6.679   3.151   3.719 -0.3718 -0.6129  0.6267
  459TIP3    H222869   6.729   3.206   3.851 -0.9702  0.7222  0.3092
  460TIP3   OH222870   2.701   3.265   2.145  0.4454 -0.2514  0.2725
  460TIP3    H122871   2.689   3.323   2.069 -0.2932  0.8516  1.2122
  460TIP3    H222872   2.756   3.315   2.205  0.1973 -0.7131  0.8905
  461TIP3   OH222873   1.943   3.413  14.324 -0.1878 -0.6402 -0.0073
  461TIP3    H122874   1.851   3.414  14.353 -0.1384  0.6596  0.1169
  461TIP3    H222875   1.951   3.490  14.268  0.9410 -0.5121  0.3274
  462TIP3   OH222876   2.337   5.770   1.316 -0.0402 -0.0287  0.6754
  462TIP3    H122877   2.411   5.758   1.257 -0.4627  0.5422  0.0266
  462TIP3    H222878   2.262   5.736   1.267 -0.0430 -1.6940  1.7797
  463TIP3   OH222879   2.873   4.188  12.620 -0.3894 -0.1841  0.0241
  463TIP3    H122880   2.919   4.265  12.655 -0.6829  0.7028 -1.4682
  463TIP3    H222881   2.927   4.161  12.545 -0.5392 -1.1617  0.2639
  464TIP3   OH222882   3.740   0.510  14.132  0.0497 -0.4618 -0.0316
  464TIP3    H122883   3.830   0.542  14.132  0.2983 -1.1616  0.9504
  464TIP3    H222884   3.700   0.553  14.207 -0.1476 -0.9793  0.1562
  465TIP3   OH222885   4.808   3.903  17.186  0.2773 -0.2906  0.4343
  465TIP3    H122886   4.736   3.948  17.143  1.8646  0.7013 -1.2943
  465TIP3    H222887   4.842   3.966  17.249  0.0424 -0.5227  0.7937
  466TIP3   OH222888   0.289   2.534   4.215 -0.0211 -0.6912 -0.1246
  466TIP3    H122889   0.237   2.558   4.291  0.2075 -0.7995  0.0654
  466TIP3    H222890   0.327   2.617   4.184 -0.5711 -0.5632 -0.4588
  467TIP3   OH222891   3.421   2.466  14.018 -0.8253 -0.3224  0.2643
  467TIP3    H122892   3.360   2.517  14.070 -1.0820  0.2020 -0.5410
  467TIP3    H222893   3.371   2.442  13.939  0.4850  1.5431 -1.1920
  468TIP3   OH222894   3.074   5.880   2.366 -0.0828  0.4924 -0.3046
  468TIP3    H122895   3.147   5.831   2.405  0.1998  0.4467 -0.8769
  468TIP3    H222896   2.996   5.827   2.385 -0.0229  0.7616  0.6901
  469TIP3   OH222897   4.821   5.214   1.544  0.0591  0.1975  0.6574
  469TIP3    H122898   4.840   5.232   1.637 -0.1445 -0.0450  0.7442
  469TIP3    H222899   4.758   5.142   1.546 -0.9945  1.0999  0.3663
  470TIP3   OH222900   2.524   6.263  15.514  0.2956  0.0131  0.3725
  470TIP3    H122901   2.510   6.201  15.585 -1.4314  0.1208  0.1410
  470TIP3    H222902   2.575   6.334  15.553 -1.7364  0.6853  1.8361
  471TIP3   OH222903   0.791   4.647   5.857  0.2850  0.3896 -0.2694
  471TIP3    H122904   0.779   4.741   5.874  0.7152  0.5118 -0.6341
  471TIP3    H222905   0.877   4.641   5.817 -0.1806 -0.0502 -1.2081
  472TIP3   OH222906   5.484   3.016   4.328  0.5215 -0.2312 -0.1083
  472TIP3    H122907   5.453   3.033   4.239  1.9854  2.3694 -0.1626
  472TIP3    H222908   5.460   2.925   4.344 -1.1099 -0.2940 -2.6006
  473TIP3   OH222909   6.759   0.606  12.335 -0.1940  0.4702 -0.1434
  473TIP3    H122910   6.680   0.658  12.348  0.2889  1.1524  0.1099
  473TIP3    H222911   6.732   0.516  12.352 -0.4210  0.9212  2.0847
  474TIP3   OH222912   5.557   0.756  11.286  0.2108 -0.4200  0.3182
  474TIP3    H122913   5.519   0.707  11.213 -0.4127  0.1926  0.2260
  474TIP3    H222914   5.611   0.692  11.332  1.9818 -0.3970 -1.6606
  475TIP3   OH222915   4.927   0.628   0.479 -0.3046  0.4717 -0.1068
  475TIP3    H122916   5.007   0.676   0.501  0.1548 -0.1798 -0.3318
  475TIP3    H222917   4.943   0.539   0.511 -0.2966 -0.0636 -1.5509
  476TIP3   OH222918   5.982   4.773   1.007  0.2054  0.0425  0.0504
  476TIP3    H122919   6.027   4.847   0.966 -0.2672 -0.0158 -0.5790
  476TIP3    H222920   6.014   4.773   1.098  1.1845  0.2292 -0.2887
  477TIP3   OH222921   1.695   2.778  11.569  0.1183  0.6900  0.0820
  477TIP3    H122922   1.609   2.748  11.597  0.4759 -0.1074  0.3518
  477TIP3    H222923   1.752   2.702  11.582  0.5965  0.7907 -1.3422
  478TIP3   OH222924   2.071   6.108   6.096 -0.1598 -0.3830  0.9773
  478TIP3    H122925   1.999   6.171   6.105  1.4680  1.4035  1.7707
  478TIP3    H222926   2.032   6.024   6.119 -2.1483  0.4590  0.8096
  479TIP3   OH222927   4.147   0.360  17.208 -0.3878 -0.2116 -0.0995
  479TIP3    H122928   4.208   0.424  17.243 -1.3537  0.0337  1.1728
  479TIP3    H222929   4.061   0.392  17.235 -0.9359 -1.6442 -0.1053
  480TIP3   OH222930   0.033   5.934   0.492 -0.5130  0.0228 -0.1525
  480TIP3    H122931   0.058   6.015   0.446  1.5191  0.1388  1.1314
  480TIP3    H222932   0.113   5.905   0.535 -1.7363 -1.5792  1.0825
  481TIP3   OH222933   4.555   1.220  16.670 -0.0338 -0.1826 -0.2471
  481TIP3    H122934   4.466   1.188  16.688 -0.2783  0.5380 -0.1335
  481TIP3    H222935   4.541   1.306  16.630  0.6492  0.5033  0.9745
  482TIP3   OH222936   3.189   3.460  13.337 -0.9405 -0.4730 -0.4018
  482TIP3    H122937   3.194   3.544  13.381 -1.0425 -1.1909  1.0170
  482TIP3    H222938   3.127   3.473  13.266  2.1591  1.7761 -2.8031
  483TIP3   OH222939   4.309   0.868   3.680 -0.3348 -0.3584  0.7546
  483TIP3    H122940   4.296   0.915   3.763 -0.2473 -0.0028  0.5649
  483TIP3    H222941   4.254   0.790   3.689  0.9311 -1.1564  1.8092
  484TIP3   OH222942   4.482   6.305  11.894  0.0723 -0.1281 -0.0329
  484TIP3    H122943   4.491   6.301  11.799 -1.1833  2.4854 -0.3050
  484TIP3    H222944   4.409   6.365  11.909  0.3916 -0.3356  2.5888
  485TIP3   OH222945   5.599   4.646  13.514 -1.2107  0.4887  0.6862
  485TIP3    H122946   5.679   4.594  13.517 -1.2627  0.4131  0.7824
  485TIP3    H222947   5.557   4.620  13.432 -1.2162  0.4080  0.7155
  486TIP3   OH222948   3.640   4.784  15.286  0.3777  0.1759  0.0053
  486TIP3    H122949   3.584   4.853  15.252 -0.3593  0.7860  2.3746
  486TIP3    H222950   3.588   4.742  15.355  2.1118 -0.4791  0.9505
  487TIP3   OH222951   0.897   2.332  14.926 -0.0150  0.3731 -0.1935
  487TIP3    H122952   0.885   2.238  14.941 -0.2529  0.4841  0.3105
  487TIP3    H222953   0.984   2.351  14.962 -0.7758  0.7313  1.5007
  488TIP3   OH222954   5.733   2.776   4.376  0.4833  0.2085  0.9417
  488TIP3    H122955   5.694   2.834   4.309  0.5411 -0.7585  0.0530
  488TIP3    H222956   5.708   2.688   4.348  2.0555 -0.3250  1.2030
  489TIP3   OH222957   3.002   2.175   4.025  0.0458  0.0128 -0.1113
  489TIP3    H122958   3.053   2.173   4.106 -0.4094 -0.5573  0.1627
  489TIP3    H222959   3.022   2.260   3.987 -0.5678  0.7193  1.1269
  490TIP3   OH222960   4.476   3.073   0.384 -0.5220 -0.5734  0.2959
  490TIP3    H122961   4.504   3.095   0.294  1.2602 -1.0031  0.7252
  490TIP3    H222962   4.382   3.091   0.384 -0.3931  0.3022 -1.4063
  491TIP3   OH222963   5.289   2.125  12.958 -0.1277  0.5207  0.5522
  491TIP3    H122964   5.248   2.060  12.900 -0.5778  1.5646 -0.3103
  491TIP3    H222965   5.216   2.161  13.008  0.1154  0.4122  0.9878
  492TIP3   OH222966   6.244   6.721   2.510  0.5053 -0.1504  0.3989
  492TIP3    H122967   6.281   6.726   2.598  2.4675 -1.8817 -0.2834
  492TIP3    H222968   6.176   6.654   2.516  1.3140 -0.9803  0.3868
  493TIP3   OH222969   6.537   3.269  11.636 -0.4842  0.4260  0.7545
  493TIP3    H122970   6.550   3.325  11.559 -0.1263 -0.7335 -0.0469
  493TIP3    H222971   6.478   3.319  11.692  1.6082  2.6086  1.1120
  494TIP3   OH222972   6.207   6.538   5.620 -0.2973  0.0956 -0.3126
  494TIP3    H122973   6.282   6.480   5.609  0.2771  0.4849  1.4035
  494TIP3    H222974   6.238   6.607   5.678 -1.8479  0.5111  0.0527
  495TIP3   OH222975   3.571   0.900  13.703  0.7696  0.8008 -0.0990
  495TIP3    H122976   3.573   0.904  13.608  0.7241  0.1790 -0.1243
  495TIP3    H222977   3.646   0.953  13.731  0.1375  1.9048 -0.4484
  496TIP3   OH222978   3.353   0.130   5.079 -1.1477 -0.0430 -0.2585
  496TIP3    H122979   3.275   0.168   5.119 -0.1766  1.4608  0.3037
  496TIP3    H222980   3.407   0.103   5.154 -0.6585 -0.0376 -0.6041
  497TIP3   OH222981   3.252   0.823   4.330 -0.1783  0.1700  0.0496
  497TIP3    H122982   3.280   0.847   4.242  0.5442  0.2775  0.3042
  497TIP3    H222983   3.274   0.730   4.337  0.3610  0.3145  0.3382
  498TIP3   OH222984   0.740   4.510   0.686  0.2888  0.4086 -0.5080
  498TIP3    H122985   0.754   4.591   0.637 -0.4592  0.0619 -1.3132
  498TIP3    H222986   0.709   4.447   0.620  1.3904 -0.6839  0.0010
  499TIP3   OH222987   6.667   5.799  16.498 -0.2046 -0.3048  0.1089
  499TIP3    H122988   6.703   5.888  16.496 -0.3638 -0.2482 -0.3519
  499TIP3    H222989   6.622   5.790  16.414 -0.8178 -0.5602  0.4622
  500TIP3   OH222990   0.529   6.338  13.552  0.1978  0.8219 -0.3000
  500TIP3    H122991   0.620   6.315  13.570  0.0827  0.7719  0.2318
  500TIP3    H222992   0.498   6.377  13.633  0.0227  1.7194 -0.7903
  501TIP3   OH222993   3.848   3.976   1.602 -0.2845 -0.3906 -0.1556
  501TIP3    H122994   3.909   4.027   1.550 -0.8065  0.7884  0.3793
  501TIP3    H222995   3.790   4.041   1.642  1.8589 -0.9630  4.1889
  502TIP3   OH222996   2.976   5.848  14.203 -0.1947 -0.4230 -0.5279
  502TIP3    H122997   3.021   5.892  14.131  0.3650  0.9113  0.6262
  502TIP3    H222998   3.017   5.761  14.207 -0.3319 -0.5724 -1.8959
  503TIP3   OH222999   6.389   2.054  16.846  0.0774 -0.1836 -0.7264
  503TIP3    H123000   6.348   2.106  16.915 -2.8506 -0.3503 -2.2390
  503TIP3    H223001   6.335   1.976  16.838  2.5794 -1.9981 -0.6605
  504TIP3   OH223002   4.318   5.936  11.009 -0.1758 -0.2827  0.3881
  504TIP3    H123003   4.269   5.865  10.968  0.9092 -0.1999 -1.0968
  504TIP3    H223004   4.342   5.994  10.937  2.7514 -0.7045  0.9460
  505TIP3   OH223005   5.350   6.209  12.742  0.1341 -0.3066 -0.8255
  505TIP3    H123006   5.396   6.225  12.825 -0.9884 -1.0044 -0.0654
  505TIP3    H223007   5.341   6.296  12.703 -0.4940  0.1967  0.4149
  506TIP3   OH223008   1.416   6.183  14.178  0.0754  0.4442 -0.3211
  506TIP3    H123009   1.481   6.155  14.244 -1.2674  0.8975  1.2187
  506TIP3    H223010   1.442   6.136  14.099  2.3099  0.6374  0.2610
  507TIP3   OH223011   6.227   1.495  12.510  0.1723  0.3162  0.1083
  507TIP3    H123012   6.269   1.440  12.444 -1.2084  0.4180 -0.8773
  507TIP3    H223013   6.239   1.446  12.592  3.4243  1.0277  0.1379
  508TIP3   OH223014   6.539   3.230  14.260  0.1789  0.6076  0.2292
  508TIP3    H123015   6.451   3.247  14.295  0.9095  2.5686  1.1344
  508TIP3    H223016   6.594   3.298  14.297  2.2210 -0.8995  0.0718
  509TIP3   OH223017   3.875   3.380   5.522  0.2096  0.0018  0.6537
  509TIP3    H123018   3.946   3.444   5.526 -0.8780  1.2503  0.4340
  509TIP3    H223019   3.882   3.331   5.604  2.1297 -0.7944  0.0543
  510TIP3   OH223020   2.710   4.977  11.611  0.1885  0.2886  0.2170
  510TIP3    H123021   2.754   5.026  11.542 -0.1777 -1.2543 -1.1637
  510TIP3    H223022   2.659   5.042  11.658  0.3757  1.3641 -1.0291
  511TIP3   OH223023   5.425   0.992  14.268 -0.0183 -0.0245  0.3125
  511TIP3    H123024   5.336   0.975  14.236 -0.5811  0.5939  1.4935
  511TIP3    H223025   5.460   1.058  14.209 -0.6767  0.3746  0.3558
  512TIP3   OH223026   1.865   3.728   4.461 -0.9514 -0.3591  0.6945
  512TIP3    H123027   1.893   3.813   4.495 -0.1129 -0.2257 -0.3328
  512TIP3    H223028   1.856   3.741   4.367 -1.6346 -1.1926  0.6325
  513TIP3   OH223029   4.049   5.056   0.772  0.1684  0.0344  0.1853
  513TIP3    H123030   4.006   5.036   0.855 -0.6743  2.9086  0.4946
  513TIP3    H223031   4.006   5.000   0.708  0.5319 -1.8836  1.6088
  514TIP3   OH223032   1.402   0.022   1.635 -0.0118 -0.1527  0.0104
  514TIP3    H123033   1.395   0.079   1.558  0.5346 -0.6178 -0.3871
  514TIP3    H223034   1.486   0.047   1.675  0.1329 -0.5343 -0.0528
  515TIP3   OH223035   0.434   5.654   4.299 -0.3362  0.3701  0.1521
  515TIP3    H123036   0.347   5.660   4.260 -0.9439  2.2673  1.7490
  515TIP3    H223037   0.442   5.562   4.326 -1.3084 -0.1117 -1.1626
  516TIP3   OH223038   0.691   5.045  11.011 -0.1059  0.0118  0.5518
  516TIP3    H123039   0.733   4.960  11.000 -0.9031 -0.3776  0.4902
  516TIP3    H223040   0.760   5.102  11.046  0.2559 -0.8187  1.1919
  517TIP3   OH223041   0.216   0.604   5.804 -0.0869  0.0819 -0.7719
  517TIP3    H123042   0.213   0.699   5.789 -2.0167  0.1908  0.1696
  517TIP3    H223043   0.137   0.571   5.761 -1.3528 -0.6190  1.9932
  518TIP3   OH223044   3.289   1.096  13.033 -0.8464  0.0407  0.2515
  518TIP3    H123045   3.238   1.016  13.036  0.7543 -1.0308 -0.3252
  518TIP3    H223046   3.380   1.066  13.030 -0.0193  1.8993  3.8631
  519TIP3   OH223047   5.559   1.525  16.676  0.2405  0.1582  0.4723
  519TIP3    H123048   5.592   1.565  16.595  0.5720 -0.1983  0.4342
  519TIP3    H223049   5.521   1.442  16.648 -0.2545  0.3459  0.5870
  520TIP3   OH223050   0.366   2.617  16.354 -0.6694 -0.1221  0.5152
  520TIP3    H123051   0.340   2.689  16.297  0.3739  1.4072  1.9208
  520TIP3    H223052   0.374   2.541  16.296 -1.5916  0.9334 -1.0138
  521TIP3   OH223053   5.029   3.995  15.238  0.6216 -0.3694  0.0954
  521TIP3    H123054   5.077   4.047  15.173 -0.8657  0.2087 -0.5486
  521TIP3    H223055   5.026   3.907  15.200 -0.3904  0.0064 -0.6972
  522TIP3   OH223056   5.812   6.634  13.938  0.4242  0.5496 -0.2293
  522TIP3    H123057   5.900   6.670  13.944  0.5385  0.3691 -0.8155
  522TIP3    H223058   5.806   6.600  13.849 -0.5717  1.4402 -0.5128
  523TIP3   OH223059   2.102   2.846  12.168  0.5122 -0.0483 -0.4886
  523TIP3    H123060   2.118   2.934  12.133 -1.0639 -0.1663 -1.5877
  523TIP3    H223061   2.026   2.857  12.226  0.3623 -0.6521 -0.5643
  524TIP3   OH223062   5.881   2.440   0.488  0.2990 -0.0601  0.2661
  524TIP3    H123063   5.830   2.426   0.567 -2.6918  1.3772 -1.3155
  524TIP3    H223064   5.929   2.521   0.504  0.2212 -0.1329  0.8570
  525TIP3   OH223065   5.629   2.868   4.098 -0.6453 -0.1902  0.3007
  525TIP3    H123066   5.643   2.813   4.021 -0.2323  1.6450 -0.9700
  525TIP3    H223067   5.544   2.910   4.081  0.2115  1.4612  0.0665
  526TIP3   OH223068   2.142   1.233   3.238  0.0614 -0.0683  0.3079
  526TIP3    H123069   2.112   1.228   3.148  0.3628  0.6294  0.1681
  526TIP3    H223070   2.159   1.326   3.254  0.0866 -0.1904  1.0545
  527TIP3   OH223071   4.535   5.389  13.234 -0.0657 -0.3526  0.1746
  527TIP3    H123072   4.465   5.426  13.286 -0.3437 -2.2862  1.2208
  527TIP3    H223073   4.560   5.309  13.280  1.3890 -0.7895 -1.3074
  528TIP3   OH223074   4.777   2.285   5.545 -0.7001 -0.4357 -0.1991
  528TIP3    H123075   4.828   2.283   5.626 -1.9605  0.5205  0.6395
  528TIP3    H223076   4.690   2.254   5.570 -0.8048 -1.1238 -1.4068
  529TIP3   OH223077   5.302   0.451   4.868  0.0803 -0.2135 -0.1787
  529TIP3    H123078   5.231   0.514   4.872  0.8117  0.6269 -0.3905
  529TIP3    H223079   5.335   0.447   4.958 -0.5148 -0.9409  0.0167
  530TIP3   OH223080   1.425   1.356  14.608  0.2065 -0.4775 -0.1620
  530TIP3    H123081   1.333   1.379  14.618  0.2500 -0.5681  0.4371
  530TIP3    H223082   1.427   1.304  14.527 -0.3012 -0.6746 -0.0512
  531TIP3   OH223083   6.387   1.173   1.391  0.1247  0.0188  0.3645
  531TIP3    H123084   6.379   1.078   1.379 -0.7411  0.1197  0.1131
  531TIP3    H223085   6.479   1.187   1.414  0.1344 -0.9387  0.9138
  532TIP3   OH223086   5.320   3.914   3.522 -0.3788  0.3832 -0.7645
  532TIP3    H123087   5.250   3.948   3.467 -0.3806  0.7236 -0.5486
  532TIP3    H223088   5.277   3.886   3.603 -0.2697  0.5557 -0.6470
  533TIP3   OH223089   3.654   6.423  16.618 -0.1516  0.5505  0.0673
  533TIP3    H123090   3.588   6.406  16.551  0.0565 -0.8264  0.1946
  533TIP3    H223091   3.718   6.480  16.575  0.8497 -1.6511 -1.4539
  534TIP3   OH223092   2.355   2.470   2.994  0.5042  0.3188  0.0824
  534TIP3    H123093   2.400   2.479   3.078  1.7780 -0.4931 -0.4934
  534TIP3    H223094   2.272   2.428   3.015  0.4339  0.9120  1.0354
  535TIP3   OH223095   4.521   1.777  12.002  0.1408  0.0467  0.4192
  535TIP3    H123096   4.445   1.719  12.008  1.1569 -1.3074  0.4980
  535TIP3    H223097   4.593   1.727  12.041  0.7518  1.9208  1.7856
  536TIP3   OH223098   2.864   5.037  15.420 -0.2023  0.3053 -0.5487
  536TIP3    H123099   2.771   5.054  15.432 -0.5986 -1.1367 -1.4765
  536TIP3    H223100   2.898   5.116  15.377 -1.5846 -0.3736 -2.9151
  537TIP3   OH223101   5.875   6.481  14.734  0.0330 -0.3017  0.0534
  537TIP3    H123102   5.864   6.475  14.639  0.6154  2.6101 -0.2521
  537TIP3    H223103   5.964   6.448  14.750  0.4065  0.3686 -0.5824
  538TIP3   OH223104   6.799   1.487  12.554 -0.1827 -0.1537  0.5014
  538TIP3    H123105   6.726   1.433  12.585  0.7338 -1.5685  0.2070
  538TIP3    H223106   6.771   1.518  12.468 -0.9782  0.4026  0.9429
  539TIP3   OH223107   6.172   5.991  14.039 -0.4213  0.2656  0.7771
  539TIP3    H123108   6.141   6.078  14.015  0.5904  0.5796  0.5857
  539TIP3    H223109   6.220   5.960  13.961 -1.4568 -0.7937  0.5384
  540TIP3   OH223110   2.385   2.120   5.385 -0.6419 -0.2245  0.8074
  540TIP3    H123111   2.368   2.213   5.370  0.3231 -0.0397  0.8636
  540TIP3    H223112   2.309   2.089   5.435 -1.5169  0.2718 -0.2038
  541TIP3   OH223113   4.643   0.130   1.275  0.2721  0.3566  0.2633
  541TIP3    H123114   4.635   0.137   1.180  0.2582  1.2964  0.3242
  541TIP3    H223115   4.736   0.144   1.293  0.4358 -0.7964  0.3134
  542TIP3   OH223116   4.255   1.478   3.219 -0.0440  0.1084  0.6443
  542TIP3    H123117   4.222   1.420   3.287  0.4031 -0.6869  0.1845
  542TIP3    H223118   4.226   1.438   3.137 -1.2140  1.4525  0.3831
  543TIP3   OH223119   6.642   3.012   3.265  0.2255  0.1996  0.1990
  543TIP3    H123120   6.620   2.935   3.213 -1.2864 -0.5185  1.8574
  543TIP3    H223121   6.655   3.082   3.201  1.2245 -1.3215 -1.3004
  544TIP3   OH223122   1.403   3.281   1.406  0.0257 -0.1047 -0.2339
  544TIP3    H123123   1.319   3.318   1.432 -0.3747 -1.3120  0.1636
  544TIP3    H223124   1.468   3.341   1.444 -0.5986 -0.3683  1.2822
  545TIP3   OH223125   3.761   0.103   4.452  0.1594 -0.3295  0.3671
  545TIP3    H123126   3.668   0.081   4.460  0.0444 -0.0372 -0.1106
  545TIP3    H223127   3.766   0.196   4.474  0.1756 -0.0843 -0.6509
  546TIP3   OH223128   2.955   4.382  12.849 -0.1544  0.3516  0.7443
  546TIP3    H123129   2.947   4.460  12.794 -0.0767 -1.0823 -1.3599
  546TIP3    H223130   2.866   4.367  12.881 -0.7534 -0.3414 -1.1893
  547TIP3   OH223131   5.817   6.667   1.563  0.0644 -0.2973 -0.8914
  547TIP3    H123132   5.817   6.720   1.642 -0.1731 -1.7327  0.0803
  547TIP3    H223133   5.902   6.684   1.523  0.6176 -0.3672  0.2309
  548TIP3   OH223134   2.744   2.576   5.327 -0.0632 -0.5282 -0.1788
  548TIP3    H123135   2.768   2.614   5.243 -0.1339 -3.3029 -1.5227
  548TIP3    H223136   2.816   2.518   5.349 -1.8813 -2.9572 -0.3948
  549TIP3   OH223137   2.369   6.149  15.313 -0.4364 -0.0839  0.3964
  549TIP3    H123138   2.346   6.210  15.242  0.0669  0.0336  0.3280
  549TIP3    H223139   2.427   6.200  15.370 -0.2201 -0.4177  0.4751
  550TIP3   OH223140   0.578   0.879  12.125 -0.1395  0.2987 -0.1292
  550TIP3    H123141   0.672   0.860  12.135 -0.3045 -0.6812 -0.3798
  550TIP3    H223142   0.570   0.913  12.036 -0.0853 -0.0771 -0.2815
  551TIP3   OH223143   1.450   0.273  11.381  0.1168  0.1406  0.1091
  551TIP3    H123144   1.393   0.274  11.305  0.9927 -0.1655 -0.5529
  551TIP3    H223145   1.390   0.258  11.455 -0.8208  1.1598 -0.4190
  552TIP3   OH223146   6.184   2.354  13.077 -0.7327 -0.1407  0.5366
  552TIP3    H123147   6.165   2.411  13.152 -1.9383 -2.3743  1.9931
  552TIP3    H223148   6.279   2.352  13.071 -0.6114 -0.3292  2.3357
  553TIP3   OH223149   6.458   5.289  12.523  0.2758 -0.1149 -0.4510
  553TIP3    H123150   6.365   5.310  12.535 -0.1979 -1.8841 -0.8709
  553TIP3    H223151   6.498   5.311  12.607 -0.6839 -0.1567  0.0317
  554TIP3   OH223152   3.946   5.456   4.649  0.1829 -0.5934  0.3634
  554TIP3    H123153   3.938   5.551   4.638  1.0213 -0.7233 -1.6692
  554TIP3    H223154   3.865   5.421   4.613  0.7401 -0.7405 -0.7788
  555TIP3   OH223155   1.574   1.729   0.167  0.0864  0.1150  0.3312
  555TIP3    H123156   1.668   1.738   0.147  0.0004 -0.7760 -0.5461
  555TIP3    H223157   1.532   1.796   0.113  0.0425 -0.9317 -0.9842
  556TIP3   OH223158   1.303   4.561   0.519  0.4037 -0.7447  0.0319
  556TIP3    H123159   1.219   4.515   0.522  0.0041 -0.0723 -0.5901
  556TIP3    H223160   1.337   4.555   0.608 -1.2225  0.6530  0.7800
  557TIP3   OH223161   1.229   5.817  14.135  0.2252  0.0037  0.2340
  557TIP3    H123162   1.292   5.850  14.199  0.1972  0.5708 -0.0338
  557TIP3    H223163   1.184   5.746  14.181 -0.7141  1.2664  1.3141
  558TIP3   OH223164   5.374   1.606   1.024  1.0822  0.2872 -0.1678
  558TIP3    H123165   5.462   1.589   1.058  0.5376 -1.1468  0.5565
  558TIP3    H223166   5.320   1.620   1.101  0.3421 -0.4806 -0.5432
  559TIP3   OH223167   3.791   6.070  16.571 -0.5411  0.0816  0.5567
  559TIP3    H123168   3.802   6.079  16.476 -1.1854 -1.6122  0.2887
  559TIP3    H223169   3.738   6.145  16.596 -0.4258  0.5090 -0.4381
  560TIP3   OH223170   1.726   2.543   5.844  0.4560 -0.3049  0.1915
  560TIP3    H123171   1.805   2.519   5.892  1.2073  0.0557 -0.8703
  560TIP3    H223172   1.681   2.460   5.828 -0.2478 -0.3613  2.2708
  561TIP3   OH223173   1.251   1.095  16.639 -0.1008  0.2772 -1.0639
  561TIP3    H123174   1.164   1.136  16.641 -1.6382 -2.8207 -0.8079
  561TIP3    H223175   1.275   1.094  16.546 -0.8822  0.0607 -1.2685
  562TIP3   OH223176   4.688   6.485   0.303 -0.6874  0.3032 -0.0390
  562TIP3    H123177   4.646   6.420   0.359  0.4024 -1.6640 -1.4281
  562TIP3    H223178   4.762   6.517   0.354  0.4182 -1.6216 -0.3926
  563TIP3   OH223179   5.624   4.091   1.077  0.4591 -0.0243 -0.0706
  563TIP3    H123180   5.693   4.074   1.013  2.5648 -1.0154  2.4062
  563TIP3    H223181   5.665   4.149   1.141 -1.7661  1.3354  0.1535
  564TIP3   OH223182   6.448   0.633   5.254  0.1415 -0.0747  0.2493
  564TIP3    H123183   6.378   0.684   5.213  0.8232  1.4895  0.9941
  564TIP3    H223184   6.485   0.581   5.183 -1.4785 -0.6021 -0.2454
  565TIP3   OH223185   4.202   5.447   4.776 -0.4965  0.2923  0.6718
  565TIP3    H123186   4.119   5.479   4.740 -0.0771  0.8082  0.1501
  565TIP3    H223187   4.250   5.526   4.801 -0.7287 -0.0542  2.2729
  566TIP3   OH223188   4.911   3.053  12.990 -0.0869  0.5321 -0.2506
  566TIP3    H123189   4.863   3.074  12.910 -0.4811  0.8596  0.0752
  566TIP3    H223190   4.999   3.088  12.974  0.0359 -0.0094 -0.8165
  567TIP3   OH223191   2.402   0.282  14.923 -0.3408 -0.2029 -0.0782
  567TIP3    H123192   2.418   0.371  14.954 -0.1483  0.1432 -1.1414
  567TIP3    H223193   2.481   0.259  14.874  0.7310 -1.9389  2.3361
  568TIP3   OH223194   2.791   5.367  13.161  0.1308 -0.7116  0.4084
  568TIP3    H123195   2.801   5.404  13.249  0.3379 -1.0586  0.5347
  568TIP3    H223196   2.744   5.285  13.175 -0.4276 -0.4401  0.1206
  569TIP3   OH223197   3.541   6.306   5.773  0.2744 -0.1425  0.3014
  569TIP3    H123198   3.611   6.370   5.787  0.4075 -0.2890  0.2999
  569TIP3    H223199   3.470   6.336   5.829  0.6095 -0.4179  0.8757
  570TIP3   OH223200   4.743   1.631  12.031 -0.2680  0.0231  0.1982
  570TIP3    H123201   4.828   1.654  12.068 -0.8314  0.1443  1.4575
  570TIP3    H223202   4.755   1.543  11.996  0.4920  0.2091 -0.0257
  571TIP3   OH223203   4.571   2.330  13.759 -0.0875  0.1614 -0.2938
  571TIP3    H123204   4.486   2.347  13.798 -1.1984 -0.8496 -2.2025
  571TIP3    H223205   4.605   2.253  13.805 -0.3449  0.3709  0.2446
  572TIP3   OH223206   2.068   2.654   4.628  0.3339 -0.0286 -0.4472
  572TIP3    H123207   1.997   2.627   4.570  0.1783  0.5763 -0.5393
  572TIP3    H223208   2.111   2.726   4.582 -0.6738  1.4221  0.8041
  573TIP3   OH223209   2.530   4.307   5.298  0.1609 -0.4126 -0.3032
  573TIP3    H123210   2.601   4.371   5.304  0.1043 -0.2336 -1.4851
  573TIP3    H223211   2.547   4.260   5.216  0.5835 -2.3680  0.8599
  574TIP3   OH223212   0.703   2.917   4.620  0.3412 -0.3625 -0.3104
  574TIP3    H123213   0.611   2.930   4.644  0.2438  0.8817 -1.3224
  574TIP3    H223214   0.708   2.942   4.528  1.7682 -0.1120 -0.1791
  575TIP3   OH223215   2.878   1.787   3.688 -0.4708  0.3847 -0.2921
  575TIP3    H123216   2.970   1.811   3.677 -0.6865  1.3094 -0.1125
  575TIP3    H223217   2.846   1.847   3.756 -0.8957 -0.7381  0.5124
  576TIP3   OH223218   1.682   4.307   3.853 -0.4733 -0.0842  0.2418
  576TIP3    H123219   1.725   4.372   3.908  0.2320 -0.9454  0.7163
  576TIP3    H223220   1.703   4.334   3.763  2.2075 -1.2253  0.4746
  577TIP3   OH223221   4.271   1.827  14.138 -0.4734 -0.6201 -1.1270
  577TIP3    H123222   4.303   1.819  14.228 -1.4667 -2.1573 -0.8821
  577TIP3    H223223   4.278   1.920  14.118  1.2321 -0.4972 -0.0145
  578TIP3   OH223224   5.476   0.100  15.139  0.0133  0.6222  0.4107
  578TIP3    H123225   5.569   0.090  15.117 -0.0127 -0.2019  0.6512
  578TIP3    H223226   5.476   0.131  15.230  0.0538  0.4104  0.4843
  579TIP3   OH223227   0.179   0.986   4.928  0.2055  0.0973 -0.3961
  579TIP3    H123228   0.268   1.008   4.897  0.3826 -2.2029 -1.6034
  579TIP3    H223229   0.150   0.916   4.870 -0.9187 -1.8351  2.3839
  580TIP3   OH223230   0.835   3.572   1.705  0.3187  0.1032 -0.6104
  580TIP3    H123231   0.899   3.560   1.775 -1.3744  1.8231  1.3066
  580TIP3    H223232   0.773   3.500   1.716  0.3544  0.0556 -0.7132
  581TIP3   OH223233   5.922   6.407   5.555  0.5312  0.3015  0.0810
  581TIP3    H123234   6.007   6.434   5.519  0.3534  1.8807  0.7902
  581TIP3    H223235   5.942   6.373   5.642  0.6005 -0.7088 -0.3221
  582TIP3   OH223236   6.145   5.007   3.306 -0.0879  0.1552  0.0376
  582TIP3    H123237   6.228   5.035   3.346 -0.3485 -0.0209  0.7069
  582TIP3    H223238   6.130   5.071   3.236  0.0633  0.8275  0.6136
  583TIP3   OH223239   5.512   1.475  16.372 -0.1067  0.2515 -0.5115
  583TIP3    H123240   5.545   1.472  16.282  2.7580  1.4663  0.4381
  583TIP3    H223241   5.477   1.563  16.382  0.3928  0.4183 -0.1897
  584TIP3   OH223242   5.622   6.441  14.012  0.0282  0.0118  0.5814
  584TIP3    H123243   5.535   6.480  14.006 -0.1881 -0.4365  0.7290
  584TIP3    H223244   5.683   6.514  14.005 -0.3876  0.5689  2.4093
  585TIP3   OH223245   2.366   3.903   0.379  1.1540 -0.4919 -0.1232
  585TIP3    H123246   2.428   3.964   0.338  1.4492 -0.5914  0.1743
  585TIP3    H223247   2.327   3.856   0.306  1.4644 -0.4612 -0.3086
  586TIP3   OH223248   3.843   3.128   0.126 -0.5224 -0.1496  0.1237
  586TIP3    H123249   3.830   3.199   0.189  0.0883  0.1905 -0.1158
  586TIP3    H223250   3.928   3.148   0.086 -1.0001 -0.2295 -0.9663
  587TIP3   OH223251   3.415   2.014   1.818 -0.5871 -0.1881 -0.6225
  587TIP3    H123252   3.508   2.005   1.795 -1.3171 -0.8830 -3.5870
  587TIP3    H223253   3.402   2.108   1.829  0.5612 -0.1208  0.2113
  588TIP3   OH223254   2.656   1.661  10.872  0.0353  0.3172  0.7056
  588TIP3    H123255   2.570   1.698  10.893 -0.7310 -1.9068  1.6159
  588TIP3    H223256   2.636   1.579  10.826  1.6500 -0.5262  1.4659
  589TIP3   OH223257   1.336   0.189  10.770 -0.1462 -0.6180 -0.5826
  589TIP3    H123258   1.278   0.138  10.827  1.4316 -3.3053 -1.2961
  589TIP3    H223259   1.352   0.132  10.695  1.6115  0.9807 -1.4548
  590TIP3   OH223260   6.342   5.413   0.733 -0.1910  0.1977 -0.2408
  590TIP3    H123261   6.375   5.467   0.805 -0.4797 -2.3349  1.8495
  590TIP3    H223262   6.249   5.436   0.727  0.2693  1.9443 -1.2624
  591TIP3   OH223263   5.077   2.536   0.176 -0.0436 -0.0061 -0.7578
  591TIP3    H123264   5.093   2.516   0.084  2.0737  1.5920 -0.7786
  591TIP3    H223265   5.039   2.624   0.175  1.1726  0.5536 -0.0725
  592TIP3   OH223266   1.721   0.742   2.060  0.5324  0.4223 -0.0536
  592TIP3    H123267   1.731   0.655   2.098  1.1376  0.1522 -0.8123
  592TIP3    H223268   1.738   0.803   2.132 -0.7025 -0.0841  0.6797
  593TIP3   OH223269   2.157   1.959   2.829 -0.3340  0.1487  0.2539
  593TIP3    H123270   2.206   1.887   2.789 -1.6567 -0.8947  0.4918
  593TIP3    H223271   2.108   1.998   2.757 -2.3355 -1.4207  0.7416
  594TIP3   OH223272   3.524   5.752  17.252 -0.2563  0.2647  0.5083
  594TIP3    H123273   3.529   5.738  17.158  1.0293  0.6232  0.5139
  594TIP3    H223274   3.431   5.770  17.269 -0.1668  2.4369 -1.0301
  595TIP3   OH223275   3.937   0.135   0.476 -0.0710 -0.3731 -1.0150
  595TIP3    H123276   3.876   0.207   0.467  0.9754  0.7373  0.6604
  595TIP3    H223277   3.911   0.073   0.407 -0.7045  1.7659 -2.7537
  596TIP3   OH223278   4.461   5.093  16.245 -0.3022 -0.2187  0.1113
  596TIP3    H123279   4.434   5.100  16.336  0.4731 -0.7055  0.3865
  596TIP3    H223280   4.505   5.008  16.239  1.1666  0.5416 -0.3040
  597TIP3   OH223281   5.069   2.791   2.114  0.6149 -0.2221 -0.0486
  597TIP3    H123282   5.070   2.794   2.210  1.4873 -0.2513 -0.0513
  597TIP3    H223283   5.105   2.876   2.087  0.9313 -0.4475 -0.3441
  598TIP3   OH223284   1.977   0.672   1.053 -0.2129 -0.2335  0.0484
  598TIP3    H123285   1.896   0.703   1.091 -0.5126 -3.2781  2.0478
  598TIP3    H223286   2.008   0.604   1.113  2.7071 -0.6184 -1.7713
  599TIP3   OH223287   1.220   0.313  14.407  0.6196 -0.5646 -0.1456
  599TIP3    H123288   1.254   0.251  14.471  1.7319  0.7817  0.6209
  599TIP3    H223289   1.285   0.313  14.336  0.7625 -0.0886 -0.0172
  600TIP3   OH223290   4.345   2.020   3.196  0.5421  0.2638 -0.0130
  600TIP3    H123291   4.328   1.928   3.215  1.5375  0.5366  2.4187
  600TIP3    H223292   4.269   2.066   3.232  0.7831  0.5115  0.1800
  601TIP3   OH223293   3.347   1.392   3.210 -0.0946  0.1628 -0.1985
  601TIP3    H123294   3.372   1.399   3.118  0.1104  2.5590  0.0010
  601TIP3    H223295   3.405   1.326   3.247  1.2197  0.6797 -1.3317
  602TIP3   OH223296   5.895   2.496  17.285  0.0343  0.1294  0.3883
  602TIP3    H123297   5.856   2.493  17.372 -0.0119  2.8473  0.4983
  602TIP3    H223298   5.988   2.479  17.299 -0.0564  0.0667  0.8948
  603TIP3   OH223299   1.253   4.613  12.162  0.2625  0.3956  0.1024
  603TIP3    H123300   1.216   4.539  12.210 -2.2355  0.2964 -1.8423
  603TIP3    H223301   1.300   4.573  12.089  0.7282  0.6819  0.2409
  604TIP3   OH223302   0.111   4.657   4.346  0.2413 -0.8989 -0.1616
  604TIP3    H123303   0.184   4.685   4.402  0.2592 -0.6480 -0.3083
  604TIP3    H223304   0.128   4.699   4.262  0.6538 -1.9291 -0.6051
  605TIP3   OH223305   5.776   2.759  11.171 -0.6315  0.6009 -0.1674
  605TIP3    H123306   5.758   2.738  11.079  0.5105  0.6699 -0.4183
  605TIP3    H223307   5.872   2.763  11.176 -0.6657  0.0321  1.1564
  606TIP3   OH223308   2.144   3.870   0.081 -0.3804  0.4572 -0.0421
  606TIP3    H123309   2.081   3.882   0.152  0.0859 -0.5866  0.5466
  606TIP3    H223310   2.092   3.830   0.010 -0.4669 -0.0852  0.3223
  607TIP3   OH223311   3.751   3.502   5.295  0.5401 -0.0166  0.3112
  607TIP3    H123312   3.844   3.523   5.286  0.7104 -1.2947 -1.1698
  607TIP3    H223313   3.741   3.478   5.387  1.6175  0.3656  0.5445
  608TIP3   OH223314   5.785   0.363  14.886  0.0981 -0.4049  0.1483
  608TIP3    H123315   5.764   0.279  14.926  0.6790 -1.0473 -0.9088
  608TIP3    H223316   5.878   0.376  14.904 -0.1801  0.4354  1.0732
  609TIP3   OH223317   0.756   0.571   3.411  0.0326 -0.7490  0.2353
  609TIP3    H123318   0.675   0.618   3.432  0.0611 -0.8916  0.6623
  609TIP3    H223319   0.754   0.562   3.316  0.7408  1.4309 -0.0262
  610TIP3   OH223320   2.828   1.258  11.632  0.0486 -0.2350  0.1692
  610TIP3    H123321   2.757   1.215  11.680 -1.0171 -0.0120 -1.1727
  610TIP3    H223322   2.908   1.233  11.679 -1.1585  2.0175  3.5813
  611TIP3   OH223323   2.826   3.711   6.329  0.1885 -0.6945 -0.0691
  611TIP3    H123324   2.899   3.652   6.309  0.7040 -0.2575  0.5062
  611TIP3    H223325   2.831   3.724   6.424 -0.2334 -0.1374 -0.1222
  612TIP3   OH223326   5.747   3.916   5.323  0.0967 -0.1311 -0.5390
  612TIP3    H123327   5.696   3.837   5.336  0.5627 -0.1983  0.9945
  612TIP3    H223328   5.774   3.942   5.411 -1.5814  2.7472 -0.7925
  613TIP3   OH223329   2.316   5.842   3.994  0.6125  0.3141 -0.3137
  613TIP3    H123330   2.361   5.926   3.999  0.5780  0.4157 -1.6955
  613TIP3    H223331   2.253   5.844   4.066  2.9495  0.0790  1.8030
  614TIP3   OH223332   2.196   5.328   5.029 -0.0617 -0.8730  0.4382
  614TIP3    H123333   2.218   5.399   4.969 -0.2379 -0.6139  0.6795
  614TIP3    H223334   2.115   5.291   4.994 -1.4578  0.7984  1.8311
  615TIP3   OH223335   2.064   3.807   1.302 -0.0430  0.8602  0.0045
  615TIP3    H123336   2.128   3.780   1.368  0.0252  2.9511  0.8379
  615TIP3    H223337   2.113   3.810   1.220  0.2618 -0.1687  0.1446
  616TIP3   OH223338   3.018   1.014   5.624  0.4953  0.1590  0.1384
  616TIP3    H123339   3.082   1.030   5.693 -0.1667  1.3682  0.4806
  616TIP3    H223340   2.964   0.942   5.658  1.5596 -0.7662 -0.0939
  617TIP3   OH223341   3.179   2.073   5.768 -0.1424 -0.0971  0.2740
  617TIP3    H123342   3.216   2.156   5.799  0.4812 -0.3252  0.1384
  617TIP3    H223343   3.184   2.015   5.844  0.0062 -0.2001  0.1862
  618TIP3   OH223344   1.434   6.118   1.489 -0.3781  0.7709 -0.1646
  618TIP3    H123345   1.483   6.066   1.426 -0.9893 -0.4106  0.3261
  618TIP3    H223346   1.344   6.116   1.457 -0.8155 -0.4008  1.0845
  619TIP3   OH223347   4.829   0.685  15.377  0.1364  0.6230 -0.1324
  619TIP3    H123348   4.906   0.629  15.387  0.7001  1.1654 -1.4017
  619TIP3    H223349   4.803   0.706  15.467 -0.6119 -2.3827  0.4038
  620TIP3   OH223350   5.356   1.873   1.352 -0.2420  0.3526  0.3370
  620TIP3    H123351   5.321   1.811   1.416 -3.0874  0.0752 -1.4153
  620TIP3    H223352   5.348   1.959   1.395  1.5500 -0.2233  1.8609
  621TIP3   OH223353   2.106   5.485  12.725 -0.0690  0.2855 -0.7180
  621TIP3    H123354   2.073   5.548  12.789 -2.1948  0.5554 -2.0217
  621TIP3    H223355   2.101   5.532  12.642  2.4236 -0.1522 -1.1245
  622TIP3   OH223356   0.126   1.536   5.268  0.0174 -0.1748 -0.4127
  622TIP3    H123357   0.209   1.551   5.224 -0.1314 -0.0827 -0.6671
  622TIP3    H223358   0.063   1.524   5.196 -0.1014 -0.7086 -0.2200
  623TIP3   OH223359   1.801   1.677   3.966 -0.2321  0.1096 -0.0155
  623TIP3    H123360   1.836   1.740   4.029  0.7312 -0.2783 -0.1387
  623TIP3    H223361   1.839   1.703   3.882  0.9108 -1.1551  0.0874
  624TIP3   OH223362   4.683   3.742  13.792  0.1191 -0.0002  0.2434
  624TIP3    H123363   4.692   3.772  13.882  0.1411 -1.7587  0.8383
  624TIP3    H223364   4.614   3.676  13.795 -0.6306  0.6879 -1.2176
  625TIP3   OH223365   1.044   2.921  13.966  0.4230 -0.1792 -0.3331
  625TIP3    H123366   1.075   2.992  13.910 -1.1415 -0.0604 -1.1006
  625TIP3    H223367   1.109   2.914  14.036 -0.1977  3.1002  0.6667
  626TIP3   OH223368   4.385   1.981  11.566 -0.2959  0.1718  0.2289
  626TIP3    H123369   4.428   1.968  11.651  0.9997  1.8757 -0.1522
  626TIP3    H223370   4.456   2.000  11.505 -1.2987 -0.1432 -1.0758
  627TIP3   OH223371   4.764   2.689  14.503 -0.3842  0.2823 -0.2629
  627TIP3    H123372   4.726   2.711  14.588  0.6185  0.9616  0.0209
  627TIP3    H223373   4.819   2.764  14.481 -0.5260  0.0457 -1.4497
  628TIP3   OH223374   0.119   0.913  13.694  0.1806 -0.3660  0.4839
  628TIP3    H123375   0.080   1.000  13.691  0.7713 -0.1114 -0.0357
  628TIP3    H223376   0.101   0.875  13.608  0.7795 -0.3731  0.3584
  629TIP3   OH223377   4.565   5.132  13.894 -0.1943  0.0557  0.6599
  629TIP3    H123378   4.604   5.201  13.947 -2.1673  1.4786  0.3304
  629TIP3    H223379   4.479   5.118  13.933 -0.5790 -0.8343 -0.4924
  630TIP3   OH223380   3.259   1.084  16.582 -0.5600 -0.4393 -0.0406
  630TIP3    H123381   3.353   1.080  16.564 -0.7559 -0.6849 -1.0702
  630TIP3    H223382   3.234   0.993  16.599 -0.1900 -0.0785  2.5312
  631TIP3   OH223383   4.143   3.920  14.711  0.1531  0.7799  0.7507
  631TIP3    H123384   4.222   3.912  14.764  0.3589  3.1135  0.8625
  631TIP3    H223385   4.154   4.002  14.663 -1.3028  0.1215 -0.7810
  632TIP3   OH223386   2.186   5.374   5.514  0.6664 -0.3007  0.4576
  632TIP3    H123387   2.132   5.391   5.437  0.6291 -0.7556  0.3832
  632TIP3    H223388   2.254   5.442   5.511 -0.0663  0.4492  0.7129
  633TIP3   OH223389   1.933   3.603  12.764  0.4266  0.5256  0.3849
  633TIP3    H123390   2.012   3.648  12.736  1.2168 -0.1788  1.4400
  633TIP3    H223391   1.943   3.513  12.732 -1.3844  1.1790 -2.1766
  634TIP3   OH223392   1.167   6.608  14.501 -0.5534  0.4320 -0.0948
  634TIP3    H123393   1.123   6.589  14.584 -1.4076 -1.4927 -0.9818
  634TIP3    H223394   1.106   6.664  14.454  0.2337  2.1209  0.8377
  635TIP3   OH223395   1.664   1.587  16.827 -0.3129  0.5357  0.0942
  635TIP3    H123396   1.739   1.587  16.768 -2.4867  0.6247 -2.7371
  635TIP3    H223397   1.655   1.495  16.854  1.2536  0.6530  1.0945
  636TIP3   OH223398   5.907   5.440   5.836  0.1005  0.1948 -0.3158
  636TIP3    H123399   5.858   5.378   5.782 -1.5159  2.8413 -2.0536
  636TIP3    H223400   5.942   5.388   5.908 -1.3236 -2.6573 -1.6133
  637TIP3   OH223401   2.048   2.683   0.402 -0.2411 -0.4447  0.5777
  637TIP3    H123402   2.089   2.611   0.449  0.8021  0.9904  1.9467
  637TIP3    H223403   1.954   2.668   0.411 -0.0334 -1.1987  1.5233
  638TIP3   OH223404   3.520   3.242   4.274  0.0949 -0.2110 -0.9367
  638TIP3    H123405   3.571   3.323   4.272 -0.4276  0.2086  1.4758
  638TIP3    H223406   3.442   3.261   4.223 -0.6775  1.2761  0.7535
  639TIP3   OH223407   6.716   5.663  14.710 -0.1532 -0.1639 -0.2468
  639TIP3    H123408   6.779   5.722  14.668 -0.2475  1.3173  1.5962
  639TIP3    H223409   6.770   5.602  14.760 -0.1453  0.7503  0.8771
  640TIP3   OH223410   4.009   4.154  10.559  1.1505 -0.9827  0.1265
  640TIP3    H123411   3.966   4.217  10.617  3.0345 -0.1067  0.6037
  640TIP3    H223412   3.985   4.068  10.594 -0.6388 -0.5358  0.0573
  641TIP3   OH223413   5.596   4.618   2.652  0.2586 -0.0785  0.6161
  641TIP3    H123414   5.576   4.672   2.575 -3.1749 -1.3116  0.5976
  641TIP3    H223415   5.564   4.669   2.726 -1.2623 -1.2488  0.7641
  642TIP3   OH223416   5.420   5.671  13.226  0.3388 -0.4478  0.0459
  642TIP3    H123417   5.390   5.750  13.272  1.8247  0.3875 -0.3892
  642TIP3    H223418   5.345   5.612  13.230 -0.4206  0.5599  1.3489
  643TIP3   OH223419   0.344   2.388  14.963  0.0562  0.0835  0.1756
  643TIP3    H123420   0.375   2.411  15.051 -0.6154 -0.6292  0.6028
  643TIP3    H223421   0.262   2.437  14.953  0.5933  0.8834 -0.4199
  644TIP3   OH223422   0.315   6.280  16.671 -0.0922 -0.3485 -0.1347
  644TIP3    H123423   0.264   6.213  16.627 -2.0362  0.8632  0.1783
  644TIP3    H223424   0.294   6.269  16.764 -0.1629  0.4681 -0.0511
  645TIP3   OH223425   1.701   3.926  16.240  0.0727 -0.2455 -0.6927
  645TIP3    H123426   1.713   3.868  16.164  1.6505 -0.8121 -0.0540
  645TIP3    H223427   1.721   4.013  16.207 -0.1019 -0.3709 -1.1314
  646TIP3   OH223428   4.054   0.307  14.472 -0.2835  0.0321  0.0783
  646TIP3    H123429   4.074   0.395  14.439  0.3993 -0.7617 -1.7140
  646TIP3    H223430   4.003   0.266  14.402  1.0087 -1.6338  0.0655
  647TIP3   OH223431   1.772   4.945   5.431  0.0229  0.5828 -1.0004
  647TIP3    H123432   1.758   5.016   5.493  1.7225  1.4581 -1.5809
  647TIP3    H223433   1.761   4.866   5.483  0.9847  1.2919  0.3219
  648TIP3   OH223434   5.532   3.003   6.513  0.6833 -0.2778 -0.5052
  648TIP3    H123435   5.536   3.091   6.475 -1.6381 -0.0749 -0.3549
  648TIP3    H223436   5.611   2.997   6.567  1.0420  1.5923 -0.7664
  649TIP3   OH223437   1.727   1.994  11.483  0.2564 -0.1921  0.2554
  649TIP3    H123438   1.652   1.961  11.434  1.0895 -1.1050 -0.4433
  649TIP3    H223439   1.727   2.088  11.468 -1.1028 -0.1004  0.7781
  650TIP3   OH223440   0.547   2.006  14.220  0.2281  0.6473 -0.5505
  650TIP3    H123441   0.585   2.015  14.308  0.4396 -1.0164 -0.4492
  650TIP3    H223442   0.454   1.986  14.236  1.1397 -4.0969 -0.5260
  651TIP3   OH223443   0.294   2.390  12.398 -0.2401  0.0024  0.2574
  651TIP3    H123444   0.229   2.431  12.341  1.5787  0.2727 -1.6786
  651TIP3    H223445   0.357   2.460  12.417  1.4464 -1.1357 -0.9022
  652TIP3   OH223446   1.962   5.576  12.263 -0.2283  0.3958 -0.0040
  652TIP3    H123447   1.958   5.633  12.187  0.7690  0.7516  0.2005
  652TIP3    H223448   1.890   5.514  12.251  0.2103  0.1555 -1.4649
  653TIP3   OH223449   3.368   5.342   1.844 -0.3721  0.6698  0.1969
  653TIP3    H123450   3.418   5.302   1.773  0.2021  0.2828  0.8195
  653TIP3    H223451   3.428   5.405   1.884 -0.1031 -0.3584  1.4503
  654TIP3   OH223452   2.771   3.268   2.747 -0.3647  0.0131 -0.0639
  654TIP3    H123453   2.677   3.285   2.738 -0.1139  1.9135  0.6682
  654TIP3    H223454   2.777   3.192   2.805 -1.4903 -1.6176 -2.0051
  655TIP3   OH223455   0.592   1.109   3.486 -0.5606 -0.2808  0.3285
  655TIP3    H123456   0.681   1.102   3.453 -0.9698 -0.0727 -0.8507
  655TIP3    H223457   0.588   1.046   3.558 -0.0511 -1.7617 -0.9095
  656TIP3   OH223458   0.489   3.048   5.655 -0.4291 -0.6342  0.5125
  656TIP3    H123459   0.550   3.032   5.727 -0.1343  0.2194  0.4533
  656TIP3    H223460   0.429   3.114   5.689 -0.1930 -0.1132 -0.0762
  657TIP3   OH223461   4.041   2.452   3.523 -0.2883 -0.3883  0.4562
  657TIP3    H123462   4.027   2.421   3.612  1.3027 -0.9994  0.5093
  657TIP3    H223463   4.073   2.541   3.533  0.4111 -0.6458  0.5182
  658TIP3   OH223464   1.528   1.777   4.181 -0.0544  0.0976 -0.3345
  658TIP3    H123465   1.441   1.758   4.145  1.2874 -1.8672 -2.7253
  658TIP3    H223466   1.574   1.823   4.111  1.2671 -0.0888  0.3768
  659TIP3   OH223467   0.223   0.410  14.938 -0.3104 -0.0267  0.2369
  659TIP3    H123468   0.239   0.478  14.873  1.2069  1.5407  2.2168
  659TIP3    H223469   0.135   0.429  14.971 -0.4321  0.1450 -0.1844
  660TIP3   OH223470   0.915   6.160   3.891  0.0469 -0.0687 -0.3990
  660TIP3    H123471   0.833   6.150   3.843  0.4449  0.6720 -1.2333
  660TIP3    H223472   0.973   6.205   3.831 -0.1994  3.0381  1.5432
  661TIP3   OH223473   4.521   3.683  16.627 -0.1019 -0.4918 -0.2748
  661TIP3    H123474   4.544   3.734  16.549  1.4143 -0.5929  0.1064
  661TIP3    H223475   4.428   3.663  16.615 -0.3633  1.1478 -1.1134
  662TIP3   OH223476   5.134   1.547  10.758 -0.1701 -0.1391 -0.4800
  662TIP3    H123477   5.185   1.470  10.731 -0.4536 -0.4973 -0.0014
  662TIP3    H223478   5.195   1.620  10.749  0.1477 -0.4388 -0.8008
  663TIP3   OH223479   6.756   0.081   5.364 -0.0773  0.4202  0.0238
  663TIP3    H123480   6.741   0.051   5.454 -2.4543 -1.7789 -1.0044
  663TIP3    H223481   6.844   0.050   5.342 -1.6873 -4.4653 -0.3136
  664TIP3   OH223482   5.175   3.736  15.795  0.2759 -0.4772 -0.1728
  664TIP3    H123483   5.202   3.797  15.725 -1.7518 -0.8763 -1.3400
  664TIP3    H223484   5.141   3.793  15.864  0.7708 -0.1716 -0.1723
  665TIP3   OH223485   0.090   2.494   0.937 -0.5804  0.1123  0.5629
  665TIP3    H123486   0.170   2.539   0.912  0.2507 -0.8276  1.5172
  665TIP3    H223487   0.071   2.526   1.025 -1.3389  0.4308  0.2945
  666TIP3   OH223488   1.150   2.396   6.094 -0.3024 -0.3080 -0.4667
  666TIP3    H123489   1.146   2.350   6.178 -0.5893  0.2749 -0.1561
  666TIP3    H223490   1.236   2.438   6.094 -0.5902  0.2967 -0.1343
  667TIP3   OH223491   4.675   3.182  15.816  0.3869  0.2446  0.0882
  667TIP3    H123492   4.628   3.212  15.893 -0.2592 -0.9357  0.1682
  667TIP3    H223493   4.646   3.241  15.746 -1.8549 -0.9532 -0.0356
  668TIP3   OH223494   5.601   1.539   0.633 -0.0128  0.6213  0.0675
  668TIP3    H123495   5.534   1.590   0.679  0.2612  0.9477  0.1053
  668TIP3    H223496   5.645   1.603   0.577  0.1426  0.3691 -0.0987
  669TIP3   OH223497   1.779   0.574   3.855  0.4058 -0.1485  0.1029
  669TIP3    H123498   1.775   0.664   3.887  1.0409 -0.6223  1.5687
  669TIP3    H223499   1.735   0.577   3.770  0.6280  1.5888  0.0190
  670TIP3   OH223500   2.788   2.600  15.550  0.0129 -0.0586 -0.0083
  670TIP3    H123501   2.759   2.657  15.479  0.0090 -1.3038 -1.0168
  670TIP3    H223502   2.738   2.629  15.626 -1.5349 -0.1007 -0.9987
  671TIP3   OH223503   2.426   2.793  12.640 -0.1660 -0.3466  0.1370
  671TIP3    H123504   2.471   2.874  12.666 -1.4194  0.3228  0.2376
  671TIP3    H223505   2.445   2.785  12.546  0.9604 -0.5819  0.3800
  672TIP3   OH223506   6.105   3.688  15.464 -0.2002 -0.7633  0.3128
  672TIP3    H123507   6.198   3.681  15.488 -0.0907  0.4743  0.2900
  672TIP3    H223508   6.106   3.740  15.383 -0.9148 -0.7932  0.2874
  673TIP3   OH223509   5.305   4.222   3.427 -0.1336 -0.1801  0.1477
  673TIP3    H123510   5.249   4.289   3.467 -0.5305 -1.5447  1.9371
  673TIP3    H223511   5.384   4.221   3.481  0.2145 -0.5868 -0.3695
  674TIP3   OH223512   4.641   6.046   4.236  0.7827 -0.5965  0.6633
  674TIP3    H123513   4.699   6.071   4.164  0.0276  0.5948  0.4603
  674TIP3    H223514   4.653   6.114   4.302 -1.4419  0.4884  0.0168
  675TIP3   OH223515   2.739   0.924   2.567  0.4143  0.2727 -0.5832
  675TIP3    H123516   2.802   0.874   2.515  0.5346  1.0820 -1.2373
  675TIP3    H223517   2.653   0.899   2.531  0.3245 -1.1209  0.5655
  676TIP3   OH223518   2.060   1.077   3.652 -0.3839 -0.0986 -0.3478
  676TIP3    H123519   2.021   0.993   3.626 -0.7464  0.1413 -0.5792
  676TIP3    H223520   2.153   1.058   3.661 -0.6017 -0.7492  0.5339
  677TIP3   OH223521   5.162   1.413   3.933  0.9832 -0.0598 -0.4830
  677TIP3    H123522   5.163   1.421   3.837  1.4956 -0.5258 -0.5222
  677TIP3    H223523   5.211   1.489   3.963  2.1381 -0.7108 -0.6663
  678TIP3   OH223524   1.872   1.625   6.910  0.0745  0.7086  1.2329
  678TIP3    H123525   1.794   1.630   6.964 -0.7945 -0.3019  0.1006
  678TIP3    H223526   1.879   1.533   6.886  1.1719  0.9224  0.6872
  679TIP3   OH223527   1.023   4.891  10.953 -0.1792 -0.0307  0.0748
  679TIP3    H123528   1.032   4.875  10.859 -1.1202 -1.8976  0.2729
  679TIP3    H223529   0.934   4.862  10.973 -0.7049  2.2598  1.1860
  680TIP3   OH223530   5.373   0.282   5.439 -0.0614 -0.1629  0.6263
  680TIP3    H123531   5.446   0.337   5.469  0.2209  0.1222 -0.5544
  680TIP3    H223532   5.356   0.223   5.513  1.9687 -0.8584  0.5780
  681TIP3   OH223533   5.939   0.034   4.915 -0.6215 -0.7057 -0.1352
  681TIP3    H123534   6.002  -0.034   4.940  0.4235 -0.1633 -1.2110
  681TIP3    H223535   5.878   0.039   4.988  0.8865 -0.8932  1.1501
  682TIP3   OH223536   0.964   3.483  15.706 -0.2783 -0.3776 -0.8123
  682TIP3    H123537   1.005   3.508  15.789 -2.2125  2.7173 -0.7139
  682TIP3    H223538   1.037   3.477  15.644  0.8541  0.2585  0.4313
  683TIP3   OH223539   2.222   2.387  16.002 -0.1961  0.0753  0.8298
  683TIP3    H123540   2.246   2.382  15.909  2.2589  0.9403  1.3968
  683TIP3    H223541   2.250   2.304  16.039  0.6803  0.5464  1.2216
  684TIP3   OH223542   1.248   6.320   6.142  0.3337 -0.1728 -0.1573
  684TIP3    H123543   1.296   6.283   6.216  1.3030 -0.6546 -1.0010
  684TIP3    H223544   1.187   6.250   6.116 -1.6050  0.8401  1.5879
  685TIP3   OH223545   1.915   1.703   0.835  0.5414  0.0468  0.2538
  685TIP3    H123546   1.929   1.796   0.818  2.8675 -0.1963  0.6418
  685TIP3    H223547   1.911   1.662   0.749  1.9182  0.2083  0.1012
  686TIP3   OH223548   1.208   4.066   5.640  0.0485 -0.5328  0.1897
  686TIP3    H123549   1.188   4.013   5.718 -1.0190  0.0919  0.3481
  686TIP3    H223550   1.126   4.067   5.591  0.2507  0.4677 -0.1252
  687TIP3   OH223551   1.048   0.549   4.158  0.1435  0.1120 -0.0495
  687TIP3    H123552   0.958   0.547   4.126 -0.2486  1.6807  0.9146
  687TIP3    H223553   1.041   0.589   4.245  1.7177 -0.2132  0.2389
  688TIP3   OH223554   0.840   5.783   4.415  0.2003  0.0711 -0.5873
  688TIP3    H123555   0.867   5.740   4.333  0.8350  0.4477 -0.5767
  688TIP3    H223556   0.922   5.813   4.454  0.0379 -1.4135  0.9270
  689TIP3   OH223557   6.045   2.626   3.972  0.0350 -0.2058  0.0370
  689TIP3    H123558   5.968   2.578   4.000 -0.3808  0.3132 -0.2098
  689TIP3    H223559   6.014   2.685   3.903  1.1322 -1.8381 -1.9212
  690TIP3   OH223560   0.657   6.603  11.343  0.0150  0.3179 -0.1136
  690TIP3    H123561   0.564   6.581  11.341  0.5543 -1.9401 -1.1845
  690TIP3    H223562   0.695   6.544  11.408  0.8143  0.8935 -0.0428
  691TIP3   OH223563   2.663   2.192   5.695 -0.1408  0.0483 -0.4773
  691TIP3    H123564   2.620   2.240   5.766  2.7097  0.0940  1.2996
  691TIP3    H223565   2.604   2.119   5.677 -2.2485  1.5814  0.0225
  692TIP3   OH223566   3.975   3.579  14.293  0.6445 -0.5026 -0.1469
  692TIP3    H123567   3.994   3.633  14.370  1.2221 -0.3891 -0.3638
  692TIP3    H223568   3.930   3.637  14.232  3.0528  0.3314 -1.2117
  693TIP3   OH223569   4.160   1.437   1.478 -0.7481  0.5309 -0.0418
  693TIP3    H123570   4.213   1.360   1.456 -1.6689  0.5479 -2.5318
  693TIP3    H223571   4.151   1.434   1.573  1.6916 -0.8010  0.1825
  694TIP3   OH223572   4.969   6.309  16.120 -0.4722 -0.8593 -0.0339
  694TIP3    H123573   4.875   6.292  16.116 -0.3427 -1.5387 -0.1969
  694TIP3    H223574   5.004   6.236  16.171  0.0190 -0.8161 -0.3063
  695TIP3   OH223575   3.646   2.691  16.423  0.1938 -0.0255 -0.4809
  695TIP3    H123576   3.566   2.685  16.475  0.7377 -0.3707  0.3153
  695TIP3    H223577   3.660   2.602  16.390  0.7212 -0.1470  0.0754
  696TIP3   OH223578   5.243   3.064  13.595 -0.0888 -0.3699  0.1037
  696TIP3    H123579   5.174   3.115  13.552  0.5189  0.1769 -0.2278
  696TIP3    H223580   5.251   3.104  13.682  0.3324  0.0560 -0.1281
  697TIP3   OH223581   5.224   2.968   4.993  0.6231 -0.4193  0.1377
  697TIP3    H123582   5.147   3.007   4.952 -0.1710 -2.2638 -0.1807
  697TIP3    H223583   5.199   2.957   5.085  1.0802  0.3716  0.3653
  698TIP3   OH223584   1.178   6.042   2.707  0.2743  0.7868  0.3292
  698TIP3    H123585   1.233   6.082   2.640  1.3287  0.7846  1.1639
  698TIP3    H223586   1.121   6.113   2.737 -1.7101  0.2317 -2.0746
  699TIP3   OH223587   4.139   6.271  12.937 -0.3995  0.2581 -0.4896
  699TIP3    H123588   4.168   6.358  12.963  0.3677  0.4184 -1.8281
  699TIP3    H223589   4.220   6.222  12.922 -0.8228 -0.3663 -0.7678
  700TIP3   OH223590   5.888   1.905   3.487 -0.1782 -0.2304  0.2139
  700TIP3    H123591   5.953   1.901   3.417 -0.2403 -1.6010  0.2156
  700TIP3    H223592   5.817   1.848   3.456 -0.6514 -0.0339  0.9358
  701TIP3   OH223593   0.287   0.084  13.070 -0.0849  0.2043 -0.5850
  701TIP3    H123594   0.196   0.057  13.083  0.2642 -0.3071  0.9660
  701TIP3    H223595   0.324   0.017  13.012 -0.1221 -0.8100  0.5486
  702TIP3   OH223596   1.902   3.160  16.429  0.2335  0.1991 -0.0054
  702TIP3    H123597   1.818   3.145  16.472  0.1937 -0.5923 -0.3485
  702TIP3    H223598   1.964   3.104  16.476 -0.5494 -3.7362 -3.3644
  703TIP3   OH223599   3.324   1.695  14.289 -0.3424 -0.1406  0.0858
  703TIP3    H123600   3.360   1.684  14.377  0.8691 -1.8764 -0.6038
  703TIP3    H223601   3.400   1.720  14.236 -0.7582 -0.6775 -0.7658
  704TIP3   OH223602   6.275   1.614   0.551  0.0376  0.0618 -0.2387
  704TIP3    H123603   6.295   1.520   0.558 -0.0513  0.1053  0.6063
  704TIP3    H223604   6.354   1.658   0.581  0.6528  0.2839 -2.1162
  705TIP3   OH223605   6.800   2.986   2.874 -0.2402  0.1393 -0.2183
  705TIP3    H123606   6.728   2.948   2.825  0.8538 -2.0104 -0.2149
  705TIP3    H223607   6.758   3.034   2.946 -1.6435 -1.9092  0.3638
  706TIP3   OH223608   1.065   3.330  12.729  0.2184 -0.6505  0.0355
  706TIP3    H123609   1.049   3.413  12.686  2.1641 -0.5736 -0.5469
  706TIP3    H223610   1.072   3.352  12.822 -2.0934 -0.5737  0.2293
  707TIP3   OH223611   5.635   1.504   2.135 -0.3334 -0.2420  0.6128
  707TIP3    H123612   5.640   1.595   2.162 -0.6008 -0.2313  0.6314
  707TIP3    H223613   5.592   1.506   2.050  1.0933 -0.2234 -0.1214
  708TIP3   OH223614   1.895   0.936  14.780  0.3856  0.3039  0.4081
  708TIP3    H123615   1.888   1.010  14.719  0.1201 -0.9831 -1.1716
  708TIP3    H223616   1.822   0.948  14.841 -0.0931  0.9530 -0.2887
  709TIP3   OH223617   6.602   4.038   2.902  0.0635 -0.5253  0.0437
  709TIP3    H123618   6.688   4.051   2.943 -0.3804 -2.4440  1.6430
  709TIP3    H223619   6.580   4.124   2.866  2.2696  0.2061  0.3390
  710TIP3   OH223620   4.821   3.317   1.860 -0.6464 -0.3212  1.0230
  710TIP3    H123621   4.821   3.294   1.953 -1.9206  1.1341  1.4007
  710TIP3    H223622   4.820   3.233   1.815 -1.1407 -1.0404  2.3396
  711TIP3   OH223623   5.776   3.719   0.913 -0.1114 -0.2481  0.2597
  711TIP3    H123624   5.782   3.644   0.973  3.5265 -0.4034 -0.1919
  711TIP3    H223625   5.836   3.784   0.950 -1.7758  1.7441 -0.4093
  712TIP3   OH223626   2.162   5.295  10.849 -0.5328 -0.0260 -0.3955
  712TIP3    H123627   2.183   5.219  10.794  1.9256  0.7150 -0.5292
  712TIP3    H223628   2.110   5.352  10.792 -0.1272 -0.4098 -1.1548
  713TIP3   OH223629   3.381   5.364  15.867 -0.6185 -0.1112 -0.1965
  713TIP3    H123630   3.417   5.276  15.876  0.3245  0.5000  2.7789
  713TIP3    H223631   3.427   5.402  15.793  0.4054 -1.4615 -0.2711
  714TIP3   OH223632   4.158   6.558  11.273 -0.0944  0.2001 -0.0996
  714TIP3    H123633   4.209   6.635  11.297  0.6835 -0.5394  0.5945
  714TIP3    H223634   4.156   6.560  11.177 -3.1759  3.1220 -0.0654
  715TIP3   OH223635   1.452   3.890  17.131 -0.4256 -0.7721  0.1996
  715TIP3    H123636   1.486   3.880  17.043 -0.5279  0.7277 -0.0275
  715TIP3    H223637   1.359   3.870  17.123 -0.6517  0.4266 -0.2607
  716TIP3   OH223638   0.603   3.939  15.918 -0.5346 -0.3146  0.1853
  716TIP3    H123639   0.650   3.859  15.940  0.3097 -0.0901 -0.7396
  716TIP3    H223640   0.670   4.008  15.923 -1.3848  0.4250  1.5708
  717TIP3   OH223641   5.550   2.795   4.751 -0.4799  0.4426  0.4657
  717TIP3    H123642   5.536   2.883   4.787  0.4870  0.8685 -0.1904
  717TIP3    H223643   5.623   2.806   4.690 -0.7323 -0.7087 -0.0352
  718TIP3   OH223644   6.010   0.913   5.187 -0.1388 -0.0861 -0.3301
  718TIP3    H123645   5.962   0.943   5.264 -1.8587  2.5084 -2.2986
  718TIP3    H223646   5.944   0.872   5.131  0.7241 -0.2945 -1.2154
  719TIP3   OH223647   5.193   4.660   2.348  0.5261 -0.3162 -0.0232
  719TIP3    H123648   5.109   4.693   2.381  1.3970 -0.2648  2.2140
  719TIP3    H223649   5.169   4.584   2.295 -0.9199 -0.6339  1.0388
  720TIP3   OH223650   5.653   4.918  14.333  0.0550  0.3498  0.5609
  720TIP3    H123651   5.677   5.004  14.299  2.2076 -0.0899  0.8965
  720TIP3    H223652   5.714   4.903  14.406 -0.5331 -1.2933  0.7360
  721TIP3   OH223653   4.637   3.776   3.166  0.3727  0.2558  0.1882
  721TIP3    H123654   4.599   3.751   3.250 -0.6905 -0.9030 -0.6161
  721TIP3    H223655   4.562   3.799   3.111  1.0910  1.5111 -0.2834
  722TIP3   OH223656   6.259   5.040  16.035  0.1788  0.0803  0.0742
  722TIP3    H123657   6.319   4.969  16.056 -0.2669 -0.1686  0.5020
  722TIP3    H223658   6.222   5.066  16.119 -0.7216 -0.1359 -0.2519
  723TIP3   OH223659   1.776   5.001   3.721 -0.1709 -0.0459 -0.0542
  723TIP3    H123660   1.686   5.027   3.701  0.1696  2.2342  1.2717
  723TIP3    H223661   1.767   4.936   3.791 -0.8147 -0.2053 -0.2824
  724TIP3   OH223662   5.747   3.298  15.793 -0.3617 -0.6913 -0.5454
  724TIP3    H123663   5.765   3.388  15.819  0.8767 -1.2896  0.7840
  724TIP3    H223664   5.661   3.279  15.830 -0.0820 -0.4332  0.2602
  725TIP3   OH223665   6.037   1.602  16.979  0.0947  0.2383 -0.3336
  725TIP3    H123666   5.947   1.629  16.994 -0.4684 -0.9755 -1.4034
  725TIP3    H223667   6.030   1.525  16.922  1.8324  0.7184 -1.2493
  726TIP3   OH223668   3.730   3.768   0.119  0.0575 -0.4194 -0.3453
  726TIP3    H123669   3.813   3.766   0.167  0.5619  0.3104 -1.1695
  726TIP3    H223670   3.678   3.835   0.163  0.3425 -0.0716 -0.5400
  727TIP3   OH223671   2.832   1.162   2.728  0.7865  0.1766  0.1854
  727TIP3    H123672   2.826   1.128   2.639  0.7773  1.0536 -0.1586
  727TIP3    H223673   2.911   1.216   2.728 -1.4378  3.6092 -0.5183
  728TIP3   OH223674   3.296   0.991   3.010  0.1784 -0.5521  0.0382
  728TIP3    H123675   3.203   1.011   3.009  0.2099 -0.3016  1.0052
  728TIP3    H223676   3.307   0.928   3.081  1.0374  1.0931  1.4439
  729TIP3   OH223677   0.502   6.501   1.192  0.0842  0.0942 -0.5292
  729TIP3    H123678   0.415   6.500   1.231  0.1596  0.6414 -0.3410
  729TIP3    H223679   0.510   6.588   1.154  1.1946  0.6537  0.9249
  730TIP3   OH223680   3.277   3.718  12.685 -0.3664 -1.1924 -0.1671
  730TIP3    H123681   3.328   3.639  12.702  0.9560 -0.0952  1.0551
  730TIP3    H223682   3.282   3.768  12.766 -0.3552  0.5953 -1.2378
  731TIP3   OH223683   1.726   0.336   2.981 -0.4510 -0.1614  0.3430
  731TIP3    H123684   1.727   0.241   2.979 -1.6689 -0.1854  0.5152
  731TIP3    H223685   1.819   0.361   2.982 -0.1203 -1.3196 -0.2241
  732TIP3   OH223686   6.817   0.019   0.746  1.0305  0.3479  0.2287
  732TIP3    H123687   6.894   0.051   0.700  2.7282 -0.3435  2.5174
  732TIP3    H223688   6.826  -0.076   0.747  0.6334  0.3046  1.2742
  733TIP3   OH223689   2.657   3.262  13.185 -0.1000 -0.3406 -0.2919
  733TIP3    H123690   2.615   3.179  13.202 -0.9518 -0.4932 -2.8698
  733TIP3    H223691   2.588   3.327  13.194  0.4832  0.0655  1.3686
  734TIP3   OH223692   6.259   1.386  14.006 -0.3553 -0.0775  0.6520
  734TIP3    H123693   6.279   1.352  13.919 -1.9115  1.2910 -0.2582
  734TIP3    H223694   6.329   1.449  14.024 -1.2926  1.3721 -0.6261
  735TIP3   OH223695   1.620   3.338   3.726  0.1390  0.1568 -0.0348
  735TIP3    H123696   1.668   3.255   3.720  0.2900  0.2999 -0.8391
  735TIP3    H223697   1.648   3.376   3.810 -0.7852 -1.1278  0.8686
  736TIP3   OH223698   0.055   2.635  14.752 -0.0102 -0.6444 -0.0905
  736TIP3    H123699  -0.017   2.603  14.698  0.4829 -0.8783 -0.6078
  736TIP3    H223700   0.022   2.717  14.789 -0.3462 -0.4808 -0.7476
  737TIP3   OH223701   5.437   1.548   1.645 -0.7706  0.5212  0.3707
  737TIP3    H123702   5.487   1.629   1.638 -0.7439  0.5731  1.0923
  737TIP3    H223703   5.377   1.564   1.718 -1.0224  0.0292  0.2717
  738TIP3   OH223704   0.041   2.929  14.214  0.3289  0.3991 -0.0961
  738TIP3    H123705   0.055   3.023  14.231  1.3734  0.6277 -2.1162
  738TIP3    H223706   0.123   2.899  14.175 -0.8572 -0.8067 -1.7223
  739TIP3   OH223707   6.144   2.414   5.138  0.0497  0.0952  0.9091
  739TIP3    H123708   6.070   2.367   5.099  2.0412  0.7507 -4.1317
  739TIP3    H223709   6.110   2.502   5.155 -1.0369 -0.3680  1.1728
  740TIP3   OH223710   6.429   6.159   0.383  0.2659 -0.1591  0.2634
  740TIP3    H123711   6.361   6.175   0.318 -0.3385 -1.1683  0.6334
  740TIP3    H223712   6.432   6.239   0.435  1.9360  1.3141 -2.0363
  741TIP3   OH223713   1.210   1.709   5.595 -0.2055  0.1397 -0.2210
  741TIP3    H123714   1.269   1.676   5.663  0.4365  0.3339 -0.6742
  741TIP3    H223715   1.254   1.787   5.561 -1.8638  1.6774  1.0514
  742TIP3   OH223716   0.347   2.717   5.453 -0.4211  0.5617 -0.3524
  742TIP3    H123717   0.289   2.717   5.377  0.4628  0.5010 -1.0383
  742TIP3    H223718   0.288   2.713   5.529 -1.2723 -1.1601 -1.0708
  743TIP3   OH223719   3.306   3.677   1.444  0.4602 -0.3844  0.1018
  743TIP3    H123720   3.379   3.674   1.382  0.2823 -1.6704 -0.0519
  743TIP3    H223721   3.282   3.770   1.448  1.1105 -0.1609 -1.0016
  744TIP3   OH223722   3.684   1.569  14.692 -0.2825  0.3491 -0.1625
  744TIP3    H123723   3.763   1.535  14.732 -0.0883  0.0448 -0.7953
  744TIP3    H223724   3.691   1.664  14.700  1.1464  0.4381 -2.0546
  745TIP3   OH223725   3.492   6.640  17.203 -0.0897  0.1977  0.6288
  745TIP3    H123726   3.435   6.690  17.145  0.8685 -0.3057 -0.7722
  745TIP3    H223727   3.538   6.579  17.145  0.8514 -0.3549  1.9246
  746TIP3   OH223728   0.292   3.361   5.453  0.0465 -0.2618  0.5386
  746TIP3    H123729   0.286   3.387   5.361  1.4960  0.0011  0.5032
  746TIP3    H223730   0.213   3.310   5.469 -0.5573  0.2820 -0.6636
  747TIP3   OH223731   6.186   5.819   3.347 -0.1384  0.0511  0.1614
  747TIP3    H123732   6.218   5.847   3.261  0.4472 -1.0047  0.0204
  747TIP3    H223733   6.092   5.836   3.344 -0.0821  0.2758 -0.5926
  748TIP3   OH223734   0.495   6.444   0.182  0.1752 -0.2387  0.1782
  748TIP3    H123735   0.429   6.458   0.249 -0.3400  0.2732 -0.4379
  748TIP3    H223736   0.568   6.500   0.208 -1.3220  2.6062 -1.5117
  749TIP3   OH223737   6.622   5.418   0.187  1.1604 -0.2406 -0.0346
  749TIP3    H123738   6.602   5.325   0.174 -0.2259 -0.1655  1.2958
  749TIP3    H223739   6.628   5.428   0.282  2.5857  0.7844 -0.2232
  750TIP3   OH223740   2.943   4.832  16.993 -0.1382 -0.0476  0.1485
  750TIP3    H123741   2.964   4.902  16.932  0.2195  1.9874  2.5598
  750TIP3    H223742   2.852   4.810  16.973  0.4753 -0.5829 -2.2103
  751TIP3   OH223743   1.745   2.823  11.145 -0.1480 -0.2628  0.0136
  751TIP3    H123744   1.694   2.807  11.065 -0.7726 -2.1868  0.7737
  751TIP3    H223745   1.679   2.846  11.211  0.3663  1.3295  0.0068
  752TIP3   OH223746   3.621   2.990   3.520 -0.1846 -0.4938 -0.0405
  752TIP3    H123747   3.559   2.979   3.592 -1.0232 -0.5278 -0.7599
  752TIP3    H223748   3.693   2.930   3.541  0.3494  0.6897  1.5906
  753TIP3   OH223749   4.069   3.570   3.635 -0.6641  0.4663 -0.2083
  753TIP3    H123750   4.068   3.488   3.684 -1.3647  1.3977  1.3684
  753TIP3    H223751   3.982   3.576   3.594  0.3299 -0.9007 -2.6209
  754TIP3   OH223752   4.713   4.013  15.222 -0.1283  0.0066  0.1867
  754TIP3    H123753   4.665   4.019  15.304  1.2580 -2.1155  1.1892
  754TIP3    H223754   4.805   4.009  15.248  0.4198  0.8282 -1.5433
  755TIP3   OH223755   2.033   1.507   5.017 -0.5983 -0.1851 -0.2665
  755TIP3    H123756   2.047   1.440   5.084 -0.0245  0.2292  0.0361
  755TIP3    H223757   2.015   1.587   5.068 -0.0820  0.1476 -0.6016
  756TIP3   OH223758   0.298   3.257  10.947 -0.4530  0.3742  0.1215
  756TIP3    H123759   0.251   3.337  10.923 -0.2873  0.0009 -1.5219
  756TIP3    H223760   0.265   3.191  10.886 -2.1348 -1.3405  2.8243
  757TIP3   OH223761   5.734   2.070   4.471 -0.5616  0.2403 -0.2071
  757TIP3    H123762   5.713   1.978   4.487 -0.0840  0.1078 -0.3217
  757TIP3    H223763   5.720   2.113   4.555 -1.5382  0.2077 -0.3464
  758TIP3   OH223764   6.789   5.132  11.627 -0.2424 -0.1886  0.1890
  758TIP3    H123765   6.707   5.082  11.622 -1.3426  1.6304 -0.3100
  758TIP3    H223766   6.819   5.120  11.717 -1.9940  0.5842  0.8911
  759TIP3   OH223767   2.926   0.434   4.354  0.0975  0.0369 -0.0060
  759TIP3    H123768   2.950   0.491   4.428  0.3229 -1.1915  0.8700
  759TIP3    H223769   2.999   0.442   4.294 -0.7187  2.1616 -0.7800
  760TIP3   OH223770   1.427   2.535   5.134 -0.1504  0.2681 -0.1910
  760TIP3    H123771   1.443   2.585   5.055  1.9995 -0.6935 -0.3929
  760TIP3    H223772   1.511   2.533   5.179 -1.0695 -0.1614  1.5596
  761TIP3   OH223773   3.772   2.401   1.173  0.8730  0.3488  0.6647
  761TIP3    H123774   3.733   2.349   1.242  1.6014 -0.2630  0.6267
  761TIP3    H223775   3.726   2.485   1.176 -0.2183 -0.2524  0.8019
  762TIP3   OH223776   3.578   0.386   5.672  0.2601  0.2707 -0.6138
  762TIP3    H123777   3.529   0.466   5.651 -0.6884 -0.7199 -2.2975
  762TIP3    H223778   3.511   0.318   5.677  0.9558 -0.2845  1.6694
  763TIP3   OH223779   4.358   6.791  17.067 -0.7418  0.3906 -0.0371
  763TIP3    H123780   4.295   6.853  17.031 -2.1220 -1.2428 -0.4670
  763TIP3    H223781   4.349   6.712  17.013  1.0201 -0.1875  0.4648
  764TIP3   OH223782   3.734   6.194   3.643  0.4411 -0.0148 -0.2312
  764TIP3    H123783   3.753   6.139   3.719 -2.1969  1.4974  1.5792
  764TIP3    H223784   3.790   6.270   3.653  0.1771  0.1304  0.1350
  765TIP3   OH223785   2.205   5.235  17.027 -0.1899 -0.5921 -0.5055
  765TIP3    H123786   2.143   5.205  17.094 -1.1938 -0.8259 -1.5268
  765TIP3    H223787   2.151   5.252  16.950  0.5652  2.2552 -0.4616
  766TIP3   OH223788   4.164   5.524   3.725  0.6712 -0.1495 -0.3158
  766TIP3    H123789   4.199   5.438   3.703  1.7979  0.2002  0.0669
  766TIP3    H223790   4.239   5.572   3.760  0.0075  0.9239 -0.3461
  767TIP3   OH223791   6.327   0.264  12.234  0.0093 -0.5123 -0.4384
  767TIP3    H123792   6.397   0.212  12.274 -1.8605 -1.1884  2.0379
  767TIP3    H223793   6.339   0.251  12.140  1.4694 -2.9315  0.0346
  768TIP3   OH223794   2.143   0.711  16.584 -0.2162 -0.1657  0.6402
  768TIP3    H123795   2.053   0.735  16.564  0.8446  2.8147 -0.7844
  768TIP3    H223796   2.184   0.791  16.615  2.6537 -0.7472 -1.3675
  769TIP3   OH223797   0.540   3.838  16.850  0.2593 -0.4184  0.1585
  769TIP3    H123798   0.582   3.909  16.897  0.6509  1.1159 -2.3976
  769TIP3    H223799   0.460   3.820  16.900  0.5165  1.3135  1.2413
  770TIP3   OH223800   5.979   1.467  11.949  0.3516  0.2211 -0.0519
  770TIP3    H123801   5.996   1.375  11.971 -0.3966  0.3266  1.0008
  770TIP3    H223802   5.966   1.467  11.854  0.7343 -0.7048 -0.1074
  771TIP3   OH223803   1.794   3.315   4.795  0.2401 -0.4729  0.2453
  771TIP3    H123804   1.838   3.345   4.716  0.6936 -1.4856  0.1038
  771TIP3    H223805   1.707   3.355   4.791  0.6196  0.2987 -0.2474
  772TIP3   OH223806   3.540   3.834  11.318 -0.1778  0.2049  0.1883
  772TIP3    H123807   3.560   3.837  11.224  0.8969 -1.3339  0.3480
  772TIP3    H223808   3.530   3.741  11.337 -1.3365  0.5669  1.4246
  773TIP3   OH223809   0.482   1.110  17.089 -0.2114  0.9720 -0.3925
  773TIP3    H123810   0.557   1.114  17.030 -0.1025  1.2149 -0.2413
  773TIP3    H223811   0.510   1.052  17.160  0.0845  1.5916  0.0067
  774TIP3   OH223812   5.066   6.713   1.192  0.1024  0.1961 -0.8123
  774TIP3    H123813   4.975   6.721   1.219  0.0084 -0.0987 -1.0407
  774TIP3    H223814   5.065   6.735   1.099  0.0335 -1.2563 -1.1612
  775TIP3   OH223815   6.068   5.480  12.932  0.1232 -0.4063  0.5922
  775TIP3    H123816   6.075   5.560  12.984 -2.7536 -0.1415  0.6555
  775TIP3    H223817   6.068   5.510  12.841 -1.1450 -0.2997  0.6202
  776TIP3   OH223818   6.260   2.027  12.129 -0.0125  0.5056  0.3530
  776TIP3    H123819   6.338   2.040  12.182  0.1602  0.1658  0.1803
  776TIP3    H223820   6.237   1.934  12.141 -0.1184  0.4899  0.0328
  777TIP3   OH223821   4.259   3.197   3.370  0.8074 -0.5039  0.0925
  777TIP3    H123822   4.304   3.122   3.331  1.8790  0.3283 -0.3067
  777TIP3    H223823   4.184   3.159   3.416  0.4475 -1.6723 -1.4035
  778TIP3   OH223824   4.591   1.616   5.366 -0.1493  0.4571  1.0287
  778TIP3    H123825   4.583   1.698   5.415  0.3178  0.3651  1.2733
  778TIP3    H223826   4.606   1.643   5.276 -1.9739  0.6189  0.7689
  779TIP3   OH223827   1.581   3.824  12.438  0.5685 -0.2202 -0.2506
  779TIP3    H123828   1.631   3.747  12.466  1.9065  1.1315  1.1545
  779TIP3    H223829   1.569   3.876  12.517 -0.9356  0.6996 -1.0484
  780TIP3   OH223830   1.422   2.137  13.995  0.5174  0.1661 -0.6887
  780TIP3    H123831   1.494   2.085  14.030 -0.4791 -2.3676 -2.3320
  780TIP3    H223832   1.446   2.155  13.904 -0.8048 -0.4982 -1.1823
  781TIP3   OH223833   0.650   5.737   2.895  0.1493  0.2247 -0.8514
  781TIP3    H123834   0.696   5.816   2.923  0.4454 -0.1300 -0.3271
  781TIP3    H223835   0.584   5.722   2.962 -0.3770  0.4244 -1.3212
  782TIP3   OH223836   3.515   4.337   1.828 -0.1624 -0.0160  0.7723
  782TIP3    H123837   3.473   4.331   1.914 -0.8186 -0.0494  0.4530
  782TIP3    H223838   3.442   4.343   1.766  0.3251  1.7194  0.3384
  783TIP3   OH223839   6.031   6.586  16.336  0.4681 -0.2529  0.5839
  783TIP3    H123840   6.066   6.627  16.257 -0.3140  0.3147  0.5238
  783TIP3    H223841   5.980   6.511  16.305  0.0946  0.0175  0.5418
  784TIP3   OH223842   6.273   0.818   3.263 -0.2926 -0.3753  0.3560
  784TIP3    H123843   6.189   0.792   3.302  0.1336 -0.3033  1.3353
  784TIP3    H223844   6.318   0.866   3.332 -0.4447  1.6959 -0.9417
  785TIP3   OH223845   5.066   6.000   1.094  0.5791 -0.0726  0.0323
  785TIP3    H123846   5.028   5.919   1.062  1.0022 -0.9228  1.6377
  785TIP3    H223847   4.991   6.051   1.126  0.3753 -0.0648 -0.4600
  786TIP3   OH223848   6.279   1.004  15.152  0.8976  0.4950  0.1787
  786TIP3    H123849   6.193   0.970  15.129  0.9862  0.2105  0.2674
  786TIP3    H223850   6.261   1.091  15.189  0.6571  0.4712  0.1171
  787TIP3   OH223851   0.135   2.094   4.164 -0.6541  0.0181  0.1054
  787TIP3    H123852   0.201   2.164   4.166 -1.3936  0.8134 -2.1272
  787TIP3    H223853   0.130   2.068   4.072 -0.0824 -3.3244  0.9266
  788TIP3   OH223854   5.901   4.671  15.028 -0.7620 -0.0284  0.3200
  788TIP3    H123855   5.859   4.686  14.943  0.1952  1.0791  0.0343
  788TIP3    H223856   5.831   4.683  15.092 -1.2089  0.3868 -0.2421
  789TIP3   OH223857   0.461   2.323  13.454 -0.0830 -0.1670  0.6976
  789TIP3    H123858   0.381   2.278  13.480  0.6150 -1.2302  1.0318
  789TIP3    H223859   0.433   2.383  13.385 -1.0112 -1.2232  0.1384
  790TIP3   OH223860   0.368   0.861  14.408  0.1648  0.7868  0.0307
  790TIP3    H123861   0.287   0.909  14.421  1.0509  1.7775  2.1506
  790TIP3    H223862   0.436   0.928  14.404  1.2016 -0.1576  1.1773
  791TIP3   OH223863   3.101   5.652  11.267  0.1189 -0.2294 -0.0241
  791TIP3    H123864   3.033   5.591  11.295  0.6235  0.6309  3.2607
  791TIP3    H223865   3.182   5.601  11.269  0.1401 -0.1964 -0.0320
  792TIP3   OH223866   1.363   0.180  11.635  0.2011 -0.0959  0.2840
  792TIP3    H123867   1.432   0.234  11.675 -0.9387  1.2972  0.3864
  792TIP3    H223868   1.346   0.112  11.700  3.7052 -2.4185 -1.0434
  793TIP3   OH223869   1.405   5.402   4.903 -0.1760  0.1831  0.4998
  793TIP3    H123870   1.409   5.351   4.984  0.0814 -0.1862  0.2612
  793TIP3    H223871   1.333   5.464   4.916  0.3709  0.6583  1.3168
  794TIP3   OH223872   3.462   3.982   5.343  0.3365 -0.0091  0.1976
  794TIP3    H123873   3.383   4.017   5.302 -0.5731 -2.6643 -0.3639
  794TIP3    H223874   3.431   3.917   5.406  2.0684 -1.5140 -0.4429
  795TIP3   OH223875   2.224   4.880   3.920  0.1965 -0.4907  0.6958
  795TIP3    H123876   2.270   4.797   3.909  0.7895 -0.5746  3.5475
  795TIP3    H223877   2.292   4.942   3.944 -0.7013  0.1493  1.6065
  796TIP3   OH223878   0.358   1.558   2.596 -0.1622  0.0120 -0.2866
  796TIP3    H123879   0.415   1.576   2.671 -0.5478 -0.4512  0.1202
  796TIP3    H223880   0.412   1.579   2.520  0.4124 -0.0213  0.1040
  797TIP3   OH223881   6.595   2.629  13.680  0.4175 -0.7537  0.1353
  797TIP3    H123882   6.566   2.707  13.633  0.7303  0.5029  1.9912
  797TIP3    H223883   6.527   2.564  13.663  0.5038 -0.3297 -1.9974
  798TIP3   OH223884   3.461   3.214   0.297  0.1895  0.4538 -0.4996
  798TIP3    H123885   3.462   3.123   0.270  1.5965  0.3942 -0.3031
  798TIP3    H223886   3.544   3.226   0.344 -0.6679  1.4367  0.7879
  799TIP3   OH223887   3.626   1.360  15.570  0.3680 -0.2808 -0.0792
  799TIP3    H123888   3.545   1.309  15.582  0.4520 -0.3980 -0.0007
  799TIP3    H223889   3.607   1.420  15.498 -0.0350  0.1955  0.4232
  800TIP3   OH223890   0.985   6.130  11.811  0.2804  0.1594  0.4103
  800TIP3    H123891   1.034   6.154  11.732  0.3291 -0.6888  0.1863
  800TIP3    H223892   0.922   6.065  11.782  0.6430 -0.5390  1.1601
  801TIP3   OH223893   5.211   2.615  10.641  0.4083  0.7079 -0.1417
  801TIP3    H123894   5.226   2.706  10.666  0.5427  0.8599 -0.7543
  801TIP3    H223895   5.270   2.601  10.567  0.0311  0.2690 -0.3587
  802TIP3   OH223896   6.212   3.032   3.685 -0.1301  0.6469 -0.1448
  802TIP3    H123897   6.206   3.128   3.691 -1.0782  0.6050 -0.4468
  802TIP3    H223898   6.127   3.004   3.652  0.1629 -0.3041 -0.1116
  803TIP3   OH223899   0.162   4.055   0.245  0.2997 -0.7045 -0.0193
  803TIP3    H123900   0.085   4.082   0.296  0.1380  0.7049 -0.9659
  803TIP3    H223901   0.126   4.026   0.161  0.8396  0.5919 -0.7105
  804TIP3   OH223902   2.211   1.537   3.167 -0.0998 -0.5448  0.1074
  804TIP3    H123903   2.286   1.559   3.111  0.5205  0.2867  1.2461
  804TIP3    H223904   2.135   1.549   3.110  0.4478  1.4086 -0.2598
  805TIP3   OH223905   3.127   5.165  15.865  0.7178  0.5926  0.2995
  805TIP3    H123906   3.072   5.194  15.938  0.6560 -0.1596  0.5464
  805TIP3    H223907   3.197   5.231  15.861 -0.8600  2.2546 -0.7991
  806TIP3   OH223908   6.668   1.159  15.331  0.7293  0.2179 -0.5740
  806TIP3    H123909   6.609   1.162  15.406  0.2437  0.6214 -0.9742
  806TIP3    H223910   6.653   1.073  15.292 -1.1246  1.1214 -1.9112
  807TIP3   OH223911   3.581   5.891   5.574  0.2270 -0.5190 -0.5806
  807TIP3    H123912   3.607   5.920   5.661  1.8441  1.0619 -1.5537
  807TIP3    H223913   3.530   5.964   5.538 -0.1506 -1.0241 -1.0818
  808TIP3   OH223914   6.616   1.607   1.939  0.3285  0.7738  0.0202
  808TIP3    H123915   6.705   1.573   1.938  0.3649  0.8684  0.0860
  808TIP3    H223916   6.617   1.677   2.003  0.4901  1.5308 -0.8053
  809TIP3   OH223917   4.610   3.761   2.099  0.2457  0.1192 -0.3562
  809TIP3    H123918   4.694   3.795   2.131  0.4401 -0.4414 -0.2563
  809TIP3    H223919   4.631   3.723   2.014 -0.6034  3.1400 -2.0030
  810TIP3   OH223920   6.626   5.438  12.327 -0.0366  0.5936 -0.1674
  810TIP3    H123921   6.614   5.405  12.238 -3.1456  1.5973 -0.1916
  810TIP3    H223922   6.608   5.362  12.383  1.0180  0.1929 -0.3597
  811TIP3   OH223923   4.170   3.941   4.222  0.4087  0.2336 -0.6123
  811TIP3    H123924   4.165   3.846   4.210 -0.6982  0.0618  1.0785
  811TIP3    H223925   4.169   3.976   4.133 -0.1668 -1.2878 -1.2220
  812TIP3   OH223926   2.780   6.542  13.298  0.2830  0.2844 -0.4442
  812TIP3    H123927   2.834   6.567  13.222  0.1222  2.1524  0.0248
  812TIP3    H223928   2.843   6.523  13.367  0.3910  0.4870 -0.4862
  813TIP3   OH223929   0.592   3.863  10.931  0.1886 -0.2042  0.2690
  813TIP3    H123930   0.684   3.841  10.943  0.5612  1.0716 -0.1410
  813TIP3    H223931   0.549   3.832  11.011  0.9777 -0.7932  0.4620
  814TIP3   OH223932   6.679   6.432   4.821  1.0700  0.6031 -0.0113
  814TIP3    H123933   6.702   6.395   4.736  1.8939  0.4788  0.2680
  814TIP3    H223934   6.728   6.381   4.885 -1.9012 -1.3516  0.8173
  815TIP3   OH223935   4.227   6.708   6.592  0.3811 -0.1868  0.5819
  815TIP3    H123936   4.297   6.645   6.612  0.2332 -0.8528 -0.8798
  815TIP3    H223937   4.239   6.778   6.655  2.7030 -0.0546  0.0581
  816TIP3   OH223938   6.812   0.752  11.723  0.5106  0.8685  0.1165
  816TIP3    H123939   6.735   0.790  11.680  0.5415  0.6163 -0.1631
  816TIP3    H223940   6.856   0.827  11.763  0.6275  1.1474 -0.5263
  817TIP3   OH223941   4.585   0.031   2.517  0.3508 -0.2301 -0.4257
  817TIP3    H123942   4.657   0.055   2.459  0.1477  1.3639 -0.0348
  817TIP3    H223943   4.539   0.113   2.534  0.0764 -0.7687  1.5516
  818TIP3   OH223944   2.699   1.540   3.815  0.2134  0.4702  0.5410
  818TIP3    H123945   2.648   1.503   3.742  0.2438 -1.2529  1.3599
  818TIP3    H223946   2.641   1.605   3.854 -0.9071 -0.5955  0.6913
  819TIP3   OH223947   2.667   1.074  12.345  0.9877 -0.1223 -0.2908
  819TIP3    H123948   2.726   1.118  12.406 -0.4918  1.1383  0.2541
  819TIP3    H223949   2.632   1.000  12.394  1.8920 -0.7096 -0.5221
  820TIP3   OH223950   2.842   3.902   3.584  0.8297 -0.4040  0.1834
  820TIP3    H123951   2.842   3.858   3.669 -1.2368  1.1909  1.0596
  820TIP3    H223952   2.755   3.887   3.549  1.6041 -0.8761 -1.5882
  821TIP3   OH223953   2.791   0.159  15.707  0.0117 -0.1231 -0.0613
  821TIP3    H123954   2.765   0.175  15.616  1.4328 -0.9409 -0.6224
  821TIP3    H223955   2.884   0.181  15.709 -0.0710  0.1237  1.2654
  822TIP3   OH223956   6.811   4.456  12.165 -0.7548 -0.2103  0.0315
  822TIP3    H123957   6.756   4.531  12.188 -0.2969 -0.0625  0.6352
  822TIP3    H223958   6.770   4.420  12.086  0.2287  1.9271 -1.4808
  823TIP3   OH223959   6.175   5.519  16.262 -0.2505 -0.5224  0.2378
  823TIP3    H123960   6.116   5.444  16.248 -1.9510  0.1958  3.0514
  823TIP3    H223961   6.262   5.480  16.271 -0.8319 -1.9812 -0.2549
  824TIP3   OH223962   3.776   6.205   3.337  0.9129  0.1671  0.6594
  824TIP3    H123963   3.801   6.258   3.262 -0.8674 -1.2386 -0.9641
  824TIP3    H223964   3.857   6.163   3.365  1.8666  1.8398  0.4805
  825TIP3   OH223965   3.168   6.065   3.833  0.3613 -0.1372 -0.4600
  825TIP3    H123966   3.128   5.978   3.841  0.1635 -0.1006 -1.0264
  825TIP3    H223967   3.163   6.085   3.740 -1.1076  1.2125 -0.1034
  826TIP3   OH223968   5.880   4.606   5.668 -0.5575  0.0086  0.4765
  826TIP3    H123969   5.830   4.596   5.587 -1.3890  1.8736  0.7552
  826TIP3    H223970   5.847   4.536   5.725 -1.6345  0.1704  0.0570
  827TIP3   OH223971   5.002   2.479  12.935  0.2037 -0.2900 -0.1060
  827TIP3    H123972   4.958   2.394  12.942 -0.9570  0.5804  4.0756
  827TIP3    H223973   5.095   2.459  12.945  0.1762 -1.3373 -1.8126
  828TIP3   OH223974   1.274   1.042   1.419 -0.0978 -0.1887  0.0197
  828TIP3    H123975   1.219   1.091   1.358  0.0838  0.2918  0.2351
  828TIP3    H223976   1.362   1.047   1.381 -0.3900 -1.9525 -0.9348
  829TIP3   OH223977   6.478   4.430  14.566  0.1155 -0.1194  0.1119
  829TIP3    H123978   6.429   4.509  14.590 -0.0020 -0.7017  1.8191
  829TIP3    H223979   6.570   4.456  14.569  0.2797 -0.8265  3.8497
  830TIP3   OH223980   1.277   1.077  13.374  0.3017  0.0150 -0.0068
  830TIP3    H123981   1.230   1.157  13.351 -0.5240 -0.0421  1.4217
  830TIP3    H223982   1.219   1.032  13.435  1.6213 -0.7031  0.7360
  831TIP3   OH223983   2.292   5.732  16.764 -0.3356 -0.3826 -0.1114
  831TIP3    H123984   2.309   5.671  16.836 -2.5377 -0.6250  0.2442
  831TIP3    H223985   2.220   5.692  16.716  1.0444 -0.1800 -2.4263
  832TIP3   OH223986   5.744   3.398  16.116 -0.5275  0.7098  0.9228
  832TIP3    H123987   5.731   3.464  16.049  0.5541  0.1501  0.1337
  832TIP3    H223988   5.821   3.349  16.087 -0.8531 -0.4093  1.8763
  833TIP3   OH223989   5.570   5.196  15.033 -0.2535 -0.3418  0.0278
  833TIP3    H123990   5.627   5.258  15.079  0.1183 -0.0595 -0.8053
  833TIP3    H223991   5.577   5.115  15.083 -0.2226  0.0984  0.7472
  834TIP3   OH223992   6.449   0.585  14.646  0.1702 -0.1756  0.1544
  834TIP3    H123993   6.400   0.644  14.589 -1.7084 -0.7058  1.2025
  834TIP3    H223994   6.520   0.639  14.681 -1.6418  1.5427  1.2663
  835TIP3   OH223995   5.380   5.405  17.027 -0.0274 -0.5615  0.3440
  835TIP3    H123996   5.301   5.364  17.062 -0.2536 -0.1594  0.3170
  835TIP3    H223997   5.442   5.333  17.017 -0.4787 -0.9267  0.1190
  836TIP3   OH223998   5.626   3.200  14.537 -0.1547 -0.4417 -0.0699
  836TIP3    H123999   5.630   3.159  14.450  1.5412 -1.0930  0.3040
  836TIP3    H224000   5.539   3.238  14.541 -0.8161 -1.7586 -1.4546
  837TIP3   OH224001   4.693   3.452   0.455 -0.6172 -0.1498  0.1151
  837TIP3    H124002   4.673   3.364   0.488  3.2666 -1.3754 -0.5239
  837TIP3    H224003   4.641   3.460   0.375  0.2316 -2.5586 -0.7182
  838TIP3   OH224004   1.344   4.434  17.161 -0.6681  0.1630 -0.5310
  838TIP3    H124005   1.251   4.418  17.148 -0.6145  1.1988 -2.4382
  838TIP3    H224006   1.388   4.375  17.100  0.0437 -1.8334  1.8399
  839TIP3   OH224007   3.152   6.818   1.244 -0.0487  0.2410  0.6136
  839TIP3    H124008   3.125   6.781   1.327 -0.1539 -0.6266  0.1924
  839TIP3    H224009   3.098   6.897   1.234 -1.8862 -1.0584  0.1297
  840TIP3   OH224010   4.500   0.688   3.780  0.0032 -0.1514 -0.5518
  840TIP3    H124011   4.450   0.744   3.720  0.3196 -0.2060 -0.8635
  840TIP3    H224012   4.487   0.599   3.747  0.1905 -0.1804 -0.5446
  841TIP3   OH224013   1.733   2.781   3.156  0.4535  0.4193 -0.2606
  841TIP3    H124014   1.762   2.691   3.173  1.0270  0.8557  1.0975
  841TIP3    H224015   1.801   2.817   3.099  1.5175  0.7727  1.2169
  842TIP3   OH224016   4.809   4.453  15.847 -0.2382 -0.4123 -0.2629
  842TIP3    H124017   4.901   4.458  15.870 -0.3214  0.6240 -0.1315
  842TIP3    H224018   4.776   4.378  15.897  0.1401  0.2709  1.0429
  843TIP3   OH224019   4.052   3.266   6.547  0.2902 -0.1673 -0.3925
  843TIP3    H124020   4.039   3.310   6.631  1.3271  1.1579 -0.9030
  843TIP3    H224021   4.140   3.293   6.519  0.1825 -1.0452 -1.6399
  844TIP3   OH224022   4.106   1.545  13.524 -0.2411  0.0248 -0.5971
  844TIP3    H124023   4.194   1.513  13.503 -0.3047 -2.2187  2.2276
  844TIP3    H224024   4.059   1.467  13.553 -2.4708  1.5946  0.1124
  845TIP3   OH224025   6.563   5.907  14.579 -0.3452  0.2497  0.0179
  845TIP3    H124026   6.494   5.898  14.644  1.5237 -2.6853  1.6898
  845TIP3    H224027   6.540   5.845  14.510 -0.3088  0.5561 -0.2709
  846TIP3   OH224028   0.056   2.564   1.212 -0.1722 -0.0770  0.3850
  846TIP3    H124029  -0.027   2.612   1.204 -0.4615 -0.4876  0.9106
  846TIP3    H224030   0.092   2.592   1.296  0.3406  0.2846  0.0450
  847TIP3   OH224031   1.383   0.759  15.750 -0.2157 -0.1783  0.5737
  847TIP3    H124032   1.394   0.712  15.832  1.8125  0.4051  0.6613
  847TIP3    H224033   1.455   0.730  15.695 -0.4413  0.8692 -0.3172
  848TIP3   OH224034   0.256   0.599  11.179 -0.2205  0.7678  0.2213
  848TIP3    H124035   0.175   0.620  11.226 -0.8476  1.0081 -0.9693
  848TIP3    H224036   0.283   0.515  11.216 -2.3707 -0.5776 -1.1443
  849TIP3   OH224037   0.083   1.795  12.981 -0.1824  0.0645 -0.2531
  849TIP3    H124038   0.061   1.764  12.893 -0.2768  2.4653 -1.1352
  849TIP3    H224039   0.094   1.716  13.033 -1.8424 -1.3878 -2.0164
  850TIP3   OH224040   3.434   1.127   1.447  0.1927 -0.2374 -0.1061
  850TIP3    H124041   3.514   1.152   1.493  0.1193  0.6462 -0.4484
  850TIP3    H224042   3.374   1.100   1.517  0.4893 -0.0601  0.2231
  851TIP3   OH224043   3.352   2.961   3.038 -0.1715 -0.2433 -0.5857
  851TIP3    H124044   3.444   2.971   3.014  0.4564  0.5339  1.9576
  851TIP3    H224045   3.338   3.027   3.106 -1.5046 -3.0661  1.9716
  852TIP3   OH224046   2.003   3.970  11.398 -0.3296 -0.0306  0.4037
  852TIP3    H124047   1.926   3.931  11.356 -0.1102  0.4300 -0.4219
  852TIP3    H224048   1.967   4.029  11.464 -0.6768 -0.4852  0.6227
  853TIP3   OH224049   6.199   4.733   3.073  0.5688 -0.1636 -0.0462
  853TIP3    H124050   6.218   4.826   3.062  1.7382 -0.4657 -0.6317
  853TIP3    H224051   6.273   4.699   3.123  1.9241 -1.4495 -2.8216
  854TIP3   OH224052   6.547   5.908   0.387  0.4258 -0.4664  0.3374
  854TIP3    H124053   6.493   5.982   0.412 -1.5647 -2.3291  1.7535
  854TIP3    H224054   6.620   5.909   0.450  0.9411  0.8163 -0.2606
  855TIP3   OH224055   3.508   3.426   2.037  0.0705  0.3713 -0.3908
  855TIP3    H124056   3.564   3.400   1.963 -0.9944 -1.1539 -0.6765
  855TIP3    H224057   3.498   3.521   2.026  2.9908  0.7735 -0.0527
  856TIP3   OH224058   3.822   6.664   2.856  0.6485 -0.4373  0.0015
  856TIP3    H124059   3.789   6.702   2.775  1.5366  1.6652  0.5986
  856TIP3    H224060   3.900   6.615   2.830 -0.2708 -1.5452 -0.7117
  857TIP3   OH224061   5.862   4.600   3.944 -0.5139  0.5632  0.5360
  857TIP3    H124062   5.814   4.517   3.939  2.1716 -0.9075 -2.1339
  857TIP3    H224063   5.953   4.575   3.960  0.5232  2.8793 -1.3958
  858TIP3   OH224064   4.858   3.338   0.935  0.5854 -0.6207  0.1992
  858TIP3    H124065   4.874   3.312   1.026  0.7151  1.2649  0.7494
  858TIP3    H224066   4.782   3.397   0.940  0.7478 -0.3091 -0.8759
  859TIP3   OH224067   1.048   4.490   4.892 -0.2014  0.2523  0.0991
  859TIP3    H124068   1.058   4.418   4.954  0.1286 -0.0137 -0.2565
  859TIP3    H224069   0.965   4.531   4.916 -0.7417 -0.6794 -0.1284
  860TIP3   OH224070   3.558   1.480  15.337 -0.0465 -0.4804  0.5689
  860TIP3    H124071   3.520   1.560  15.300 -0.0072 -0.0101  1.5206
  860TIP3    H224072   3.592   1.432  15.262 -0.5004  0.1762 -0.0568
  861TIP3   OH224073   2.042   6.448   0.998  0.5227 -0.2428  0.3484
  861TIP3    H124074   1.986   6.407   0.932  1.2804 -3.0201  1.3517
  861TIP3    H224075   2.123   6.396   0.995  1.1741  0.6322  2.3030
  862TIP3   OH224076   4.434   2.528   5.867 -0.2624 -0.0827  0.5021
  862TIP3    H124077   4.390   2.493   5.789  0.2234 -1.5411  0.8725
  862TIP3    H224078   4.464   2.615   5.840 -0.5770 -0.3535 -0.7708
  863TIP3   OH224079   4.065   5.345   0.423 -0.6206  0.4290  0.4281
  863TIP3    H124080   4.053   5.436   0.450 -0.8350  0.3102  0.7484
  863TIP3    H224081   4.007   5.335   0.347  0.1519  0.8248 -0.2187
  864TIP3   OH224082   2.106   2.659   6.134  0.3159  0.3147  0.0950
  864TIP3    H124083   2.131   2.661   6.226 -0.3089 -3.5929  0.4450
  864TIP3    H224084   2.035   2.722   6.126 -0.0182  0.2510  2.4280
  865TIP3   OH224085   5.535   1.615   0.318  0.4539  0.0800 -0.3743
  865TIP3    H124086   5.504   1.650   0.234  0.2728 -0.8868 -0.7265
  865TIP3    H224087   5.598   1.546   0.293  0.1411 -0.4479  0.2713
  866TIP3   OH224088   5.694   6.217  12.574  0.0086 -0.1428 -0.2767
  866TIP3    H124089   5.668   6.287  12.514  0.8352  0.0843 -0.3763
  866TIP3    H224090   5.730   6.149  12.517  2.2748  0.7218  0.0364
  867TIP3   OH224091   3.259   0.914   2.299  0.3527  0.0971 -0.1268
  867TIP3    H124092   3.299   0.829   2.320 -0.5834 -0.1561  0.6991
  867TIP3    H224093   3.165   0.898   2.308  0.1561  1.1222 -0.3813
  868TIP3   OH224094   3.657   0.903  14.130 -0.3690  0.3939 -0.4241
  868TIP3    H124095   3.592   0.884  14.061  0.3303  0.9181 -1.2323
  868TIP3    H224096   3.653   0.826  14.187  1.0902 -1.4162 -2.6419
  869TIP3   OH224097   2.272   5.937  15.186  0.3469  0.4175 -0.4164
  869TIP3    H124098   2.250   5.871  15.252 -0.6137 -0.2911 -1.4236
  869TIP3    H224099   2.322   6.003  15.234 -0.5852  0.0616  1.0939
  870TIP3   OH224100   0.640   5.663   2.179 -0.0921  0.1313 -0.1230
  870TIP3    H124101   0.636   5.752   2.142 -0.4056  0.3679  0.4771
  870TIP3    H224102   0.550   5.631   2.171 -0.0255 -0.0514 -0.1297
  871TIP3   OH224103   0.001   2.466   3.006  0.8293 -0.2183  0.1105
  871TIP3    H124104   0.095   2.461   2.991  0.6668  0.3357 -1.1010
  871TIP3    H224105  -0.013   2.553   3.043  0.8173 -0.4089  0.5686
  872TIP3   OH224106   0.708   5.935   0.413 -0.1370  0.2725 -0.1303
  872TIP3    H124107   0.671   5.988   0.484 -0.6639 -1.5578  1.0323
  872TIP3    H224108   0.689   5.844   0.439  1.6111 -0.5437 -1.5307
  873TIP3   OH224109   6.221   5.898  16.483  0.1089 -0.8590 -0.4637
  873TIP3    H124110   6.185   5.983  16.507 -1.5458 -1.3863 -1.0555
  873TIP3    H224111   6.162   5.834  16.523  2.4140 -1.7774  1.6233
  874TIP3   OH224112   4.803   3.133  11.496  0.8306  0.9478 -0.6756
  874TIP3    H124113   4.859   3.200  11.459 -1.2481  1.9634 -2.0820
  874TIP3    H224114   4.825   3.132  11.590  0.9523  3.5083 -0.6416
  875TIP3   OH224115   6.495   4.225  12.288 -0.3808 -0.7709 -0.3718
  875TIP3    H124116   6.451   4.230  12.373 -1.8719  0.0916 -1.1784
  875TIP3    H224117   6.425   4.238  12.224  0.7896 -1.0546 -1.7242
  876TIP3   OH224118   4.099   3.429   4.322 -0.0581 -0.5480 -0.2980
  876TIP3    H124119   4.017   3.381   4.313  0.4964 -1.5832  0.1047
  876TIP3    H224120   4.097   3.464   4.411 -0.0695 -0.5679 -0.2901
  877TIP3   OH224121   2.435   2.074  16.235  0.4740 -0.2590 -0.9156
  877TIP3    H124122   2.514   2.106  16.190  0.2010  0.8077 -0.6551
  877TIP3    H224123   2.366   2.082  16.169  0.0696  1.3216 -0.3356
  878TIP3   OH224124   1.165   0.323  14.745 -0.1279  0.0472 -0.1749
  878TIP3    H124125   1.244   0.369  14.776 -0.9309  0.5701  1.1772
  878TIP3    H224126   1.130   0.380  14.676 -0.0890  0.5282  0.1973
  879TIP3   OH224127   5.779   6.290   0.401  0.3696 -0.4364  0.0470
  879TIP3    H124128   5.696   6.333   0.420  0.5255  1.0796 -2.4924
  879TIP3    H224129   5.757   6.222   0.337  0.5897 -2.2825  1.8705
  880TIP3   OH224130   3.520   6.770   2.316 -0.1569 -0.2712 -0.7189
  880TIP3    H124131   3.573   6.849   2.313 -1.0105  0.4438  1.9600
  880TIP3    H224132   3.489   6.758   2.226 -0.4108  2.6912 -1.0568
  881TIP3   OH224133   3.944   2.439   3.251 -0.1252  0.1106  0.2045
  881TIP3    H124134   3.994   2.507   3.207 -0.9132 -0.0071 -0.9045
  881TIP3    H224135   3.972   2.444   3.342 -0.2442  2.0004  0.1710
  882TIP3   OH224136   0.775   5.083   5.432  0.1486  0.4463 -0.0100
  882TIP3    H124137   0.856   5.120   5.397 -0.1360  1.9271  0.8357
  882TIP3    H224138   0.780   5.100   5.526 -1.2250  0.7336  0.0228
  883TIP3   OH224139   3.189   4.291  12.281 -0.0421  0.0555 -0.7678
  883TIP3    H124140   3.241   4.368  12.259  1.2283 -1.0569 -1.8028
  883TIP3    H224141   3.132   4.279  12.205 -0.6679  0.3202 -0.3420
  884TIP3   OH224142   3.911   0.529   1.818 -0.0591 -0.1822  0.4528
  884TIP3    H124143   3.961   0.471   1.875  0.8036  1.5130  1.4545
  884TIP3    H224144   3.939   0.507   1.730  2.7746  0.9982  1.0115
  885TIP3   OH224145   0.137   4.287  14.690  0.1394 -0.0861  0.1231
  885TIP3    H124146   0.174   4.362  14.737 -0.0816 -1.4205  2.5301
  885TIP3    H224147   0.195   4.214  14.712 -0.7134 -1.0125 -0.6496
  886TIP3   OH224148   1.089   6.116  14.524  0.3356  0.5150  0.0237
  886TIP3    H124149   0.996   6.137  14.529  0.0932 -0.8170  1.2927
  886TIP3    H224150   1.126   6.186  14.470 -1.4056  1.0097 -0.5563
  887TIP3   OH224151   0.924   0.146   4.528  0.1276 -0.3187 -0.0698
  887TIP3    H124152   0.994   0.195   4.485 -0.2864 -0.1379 -0.5450
  887TIP3    H224153   0.914   0.067   4.475 -0.3098 -0.1466 -0.2529
  888TIP3   OH224154   6.383   0.431  13.062 -0.4681 -0.3335  0.2342
  888TIP3    H124155   6.304   0.461  13.017 -1.1917 -0.0964  1.6252
  888TIP3    H224156   6.455   0.470  13.013 -1.3035  1.4743  0.4074
  889TIP3   OH224157   4.625   6.814  14.359 -0.7380 -0.7610 -0.3937
  889TIP3    H124158   4.633   6.719  14.369  0.2116 -0.7156 -0.6313
  889TIP3    H224159   4.618   6.848  14.448  0.0097 -0.9692 -0.2518
  890TIP3   OH224160   4.571   0.795   4.155 -0.1608  0.8383 -0.0786
  890TIP3    H124161   4.484   0.791   4.115  0.7307 -0.9544 -1.9227
  890TIP3    H224162   4.613   0.871   4.114 -0.2619  0.6934 -0.4523
  891TIP3   OH224163   1.348   5.760   1.245 -1.1116 -0.0316  0.5157
  891TIP3    H124164   1.295   5.682   1.227 -1.5948  0.2200  0.8415
  891TIP3    H224165   1.335   5.776   1.338  1.7309 -1.5988  1.2378
  892TIP3   OH224166   0.267   5.134  11.543 -0.2415  0.8048 -0.7056
  892TIP3    H124167   0.345   5.183  11.568  0.0828 -1.0974  2.3372
  892TIP3    H224168   0.196   5.176  11.591 -0.3236 -0.2457  0.1143
  893TIP3   OH224169   1.569   6.313   4.076 -1.4771 -0.3843 -0.3149
  893TIP3    H124170   1.661   6.290   4.063 -0.7873  0.3460  2.9122
  893TIP3    H224171   1.565   6.407   4.061 -1.6951 -0.3990 -0.3581
  894TIP3   OH224172   3.372   0.336  11.449 -0.2081 -0.0387  0.3562
  894TIP3    H124173   3.467   0.326  11.449 -0.3052 -0.9344  0.0857
  894TIP3    H224174   3.345   0.307  11.362 -0.6081  1.4642 -0.0501
  895TIP3   OH224175   1.025   6.586   2.784  0.3729  0.6356 -0.2024
  895TIP3    H124176   1.051   6.668   2.742  1.4315  0.3240 -0.1564
  895TIP3    H224177   1.107   6.548   2.815 -0.1313 -0.3777 -0.1119
  896TIP3   OH224178   3.354   1.942  16.174 -0.4320  0.0040  0.2896
  896TIP3    H124179   3.407   1.868  16.141 -0.0578 -0.5206  2.0440
  896TIP3    H224180   3.284   1.952  16.109  0.5012 -0.7781 -0.8610
  897TIP3   OH224181   2.507   0.738   6.200  0.3024 -0.0437 -0.2075
  897TIP3    H124182   2.425   0.693   6.217 -0.1684  0.5770 -0.8407
  897TIP3    H224183   2.514   0.804   6.270  0.2194 -0.0396 -0.2040
  898TIP3   OH224184   5.876   2.993  12.465  0.5584  1.1902 -0.2760
  898TIP3    H124185   5.902   3.036  12.547 -1.4974  3.4991 -0.7717
  898TIP3    H224186   5.927   3.038  12.398  0.2294  1.1532 -0.5511
  899TIP3   OH224187   6.608   2.373   6.279  0.3364  0.8179  0.6637
  899TIP3    H124188   6.570   2.328   6.203  1.2032  2.3619 -0.7253
  899TIP3    H224189   6.631   2.303   6.340 -1.7250 -0.3534  0.1313
  900TIP3   OH224190   1.147   3.315  16.564 -0.2253  0.2551  0.0514
  900TIP3    H124191   1.169   3.379  16.632 -1.6569  0.1856  0.5968
  900TIP3    H224192   1.128   3.234  16.611  0.6808 -0.3256 -0.5686
  901TIP3   OH224193   5.191   0.503   2.594  0.3180  0.0866 -0.6691
  901TIP3    H124194   5.228   0.415   2.604 -0.8695 -0.5178 -1.4007
  901TIP3    H224195   5.261   0.554   2.554  0.6962 -0.7918 -1.1603
  902TIP3   OH224196   2.667   2.056  14.058  0.5637  0.1255  0.2254
  902TIP3    H124197   2.757   2.030  14.079  0.6881  0.1661 -0.2549
  902TIP3    H224198   2.612   1.998  14.111  0.8914  1.3506  1.9652
  903TIP3   OH224199   6.723   5.831   3.450  0.1593 -0.2284  0.4959
  903TIP3    H124200   6.774   5.894   3.501 -0.7895  0.2332  0.8983
  903TIP3    H224201   6.633   5.863   3.456 -0.2527 -1.3073  0.2135
  904TIP3   OH224202   5.402   2.403  13.937  0.1392  0.3782  0.2165
  904TIP3    H124203   5.429   2.398  14.029 -1.9457  1.2097  0.8913
  904TIP3    H224204   5.480   2.435  13.892  1.1160  0.2143  1.7311
  905TIP3   OH224205   6.235   6.619   6.256  0.1982 -0.4676 -0.2918
  905TIP3    H124206   6.150   6.574   6.253  1.1399 -2.2809 -1.1186
  905TIP3    H224207   6.269   6.600   6.344  0.7096 -1.6820 -0.7250
  906TIP3   OH224208   1.934   2.671  12.855  0.4598  0.2908  0.7476
  906TIP3    H124209   1.906   2.604  12.793 -0.2015  0.6496  0.6521
  906TIP3    H224210   2.028   2.679  12.842  0.6870 -1.2180  1.3423
  907TIP3   OH224211   6.092   1.321   5.245  0.2190 -0.0090  0.0327
  907TIP3    H124212   6.170   1.334   5.192 -0.7470 -0.1425 -1.4384
  907TIP3    H224213   6.032   1.390   5.217 -1.1704 -1.4951 -0.6949
  908TIP3   OH224214   0.373   5.509   1.701  0.1788  0.2781 -0.2858
  908TIP3    H124215   0.317   5.463   1.763 -1.3925  1.7727 -0.5664
  908TIP3    H224216   0.452   5.528   1.750 -0.3702 -0.0413  0.7390
  909TIP3   OH224217   3.178   5.579   5.332  0.1620  0.2931 -0.1652
  909TIP3    H124218   3.227   5.504   5.366  3.2274  1.2915 -2.1924
  909TIP3    H224219   3.140   5.547   5.250 -1.4136 -0.0434  0.6836
  910TIP3   OH224220   2.999   2.192  13.147  0.2120 -0.0140  0.0193
  910TIP3    H124221   2.964   2.272  13.108  0.6710  1.0770  1.8000
  910TIP3    H224222   3.014   2.134  13.073 -0.5653  1.3839 -1.2550
  911TIP3   OH224223   2.801   4.347  15.558  0.0699  0.1946 -0.1877
  911TIP3    H124224   2.764   4.368  15.644  1.0579 -0.1772  0.3321
  911TIP3    H224225   2.876   4.407  15.549  0.8146 -0.7208 -0.1821
  912TIP3   OH224226   2.922   4.987  14.770 -0.2464  0.0570  0.0602
  912TIP3    H124227   2.882   4.905  14.743  0.4344 -0.8372  1.7264
  912TIP3    H224228   2.870   5.017  14.844 -1.9720  2.3917 -2.0273
  913TIP3   OH224229   2.186   3.636  14.407  0.3953 -0.1034 -0.4673
  913TIP3    H124230   2.187   3.547  14.441 -0.1140  0.4471  1.0395
  913TIP3    H224231   2.120   3.635  14.338 -0.1068 -0.7124  0.0210
  914TIP3   OH224232   3.643   5.929  14.119  0.3405 -0.1052 -0.1889
  914TIP3    H124233   3.646   5.932  14.024  2.1182 -1.7787 -0.2252
  914TIP3    H224234   3.556   5.894  14.140 -0.0001  0.1398 -1.1965
  915TIP3   OH224235   0.378   5.742  15.419  0.3848 -0.7500  0.2225
  915TIP3    H124236   0.402   5.653  15.445  0.8050 -0.8943 -0.6541
  915TIP3    H224237   0.428   5.799  15.478  1.7229 -1.0674 -0.5924
  916TIP3   OH224238   6.570   2.980   5.022 -0.1056  0.4619 -0.4086
  916TIP3    H124239   6.648   2.975   5.077 -0.2100  1.8081 -0.1323
  916TIP3    H224240   6.557   2.891   4.990  2.1021  0.4246 -1.2437
  917TIP3   OH224241   0.216   5.197  14.575  0.5100  0.1410 -0.5690
  917TIP3    H124242   0.203   5.105  14.597  0.7799  0.4200  0.7970
  917TIP3    H224243   0.306   5.215  14.600  0.3183  0.8919 -0.4043
  918TIP3   OH224244   3.129   5.932  16.184 -0.5804  0.1882 -0.1034
  918TIP3    H124245   3.128   5.975  16.270 -2.3475 -0.7079  0.3438
  918TIP3    H224246   3.037   5.914  16.165 -0.0226 -1.6842 -1.1477
  919TIP3   OH224247   5.510   6.192  15.940 -0.7708  0.3592 -0.0570
  919TIP3    H124248   5.603   6.181  15.922 -0.6743 -0.3228  0.8385
  919TIP3    H224249   5.502   6.283  15.970 -0.2211  0.1015  0.8926
  920TIP3   OH224250   5.970   1.971  17.272 -0.0549  0.2493 -0.3695
  920TIP3    H124251   6.002   1.959  17.362  0.6829  0.7121 -0.5646
  920TIP3    H224252   5.875   1.959  17.279 -0.2434  2.1020  0.8065
  921TIP3   OH224253   3.808   6.001   3.810 -0.3245  0.6252  1.0086
  921TIP3    H124254   3.856   5.924   3.781  1.0440  0.9572  2.3422
  921TIP3    H224255   3.776   5.978   3.897  0.1655  1.5788  1.4480
  922TIP3   OH224256   5.393   4.194   2.409 -0.0252  0.4897  0.4096
  922TIP3    H124257   5.363   4.273   2.455  1.0130  1.3497 -0.3627
  922TIP3    H224258   5.470   4.165   2.459 -1.4734 -1.1284  1.7890
  923TIP3   OH224259   3.775   0.381  16.387 -0.1521 -1.0727 -0.1161
  923TIP3    H124260   3.813   0.335  16.312  1.7086 -3.3472  2.1206
  923TIP3    H224261   3.697   0.329  16.409 -0.7567 -0.3456 -0.5122
  924TIP3   OH224262   2.037   5.216  13.485 -0.3941  0.2559  0.4857
  924TIP3    H124263   1.948   5.252  13.490 -1.0417 -1.2342 -0.2190
  924TIP3    H224264   2.025   5.122  13.471  1.2951 -0.0346  0.8159
  925TIP3   OH224265   2.068   2.702  12.546  0.0932 -0.3386 -0.0104
  925TIP3    H124266   2.108   2.685  12.631 -2.0159 -0.8542  0.8987
  925TIP3    H224267   2.106   2.636  12.488  1.5279  0.0021  0.5281
  926TIP3   OH224268   5.783   2.433   0.232 -0.0903 -0.2704 -0.2215
  926TIP3    H124269   5.812   2.445   0.323  0.4253  0.6414 -0.4948
  926TIP3    H224270   5.690   2.414   0.239 -0.1345  0.1782  0.4857
  927TIP3   OH224271   5.520   0.307  14.156 -0.2520  0.2551  0.0155
  927TIP3    H124272   5.599   0.291  14.104 -0.1088  0.5831  0.1277
  927TIP3    H224273   5.500   0.400  14.142  0.8044  0.8110  1.9153
  928TIP3   OH224274   2.243   4.155  15.226  0.4431 -0.0077  0.5573
  928TIP3    H124275   2.155   4.192  15.229  0.1174 -0.7316  0.0506
  928TIP3    H224276   2.296   4.223  15.187 -0.0308  0.1730  0.2204
  929TIP3   OH224277   5.090   0.344  13.759 -0.6581 -0.3750 -0.6147
  929TIP3    H124278   5.059   0.398  13.832  0.3763  1.0191 -1.1809
  929TIP3    H224279   5.119   0.263  13.800 -0.8163  0.0908  0.4389
  930TIP3   OH224280   2.035   6.045  15.975 -0.2454  0.3954 -0.3471
  930TIP3    H124281   2.086   6.034  16.056  0.0785 -1.2597 -0.7679
  930TIP3    H224282   2.096   6.085  15.913  0.1906 -0.4921 -0.4885
  931TIP3   OH224283   4.153   6.446   4.557 -0.2170  0.1581 -0.2516
  931TIP3    H124284   4.065   6.463   4.525 -0.8765 -1.0202  0.8797
  931TIP3    H224285   4.168   6.513   4.624 -1.2331 -1.1104  1.3008
  932TIP3   OH224286   1.540   5.787   4.924 -0.2177 -0.0855  0.6399
  932TIP3    H124287   1.495   5.761   5.004 -1.3497  1.6626  0.6003
  932TIP3    H224288   1.572   5.875   4.942  0.4075 -0.0780 -0.4722
  933TIP3   OH224289   6.047   4.416  15.981  0.2966  0.2652 -0.6403
  933TIP3    H124290   5.958   4.419  16.016  0.5750 -2.2781  0.3843
  933TIP3    H224291   6.046   4.344  15.918  1.9254 -0.6369  0.3131
  934TIP3   OH224292   3.316   5.723   4.656 -0.1367  0.2842  0.0806
  934TIP3    H124293   3.301   5.638   4.615 -0.5088  0.0963  0.6079
  934TIP3    H224294   3.290   5.786   4.589 -0.8720 -0.0238  0.0736
  935TIP3   OH224295   4.392   4.982  10.930  0.0464 -0.2362 -0.1717
  935TIP3    H124296   4.338   4.946  11.000  1.3512  2.3369  2.2570
  935TIP3    H224297   4.344   5.059  10.899  1.6749  1.3321  1.1325
  936TIP3   OH224298   2.037   4.582   4.150 -0.1846  0.0776 -0.6169
  936TIP3    H124299   1.948   4.615   4.157 -0.1494  0.4231 -1.7243
  936TIP3    H224300   2.089   4.659   4.127  0.5780  0.1047  1.1170
  937TIP3   OH224301   2.656   3.814   5.479  0.0583  0.0290 -0.5521
  937TIP3    H124302   2.566   3.845   5.467  0.1552  0.0594 -1.2342
  937TIP3    H224303   2.650   3.750   5.550 -0.5954 -0.3267 -0.9156
  938TIP3   OH224304   1.660   3.413  11.484 -0.1161  0.3965 -0.2370
  938TIP3    H124305   1.742   3.460  11.466  0.2012  0.2062  0.6824
  938TIP3    H224306   1.592   3.477  11.465  0.2835  0.8923 -0.0251
  939TIP3   OH224307   6.464   1.517  13.808  0.3183 -0.4775  0.0558
  939TIP3    H124308   6.442   1.483  13.721 -0.5579 -0.0863  0.1148
  939TIP3    H224309   6.526   1.589  13.791 -1.0815  0.6626 -0.3773
  940TIP3   OH224310   6.435   6.585   0.040  0.0645 -0.2012 -0.0666
  940TIP3    H124311   6.452   6.662  -0.014 -1.0934 -0.0487 -0.2204
  940TIP3    H224312   6.340   6.576   0.041  0.0911 -0.4860  1.5498
  941TIP3   OH224313   5.593   6.556   5.763 -0.0160 -0.0258 -0.4877
  941TIP3    H124314   5.685   6.576   5.778 -0.0674 -0.8138  1.0682
  941TIP3    H224315   5.570   6.497   5.836 -2.0855  1.2420 -0.0829
  942TIP3   OH224316   6.204   1.598   4.363  0.0460  0.6212 -0.3628
  942TIP3    H124317   6.145   1.664   4.400 -0.2837  1.7396 -2.7314
  942TIP3    H224318   6.237   1.639   4.283  2.5276 -0.7689 -0.1016
  943TIP3   OH224319   0.283   4.335   0.894 -0.1546  0.3309  0.1978
  943TIP3    H124320   0.301   4.268   0.828  1.0649  0.7017  0.1570
  943TIP3    H224321   0.190   4.322   0.915  0.0265 -1.2998  0.0989
  944TIP3   OH224322   4.401   6.486   6.622 -0.2695  0.2861  0.3582
  944TIP3    H124323   4.466   6.511   6.687 -1.8386  0.1980  1.9819
  944TIP3    H224324   4.394   6.391   6.631  1.2842 -0.0683 -1.6626
  945TIP3   OH224325   1.145   5.244  12.581  0.2328  0.0841 -0.3391
  945TIP3    H124326   1.181   5.270  12.666  1.2785 -0.4631 -0.5995
  945TIP3    H224327   1.058   5.210  12.601  1.0539 -1.4367  0.7216
  946TIP3   OH224328   0.286   6.134  11.282  0.3052  0.2892 -0.2815
  946TIP3    H124329   0.337   6.058  11.308  0.0932  0.7004  1.3731
  946TIP3    H224330   0.347   6.208  11.289  0.4367  0.3282 -1.6199
  947TIP3   OH224331   3.530   2.464  11.020  0.1637  0.4786  0.1179
  947TIP3    H124332   3.580   2.528  10.968  0.5208  0.2537  0.1772
  947TIP3    H224333   3.597   2.420  11.074  0.0366 -0.5018 -0.5087
  948TIP3   OH224334   6.614   1.970   3.089  0.0495  0.1861  0.4326
  948TIP3    H124335   6.521   1.954   3.076 -0.5193  2.8949  0.8541
  948TIP3    H224336   6.625   2.064   3.072  2.3543  0.2806  2.1802
  949TIP3   OH224337   3.868   2.409   0.481 -0.2585 -0.2553 -0.5520
  949TIP3    H124338   3.882   2.381   0.390 -1.1149 -0.7370 -0.5330
  949TIP3    H224339   3.827   2.496   0.474  0.1662 -0.0587 -0.6201
  950TIP3   OH224340   0.874   1.427   3.748  0.4428  0.2991 -0.1677
  950TIP3    H124341   0.878   1.502   3.689 -0.3188 -1.2360 -2.2364
  950TIP3    H224342   0.780   1.413   3.763  0.6494  1.6877  2.8061
  951TIP3   OH224343   2.648   0.137  13.358  0.0660  0.5513 -0.0029
  951TIP3    H124344   2.704   0.209  13.329 -1.9575  2.5792  0.9714
  951TIP3    H224345   2.569   0.144  13.304 -0.1975 -0.8728  0.1767
  952TIP3   OH224346   5.614   6.467   1.726  0.3253  0.5759 -0.0201
  952TIP3    H124347   5.657   6.419   1.655 -2.4288  0.3276 -1.5743
  952TIP3    H224348   5.616   6.558   1.697  0.3784  0.6512  0.2190
  953TIP3   OH224349   0.980   2.498   5.483 -0.0638  0.4301 -0.2983
  953TIP3    H124350   0.900   2.446   5.495 -0.4486  0.9955 -0.4411
  953TIP3    H224351   1.042   2.459   5.545 -0.8871  0.9036  0.8626
  954TIP3   OH224352   1.647   3.932   5.124  0.8430 -0.2242  0.2434
  954TIP3    H124353   1.615   3.959   5.210  0.0496 -1.7191  0.4457
  954TIP3    H224354   1.740   3.915   5.137  0.9465  0.5650  0.5528
  955TIP3   OH224355   2.759   5.765  16.160 -0.2982 -0.8888 -0.2221
  955TIP3    H124356   2.801   5.761  16.246 -1.5445 -0.0466  0.4470
  955TIP3    H224357   2.830   5.754  16.098  0.6404 -1.3663  0.9202
  956TIP3   OH224358   6.345   5.316   5.163  0.3728  0.4272 -0.7967
  956TIP3    H124359   6.292   5.359   5.097  1.0675  1.6182 -0.5986
  956TIP3    H224360   6.339   5.373   5.240 -0.1563 -0.7620  0.0595
  957TIP3   OH224361   3.222   6.768   4.528 -0.3615 -0.3485  0.1731
  957TIP3    H124362   3.229   6.832   4.457  0.8587 -0.3558  0.2778
  957TIP3    H224363   3.293   6.706   4.511 -0.0775 -0.3687  1.3852
  958TIP3   OH224364   1.303   5.400  11.229  0.5294 -0.0368  0.2211
  958TIP3    H124365   1.357   5.351  11.292  0.8124  1.1516  0.9028
  958TIP3    H224366   1.345   5.486  11.223 -1.2835  0.8995  0.7387
  959TIP3   OH224367   6.378   5.599  13.094 -0.4152 -0.1357 -0.3333
  959TIP3    H124368   6.303   5.657  13.113 -0.1608 -0.4333  1.6217
  959TIP3    H224369   6.450   5.659  13.077 -0.3860  0.1432  0.7376
  960TIP3   OH224370   6.257   5.146   0.638  0.0920 -0.6543  0.1798
  960TIP3    H124371   6.283   5.083   0.705 -1.4432 -0.4373  1.0049
  960TIP3    H224372   6.258   5.231   0.682 -0.7369 -0.4838 -0.1033
  961TIP3   OH224373   3.828   0.743   4.035 -0.4900  0.1578 -0.5123
  961TIP3    H124374   3.810   0.811   4.099 -0.2156 -0.4919  0.2565
  961TIP3    H224375   3.746   0.735   3.985 -1.3376 -0.6091  0.9513
  962TIP3   OH224376   5.715   5.436  10.904  0.2358 -0.0737 -0.1901
  962TIP3    H124377   5.695   5.416  10.812 -1.7984 -0.2709  0.2590
  962TIP3    H224378   5.634   5.476  10.937  0.1855 -1.9682  2.0829
  963TIP3   OH224379   4.823   0.555  15.759 -0.3376 -0.1769  0.2091
  963TIP3    H124380   4.736   0.526  15.787 -0.2125  0.2861  1.0993
  963TIP3    H224381   4.871   0.569  15.841 -0.5632  3.0730 -0.1302
  964TIP3   OH224382   3.307   3.194   6.069  0.2663  0.2234 -0.3879
  964TIP3    H124383   3.334   3.204   6.160 -2.8238  0.8197  0.5230
  964TIP3    H224384   3.326   3.279   6.028  1.0495  0.1677 -0.1409
  965TIP3   OH224385   3.274   4.562  14.093  0.2613 -0.3418  0.4156
  965TIP3    H124386   3.230   4.477  14.087 -0.7385  0.1270  0.8349
  965TIP3    H224387   3.331   4.565  14.017 -1.7254 -0.2524 -1.1280
  966TIP3   OH224388   0.732   0.007   3.610 -0.5272  0.3161 -0.7014
  966TIP3    H124389   0.779  -0.070   3.641  1.5965  0.9902 -2.1811
  966TIP3    H224390   0.700  -0.016   3.523  0.3441  1.1752 -1.2628
  967TIP3   OH224391   0.837   1.858  16.121  0.0929  0.1545  0.9378
  967TIP3    H124392   0.845   1.948  16.087  1.8089 -1.1145 -2.2523
  967TIP3    H224393   0.915   1.846  16.175  2.3129 -0.8429 -2.3371
  968TIP3   OH224394   3.436   4.338  12.819  0.5730  0.5077  0.0337
  968TIP3    H124395   3.470   4.426  12.838  0.0489  0.7954 -0.3364
  968TIP3    H224396   3.505   4.297  12.768  1.5968  0.0560  1.7512
  969TIP3   OH224397   6.286   3.921   5.888  0.8413 -0.3007 -0.6056
  969TIP3    H124398   6.348   3.990   5.866 -0.1200  0.9897  0.6865
  969TIP3    H224399   6.326   3.874   5.960 -0.3035  1.4558  1.2245
  970TIP3   OH224400   3.095   6.499  15.073 -0.0703 -0.0311  0.2257
  970TIP3    H124401   3.107   6.591  15.098 -2.1154 -0.0792  1.5501
  970TIP3    H224402   3.028   6.502  15.004  0.3967 -0.4655 -0.2440
  971TIP3   OH224403   4.362   1.943   5.702  0.3341 -0.8175  0.0292
  971TIP3    H124404   4.328   2.017   5.752 -0.9029 -1.5367  0.2789
  971TIP3    H224405   4.340   1.866   5.754 -1.3731 -1.6023 -1.7996
  972TIP3   OH224406   6.535   0.745  12.367 -0.2435  0.3678 -0.1392
  972TIP3    H124407   6.464   0.686  12.342  0.1574 -0.5994  0.9428
  972TIP3    H224408   6.522   0.823  12.313 -1.6891 -0.0921 -0.4742
  973TIP3   OH224409   0.566   5.410  14.855 -0.2730 -0.5394  0.1861
  973TIP3    H124410   0.614   5.411  14.938 -1.1220  0.1092  0.6778
  973TIP3    H224411   0.580   5.498  14.818 -2.1868  0.1247  0.9903
  974TIP3   OH224412   0.300   2.634  10.548 -0.0720  0.0901 -0.1040
  974TIP3    H124413   0.311   2.598  10.636 -1.3544 -0.5497 -0.1838
  974TIP3    H224414   0.219   2.594  10.516  0.1470  0.6581 -1.4065
  975TIP3   OH224415   5.414   5.328   1.107  0.2218 -0.4463 -0.5150
  975TIP3    H124416   5.406   5.236   1.085  0.2804 -0.6699  0.3830
  975TIP3    H224417   5.328   5.365   1.087  0.2750 -0.6348 -1.1143
  976TIP3   OH224418   0.969   1.528  12.116  0.2952 -0.2773 -0.2582
  976TIP3    H124419   0.957   1.603  12.175 -0.3083  0.4686 -1.3218
  976TIP3    H224420   1.048   1.485  12.150  0.8668  1.0411  0.1604
  977TIP3   OH224421   4.102   2.613  14.785 -0.1629  0.1634 -0.3458
  977TIP3    H124422   4.028   2.590  14.729 -0.2968  0.6177 -0.3536
  977TIP3    H224423   4.170   2.642  14.724  0.6009 -1.7627 -0.4763
  978TIP3   OH224424   5.785   6.548   3.174  0.2790  1.0149  0.5526
  978TIP3    H124425   5.878   6.552   3.195  0.6683 -2.6198 -0.2111
  978TIP3    H224426   5.741   6.544   3.259  1.0075  0.0316  0.8981
  979TIP3   OH224427   2.168   3.559   4.209  0.5801  0.2935 -0.2057
  979TIP3    H124428   2.210   3.474   4.219  0.5108  0.4186  1.2020
  979TIP3    H224429   2.188   3.606   4.290 -2.0719  0.4526  0.3947
  980TIP3   OH224430   3.003   2.853  12.854  0.3810 -0.3884  0.7873
  980TIP3    H124431   3.047   2.935  12.877 -0.8621 -0.0527  2.0498
  980TIP3    H224432   2.948   2.876  12.779 -0.5393  0.1259  1.6126
  981TIP3   OH224433   3.274   2.445   0.844  0.5696  0.6611 -0.5224
  981TIP3    H124434   3.266   2.386   0.770 -0.6030 -0.4121  0.4364
  981TIP3    H224435   3.184   2.459   0.874  1.1507 -0.4687  1.8768
  982TIP3   OH224436   2.956   3.616  14.530  0.5577  0.4752 -0.5707
  982TIP3    H124437   3.015   3.596  14.458  2.0817  1.2613  0.4586
  982TIP3    H224438   2.982   3.702  14.561  0.4126 -0.1510  1.3944
  983TIP3   OH224439   6.076   0.482   1.698 -0.0592 -0.2621 -0.2115
  983TIP3    H124440   6.060   0.511   1.787  2.0368 -0.4332  0.2398
  983TIP3    H224441   6.167   0.452   1.698 -0.4399 -1.5096 -2.0723
  984TIP3   OH224442   2.242   4.272  17.010 -0.0341 -0.3354 -0.2084
  984TIP3    H124443   2.222   4.365  17.011  0.7262 -0.1596  2.0616
  984TIP3    H224444   2.157   4.228  17.020 -0.3529  0.1162 -0.9399
  985TIP3   OH224445   2.428   1.834  16.092  0.0575  0.0427 -0.2307
  985TIP3    H124446   2.387   1.852  16.008  0.2068  0.5135 -0.2046
  985TIP3    H224447   2.428   1.918  16.137 -0.3458 -0.2811  0.3827
  986TIP3   OH224448   3.439   6.365  14.476 -0.0865 -0.8612 -0.1704
  986TIP3    H124449   3.391   6.362  14.394  0.2375 -0.8709 -0.3615
  986TIP3    H224450   3.510   6.427  14.460  0.4530 -1.4687 -0.1515
  987TIP3   OH224451   2.980   4.019  16.011  0.2454 -0.6433 -0.0787
  987TIP3    H124452   2.896   3.977  16.028  1.4435 -2.9945  0.2127
  987TIP3    H224453   2.959   4.112  16.001 -2.1515 -0.9492  1.6880
  988TIP3   OH224454   0.325   4.424  16.953 -0.4359  0.2841  0.1936
  988TIP3    H124455   0.232   4.426  16.931 -0.8342 -2.1194  1.5648
  988TIP3    H224456   0.328   4.449  17.045  0.1822 -0.4980  0.3892
  989TIP3   OH224457   1.703   4.695  13.157 -0.4085  0.3904  0.4938
  989TIP3    H124458   1.710   4.773  13.211 -1.4294  0.0887  1.0730
  989TIP3    H224459   1.700   4.728  13.067  0.3116  0.9432  0.6675
  990TIP3   OH224460   1.780   1.436   3.207  0.6736 -0.8728 -0.4693
  990TIP3    H124461   1.719   1.424   3.279 -1.2337 -0.5456 -1.9817
  990TIP3    H224462   1.772   1.356   3.155  0.7772 -0.4000 -1.2245
  991TIP3   OH224463   2.246   1.613  13.750 -0.3478 -0.2897 -0.0496
  991TIP3    H124464   2.201   1.636  13.831 -1.7656  0.1961 -0.9585
  991TIP3    H224465   2.332   1.583  13.778 -0.5462  0.6047  1.5872
  992TIP3   OH224466   5.524   4.343  11.950  0.4497  0.6232  0.7826
  992TIP3    H124467   5.436   4.307  11.962  0.7104 -0.3471 -0.1695
  992TIP3    H224468   5.512   4.415  11.888  0.6174 -0.8495 -1.0064
  993TIP3   OH224469   4.171   2.789  14.059  0.0071 -0.3352  0.5348
  993TIP3    H124470   4.258   2.810  14.027 -0.3961  1.1755  0.3909
  993TIP3    H224471   4.146   2.864  14.114 -0.7786 -1.2215  1.4148
  994TIP3   OH224472   1.138   6.433   2.344  0.5528 -0.1550 -0.3449
  994TIP3    H124473   1.191   6.361   2.309  1.0237 -0.3422  0.7522
  994TIP3    H224474   1.198   6.507   2.349  0.3634  0.0008 -0.3807
  995TIP3   OH224475   2.745   5.912   2.169 -0.8020  0.4636 -0.1334
  995TIP3    H124476   2.773   5.820   2.167 -3.6927 -0.4404 -1.8264
  995TIP3    H224477   2.786   5.951   2.092 -0.5752  0.2945 -0.1003
  996TIP3   OH224478   2.519   3.265  12.436 -0.1730 -0.3425 -0.1461
  996TIP3    H124479   2.447   3.207  12.461 -1.2063 -0.0143 -2.2717
  996TIP3    H224480   2.501   3.288  12.345  0.9145  2.2779  0.2433
  997TIP3   OH224481   1.196   5.303   1.989 -0.0232  0.4549 -0.0272
  997TIP3    H124482   1.226   5.371   2.049 -1.4277 -0.0250  1.2483
  997TIP3    H224483   1.140   5.247   2.043  1.9800 -2.3738 -0.7493
  998TIP3   OH224484   1.594   2.428   0.226 -0.2523 -0.3398 -0.4996
  998TIP3    H124485   1.550   2.346   0.247 -2.3619  0.4622 -1.5251
  998TIP3    H224486   1.573   2.487   0.299  2.9404 -1.2452  1.2475
  999TIP3   OH224487   1.542   0.677  14.150 -0.5431  0.5549  0.4230
  999TIP3    H124488   1.581   0.697  14.065 -1.2176  0.4320  0.0828
  999TIP3    H224489   1.608   0.625  14.195  0.8169  2.6622  0.9312
 1000TIP3   OH224490   4.260   5.194  10.825 -0.1670  0.1316 -0.2286
 1000TIP3    H124491   4.246   5.139  10.747 -0.3385 -2.4046  1.5119
 1000TIP3    H224492   4.202   5.269  10.812  0.5121  0.2464 -2.9686
 1001TIP3   OH224493   0.441   4.602   5.858  0.0990 -1.0374 -0.2139
 1001TIP3    H124494   0.418   4.685   5.818 -0.3461 -1.3446 -0.6118
 1001TIP3    H224495   0.415   4.611   5.950 -0.1293 -0.8050 -0.3011
 1002TIP3   OH224496   1.540   3.741   3.731 -0.0763  0.3900  0.2687
 1002TIP3    H124497   1.454   3.742   3.773 -0.7087 -0.9821 -0.9521
 1002TIP3    H224498   1.522   3.760   3.639  0.7925 -0.9993 -0.1973
 1003TIP3   OH224499   4.516   2.099   5.032 -0.3900 -0.4993  0.3889
 1003TIP3    H124500   4.590   2.090   5.092  0.3062  0.5847 -0.3004
 1003TIP3    H224501   4.535   2.178   4.982 -1.2840 -1.0378 -0.8212
 1004TIP3   OH224502   0.445   6.272  12.025 -0.0028 -0.1003 -0.2803
 1004TIP3    H124503   0.513   6.207  12.044 -0.3021 -0.9686 -2.0326
 1004TIP3    H224504   0.363   6.226  12.043 -0.2017 -0.1206 -1.1783
 1005TIP3   OH224505   4.115   3.819  13.382 -0.6745 -0.2089  0.4675
 1005TIP3    H124506   4.148   3.876  13.312 -0.0514 -0.9802  0.1173
 1005TIP3    H224507   4.161   3.736  13.369 -0.8409 -0.4864  1.5661
 1006TIP3   OH224508   5.295   4.127   0.354 -0.0942 -0.2181  0.7270
 1006TIP3    H124509   5.289   4.042   0.310  1.0425 -1.0655  2.1384
 1006TIP3    H224510   5.362   4.114   0.421 -0.7660  1.4512  1.7547
 1007TIP3   OH224511   3.874   4.123   5.108  0.2548  0.8315 -0.5560
 1007TIP3    H124512   3.808   4.056   5.124  1.1139  0.1465  0.1802
 1007TIP3    H224513   3.915   4.138   5.193 -0.1205  2.5255 -0.6407
 1008TIP3   OH224514   3.654   3.535  15.601  0.0195  0.2935 -0.5491
 1008TIP3    H124515   3.747   3.512  15.610 -0.0262  0.3096  0.0037
 1008TIP3    H224516   3.611   3.487  15.672 -0.2544  1.1001 -0.1632
 1009TIP3   OH224517   6.797   5.675   4.834  0.3775  1.1219 -0.2267
 1009TIP3    H124518   6.819   5.592   4.878 -1.2590  1.0541  0.4694
 1009TIP3    H224519   6.750   5.725   4.900  1.7250  2.8121 -0.5082
 1010TIP3   OH224520   5.126   0.269   5.097 -0.1191 -0.4385 -0.0560
 1010TIP3    H124521   5.161   0.201   5.154  1.2325  0.9855  0.8804
 1010TIP3    H224522   5.104   0.224   5.016  0.9329 -1.9357  0.4716
 1011TIP3   OH224523   1.294   0.409   0.521 -0.3943  0.1507 -0.4504
 1011TIP3    H124524   1.275   0.398   0.428 -2.3950  2.3420 -0.3488
 1011TIP3    H224525   1.386   0.436   0.524 -1.3929  4.0846 -2.1456
 1012TIP3   OH224526   4.226   2.566   2.262 -0.5087 -0.4170 -0.3754
 1012TIP3    H124527   4.242   2.514   2.183  0.5777  0.7552 -0.9548
 1012TIP3    H224528   4.287   2.530   2.327 -0.4039 -0.4774 -0.5063
 1013TIP3   OH224529   0.961   1.588  11.510  0.0668  0.5390 -0.3794
 1013TIP3    H124530   0.870   1.563  11.491  0.1310  0.2563 -0.3236
 1013TIP3    H224531   0.964   1.682  11.494  0.1191  0.3162 -1.7526
 1014TIP3   OH224532   3.463   3.761  11.831  0.3851 -0.3566  0.3654
 1014TIP3    H124533   3.462   3.855  11.811  0.1325 -0.8391 -2.0025
 1014TIP3    H224534   3.379   3.745  11.873  0.8322  0.6476  1.6947
 1015TIP3   OH224535   4.769   4.764  13.552 -0.1404  0.2584 -0.1459
 1015TIP3    H124536   4.824   4.686  13.558 -0.1226  0.0860 -2.1693
 1015TIP3    H224537   4.826   4.836  13.581  0.2578 -0.2866  0.4413
 1016TIP3   OH224538   2.147   5.816  11.302 -0.7774 -0.5128 -0.7718
 1016TIP3    H124539   2.164   5.879  11.232  1.2778 -0.8247 -0.5768
 1016TIP3    H224540   2.126   5.734  11.256  0.5921 -0.7231 -1.0475
 1017TIP3   OH224541   1.080   4.204  16.300  0.7412  0.1892 -0.0739
 1017TIP3    H124542   0.999   4.232  16.342  0.9065 -1.5039  1.4408
 1017TIP3    H224543   1.061   4.115  16.270  2.3148 -0.5713  1.1270
 1018TIP3   OH224544   5.878   4.108  15.905 -0.2071 -0.1665 -0.2715
 1018TIP3    H124545   5.839   4.105  15.993  0.9617  0.5975  0.2828
 1018TIP3    H224546   5.972   4.102  15.921  0.1387  2.0738 -1.3369
 1019TIP3   OH224547   5.508   5.228   2.574  0.2759 -0.5453 -0.1822
 1019TIP3    H124548   5.483   5.152   2.627 -2.4215  0.7686  0.5314
 1019TIP3    H224549   5.525   5.297   2.638  1.6083 -0.2133 -0.8717
 1020TIP3   OH224550   3.323   0.388   1.536  0.0150  0.3172  0.0401
 1020TIP3    H124551   3.290   0.441   1.609  0.9932 -0.7621  1.2771
 1020TIP3    H224552   3.343   0.303   1.574  2.0608  0.2206 -1.1310
 1021TIP3   OH224553   4.317   5.565   2.969  0.0166  0.4175 -0.0263
 1021TIP3    H124554   4.360   5.555   3.054  0.9470 -0.6112 -0.6039
 1021TIP3    H224555   4.382   5.537   2.905 -1.4618 -1.1175 -0.9311
 1022TIP3   OH224556   5.569   5.575  15.610  0.0271 -0.4365  0.2234
 1022TIP3    H124557   5.591   5.581  15.517  1.4129  0.4871  0.5834
 1022TIP3    H224558   5.531   5.660  15.631 -1.5510 -1.1278  0.1988
 1023TIP3   OH224559   2.396   1.290  14.144 -0.2788 -0.1909 -0.2607
 1023TIP3    H124560   2.340   1.346  14.091 -0.9504 -0.7013 -0.0980
 1023TIP3    H224561   2.408   1.210  14.092  1.9419  0.6787 -1.1731
 1024TIP3   OH224562   4.688   6.818  12.040 -0.0919  0.5116 -0.2470
 1024TIP3    H124563   4.645   6.747  11.992  0.4260  0.6529 -0.9229
 1024TIP3    H224564   4.735   6.774  12.111 -0.5568  0.2701 -0.0846
 1025TIP3   OH224565   5.424   2.990  16.826  0.4821  0.3701  0.6608
 1025TIP3    H124566   5.432   2.900  16.795  0.4001  0.3296  0.7565
 1025TIP3    H224567   5.443   2.984  16.920  1.5590  0.6200  0.4670
 1026TIP3   OH224568   3.081   3.587   6.485 -0.1252 -0.2410 -0.0843
 1026TIP3    H124569   3.145   3.574   6.555  1.7076  0.3918 -1.5954
 1026TIP3    H224570   3.008   3.634   6.526  1.1633  0.5957  1.2744
 1027TIP3   OH224571   3.619   2.894  13.727  0.2794  0.2397 -0.2573
 1027TIP3    H124572   3.547   2.929  13.674  1.0605  2.0132 -0.2083
 1027TIP3    H224573   3.577   2.843  13.795 -0.9035  0.7578 -0.5907
 1028TIP3   OH224574   3.912   4.533  11.519 -0.2867  0.1674  0.2810
 1028TIP3    H124575   3.932   4.534  11.425  3.1288  1.2167  0.9392
 1028TIP3    H224576   3.909   4.626  11.543 -0.4403 -0.1069  1.3359
 1029TIP3   OH224577   3.454   4.628  16.970  0.0814  0.2025  0.2664
 1029TIP3    H124578   3.479   4.557  16.910  1.6783  1.4943 -0.6396
 1029TIP3    H224579   3.457   4.588  17.057  0.6829 -0.9217 -0.2612
 1030TIP3   OH224580   4.283   4.878  16.083  0.2643  0.1197  0.2644
 1030TIP3    H124581   4.316   4.914  16.001 -2.1020  1.6097 -0.0865
 1030TIP3    H224582   4.228   4.947  16.119  0.9916 -0.6413  2.9602
 1031TIP3   OH224583   4.740   0.826  16.046  0.3922  0.2639  0.3449
 1031TIP3    H124584   4.735   0.731  16.040  0.0480  0.3622 -1.2780
 1031TIP3    H224585   4.674   0.857  15.984  1.4943  1.5496 -0.2049
 1032TIP3   OH224586   3.705   4.064  14.697  0.2619  0.5062 -0.0879
 1032TIP3    H124587   3.761   4.070  14.775  0.4958 -0.8069 -0.1333
 1032TIP3    H224588   3.747   3.997  14.643 -0.4137  0.7468 -0.9172
 1033TIP3   OH224589   1.541   4.586  11.592 -0.3242  0.1357  0.7129
 1033TIP3    H124590   1.488   4.592  11.671  0.4298 -1.5910  1.3620
 1033TIP3    H224591   1.604   4.517  11.610  0.0746 -0.0454 -1.2765
 1034TIP3   OH224592   2.351   1.131  12.633  0.0110  0.1659 -0.1139
 1034TIP3    H124593   2.274   1.153  12.580 -0.7499  0.2544  1.0258
 1034TIP3    H224594   2.388   1.054  12.590  0.3191  1.1696 -1.7120
 1035TIP3   OH224595   4.587   6.327   1.141 -0.3836 -0.1062 -0.3520
 1035TIP3    H124596   4.529   6.384   1.192  1.4545  0.3990  1.2580
 1035TIP3    H224597   4.604   6.376   1.061 -1.3922  0.1728 -0.4027
 1036TIP3   OH224598   5.734   0.533   0.828 -0.0600  0.0414 -0.3715
 1036TIP3    H124599   5.726   0.440   0.850 -0.0026 -0.0677 -0.8066
 1036TIP3    H224600   5.783   0.534   0.745 -0.8753  0.4110 -0.8520
 1037TIP3   OH224601   2.577   6.281  16.654  0.0057  0.1096  0.3784
 1037TIP3    H124602   2.568   6.192  16.620 -1.3494  0.2724  0.2741
 1037TIP3    H224603   2.544   6.337  16.584 -0.7139  0.5811  1.0805
 1038TIP3   OH224604   2.710   3.382  14.646 -0.2561 -0.2900  0.1456
 1038TIP3    H124605   2.651   3.343  14.711  0.2322 -0.5813  0.4138
 1038TIP3    H224606   2.768   3.439  14.697 -0.9455  0.7680 -0.2427
 1039TIP3   OH224607   3.131   4.895  16.252  0.3380 -0.2261 -0.6707
 1039TIP3    H124608   3.077   4.967  16.284 -0.2978 -1.3833  0.8988
 1039TIP3    H224609   3.217   4.910  16.290  0.1328 -0.4488 -0.1184
 1040TIP3   OH224610   5.830   5.387   3.664  0.0216 -0.3001 -0.0275
 1040TIP3    H124611   5.745   5.376   3.705 -0.2330 -1.2285 -0.7854
 1040TIP3    H224612   5.851   5.301   3.628  1.2832 -0.0889  0.1505
 1041TIP3   OH224613   0.854   4.233   5.233  0.5575 -0.2336  0.1059
 1041TIP3    H124614   0.792   4.303   5.210  2.0567  0.9384 -0.4524
 1041TIP3    H224615   0.813   4.189   5.308 -1.9231 -0.7979 -1.5163
 1042TIP3   OH224616   0.290   4.933   0.909 -0.6078 -0.0289 -0.3305
 1042TIP3    H124617   0.213   4.879   0.928 -0.1387 -0.5386  0.1450
 1042TIP3    H224618   0.259   4.998   0.847 -1.4214 -0.2455 -0.1557
 1043TIP3   OH224619   1.336   4.185   5.041 -0.5176  0.3498  0.0832
 1043TIP3    H124620   1.264   4.247   5.052  0.9000  2.5975 -2.6092
 1043TIP3    H224621   1.336   4.164   4.948  0.8262 -1.4845  0.4663
 1044TIP3   OH224622   4.500   3.075   4.235  0.1354 -0.4127  0.2162
 1044TIP3    H124623   4.414   3.037   4.216  0.5661 -0.5990 -1.3820
 1044TIP3    H224624   4.562   3.017   4.193  1.1894 -1.1914  2.7388
 1045TIP3   OH224625   2.054   1.861  14.519 -0.2792 -0.1944  0.0261
 1045TIP3    H124626   2.059   1.913  14.600  0.2254 -1.9106  1.1437
 1045TIP3    H224627   2.143   1.862  14.485 -0.4543  0.3807 -0.4201
 1046TIP3   OH224628   5.644   2.555  14.256  0.1799 -0.1276 -0.2125
 1046TIP3    H124629   5.619   2.463  14.247 -2.7629  0.4409  1.5944
 1046TIP3    H224630   5.560   2.602  14.259  1.5868  2.3425  1.6424
 1047TIP3   OH224631   1.676   5.552  12.886  0.2636 -0.1649 -0.1075
 1047TIP3    H124632   1.644   5.612  12.954  0.5808  0.8751 -0.8644
 1047TIP3    H224633   1.735   5.605  12.834 -0.6705 -0.7078 -1.7418
 1048TIP3   OH224634   5.006   1.882   0.365  0.2191  0.1488 -0.4976
 1048TIP3    H124635   5.012   1.935   0.285 -3.4906  1.8047  0.1935
 1048TIP3    H224636   5.033   1.941   0.435  0.0916 -0.1841 -0.1673
 1049TIP3   OH224637   3.144   4.243   0.272 -0.1971 -0.3721  0.2602
 1049TIP3    H124638   3.092   4.166   0.248 -0.8121  0.4102 -1.0285
 1049TIP3    H224639   3.082   4.316   0.266  0.3052  0.1901  1.7389
 1050TIP3   OH224640   5.613   0.534  10.639  0.2460  0.1755  0.0536
 1050TIP3    H124641   5.599   0.485  10.720  1.5869  0.7999  0.6787
 1050TIP3    H224642   5.700   0.508  10.610 -0.2422 -0.0628 -1.2192
 1051TIP3   OH224643   0.612   6.144  16.341 -0.0883 -0.1500 -0.0114
 1051TIP3    H124644   0.576   6.182  16.422 -2.1410  0.6575 -1.2382
 1051TIP3    H224645   0.693   6.192  16.326  0.6772 -0.8101  1.9470
 1052TIP3   OH224646   3.907   6.247  14.898 -0.0835  0.2417 -0.2883
 1052TIP3    H124647   3.938   6.164  14.936 -0.2613 -0.0562 -0.7951
 1052TIP3    H224648   3.962   6.314  14.940 -0.4738 -0.0548  0.7286
 1053TIP3   OH224649   1.281   2.426   3.322  0.3082  0.2414 -1.2448
 1053TIP3    H124650   1.252   2.486   3.390  0.6914  0.1780 -1.0224
 1053TIP3    H224651   1.236   2.455   3.243 -1.9866 -1.1465 -0.4837
 1054TIP3   OH224652   6.582   4.276  10.316 -0.4032  0.3774 -0.2134
 1054TIP3    H124653   6.560   4.201  10.260  0.2303  0.0964 -0.0884
 1054TIP3    H224654   6.520   4.344  10.290  0.3552  0.4878 -1.7551
 1055TIP3   OH224655   2.642   4.155  14.612 -0.6003 -0.3208 -0.0531
 1055TIP3    H124656   2.731   4.128  14.591 -0.3790  0.5500 -0.2294
 1055TIP3    H224657   2.627   4.234  14.560 -0.5580  1.0213  1.9353
 1056TIP3   OH224658   0.944   1.470   4.974  0.2744 -0.1299  0.0232
 1056TIP3    H124659   0.940   1.465   4.878  1.1591  0.2019 -0.0392
 1056TIP3    H224660   0.883   1.402   5.004  2.1016 -2.2110 -0.7914
 1057TIP3   OH224661   5.743   5.047  12.144 -0.1993  0.7441 -0.7380
 1057TIP3    H124662   5.686   5.107  12.192  0.1596  0.3717  0.1812
 1057TIP3    H224663   5.779   4.990  12.212 -0.5255 -0.5045 -1.5897
 1058TIP3   OH224664   0.304   0.318  16.813  0.0749  1.0236  0.9553
 1058TIP3    H124665   0.218   0.358  16.800 -0.4764 -0.3894  0.1776
 1058TIP3    H224666   0.344   0.321  16.726  0.0483 -0.0467  0.8968
 1059TIP3   OH224667   0.562   2.696  16.899 -0.2927  0.0610  0.9484
 1059TIP3    H124668   0.615   2.653  16.967 -0.3258 -0.6447  0.5295
 1059TIP3    H224669   0.479   2.716  16.942  0.0736  0.5899  1.4213
 1060TIP3   OH224670   6.093   4.951  13.281 -0.0589 -0.0243  0.0094
 1060TIP3    H124671   6.090   4.858  13.258  1.7630 -0.8982  2.9614
 1060TIP3    H224672   6.170   4.985  13.235 -0.1288 -0.2224 -0.2559
 1061TIP3   OH224673   2.169   3.398  14.519 -0.3428 -0.2076 -0.1947
 1061TIP3    H124674   2.098   3.359  14.468  0.8343  0.0373 -2.0652
 1061TIP3    H224675   2.247   3.351  14.492  0.8235  2.2364 -1.1822
 1062TIP3   OH224676   0.339   1.697  15.942  0.4599 -0.0105  0.1870
 1062TIP3    H124677   0.267   1.761  15.945  0.0537 -0.4502 -0.0905
 1062TIP3    H224678   0.415   1.745  15.975 -0.2269  0.0985  1.6388
 1063TIP3   OH224679   1.021   1.626   5.407 -0.3582  0.2227 -0.1324
 1063TIP3    H124680   1.103   1.612   5.455 -1.5591  0.5996  2.0911
 1063TIP3    H224681   0.955   1.579   5.458 -1.6464  0.4661 -1.5496
 1064TIP3   OH224682   2.614   4.867   1.499  0.1412 -0.0828  0.2429
 1064TIP3    H124683   2.626   4.778   1.464 -0.6299  0.4123 -1.3067
 1064TIP3    H224684   2.522   4.871   1.525  0.0213  0.4583 -0.2597
 1065TIP3   OH224685   0.273   5.034  15.859 -0.0887  0.3934  0.3360
 1065TIP3    H124686   0.270   4.953  15.808 -1.3448 -0.1086  1.1732
 1065TIP3    H224687   0.366   5.048  15.876  0.2578 -0.0237 -1.1449
 1066TIP3   OH224688   1.305   4.055  11.220  0.3382  0.0389  0.2919
 1066TIP3    H124689   1.212   4.046  11.199  0.3479  0.1981  0.1790
 1066TIP3    H224690   1.349   4.049  11.135  0.5041 -1.0608  0.4489
 1067TIP3   OH224691   3.396   2.259  16.779  0.9127  0.8053 -0.5123
 1067TIP3    H124692   3.351   2.338  16.807  1.3362  0.4328  1.3113
 1067TIP3    H224693   3.351   2.231  16.699 -0.9578  1.3761  0.3436
 1068TIP3   OH224694   6.130   1.613   2.452 -0.2861  0.7714 -0.2700
 1068TIP3    H124695   6.060   1.609   2.387 -0.3275  1.5161 -0.2710
 1068TIP3    H224696   6.202   1.658   2.407  0.3743 -0.4255 -0.4335
 1069TIP3   OH224697   1.423   5.194   2.155 -0.1730  0.1399 -0.3954
 1069TIP3    H124698   1.494   5.235   2.105 -0.2426 -0.2103 -0.7797
 1069TIP3    H224699   1.380   5.267   2.200  1.1362  0.2394  0.7305
 1070TIP3   OH224700   5.497   4.411   1.061 -0.1055  0.2114 -0.0730
 1070TIP3    H124701   5.510   4.407   1.156 -1.0074 -2.0781  0.0030
 1070TIP3    H224702   5.444   4.490   1.047  2.8772  2.4804  0.9158
 1071TIP3   OH224703   2.784   2.039   5.881  0.2150  0.0412  0.2906
 1071TIP3    H124704   2.856   2.079   5.930 -0.3771 -1.0672  2.0955
 1071TIP3    H224705   2.767   2.101   5.810 -0.4052  2.7983  2.7377
 1072TIP3   OH224706   3.088   5.401  12.706  0.2823  0.0643  0.2324
 1072TIP3    H124707   3.120   5.351  12.781  0.9934 -1.4246 -1.0518
 1072TIP3    H224708   3.031   5.340  12.659  1.3703  0.3677 -1.4973
 1073TIP3   OH224709   6.530   5.989  11.793  0.1244  0.4385  0.7099
 1073TIP3    H124710   6.590   5.940  11.848  1.7103 -0.3929 -1.7035
 1073TIP3    H224711   6.476   5.922  11.750 -0.4564  1.0335  0.4940
 1074TIP3   OH224712   6.614   2.569  14.605  0.3072 -0.3066  0.2789
 1074TIP3    H124713   6.541   2.630  14.597 -0.4482 -1.0866  1.2803
 1074TIP3    H224714   6.650   2.564  14.516  2.0812  3.6982  0.6573
 1075TIP3   OH224715   5.395   1.631   4.601  0.5127 -0.2079  0.2201
 1075TIP3    H124716   5.480   1.673   4.613  0.0917  0.8557 -0.4409
 1075TIP3    H224717   5.332   1.701   4.618 -0.1954 -0.5992 -0.8167
 1076TIP3   OH224718   2.191   2.299   0.945  0.4043  0.9107  0.2778
 1076TIP3    H124719   2.110   2.346   0.926 -1.0649 -0.4993  2.8070
 1076TIP3    H224720   2.179   2.213   0.904  1.4688  1.3553 -1.0123
 1077TIP3   OH224721   0.197   1.644  11.212 -0.1891 -0.4044 -0.8239
 1077TIP3    H124722   0.252   1.607  11.143 -0.9921 -2.0305 -0.6187
 1077TIP3    H224723   0.231   1.604  11.293  0.6723  1.3929 -0.2763
 1078TIP3   OH224724   2.260   0.547  15.040  0.2702  0.1206  0.0002
 1078TIP3    H124725   2.197   0.591  14.983 -0.0303 -1.2318 -0.7438
 1078TIP3    H224726   2.213   0.470  15.073  0.9158  0.1256  0.9483
 1079TIP3   OH224727   5.423   4.644  15.088  0.1650 -0.3720  0.3743
 1079TIP3    H124728   5.349   4.602  15.045  0.0730 -0.2997  0.4616
 1079TIP3    H224729   5.419   4.736  15.060 -0.3893 -0.1358  1.1883
 1080TIP3   OH224730   5.491   3.789  10.748  0.0479 -0.5681  0.0068
 1080TIP3    H124731   5.515   3.784  10.655 -2.1043  0.1607 -0.6118
 1080TIP3    H224732   5.466   3.881  10.761 -1.2878 -1.0528  0.8892
 1081TIP3   OH224733   4.459   0.320   5.226 -0.4691 -0.2559  0.1979
 1081TIP3    H124734   4.508   0.240   5.238  0.2470  0.3622  1.5089
 1081TIP3    H224735   4.433   0.320   5.134 -1.4924 -2.5554  0.4716
 1082TIP3   OH224736   5.791   2.866   3.189 -0.3530  0.6852 -0.3528
 1082TIP3    H124737   5.872   2.823   3.161 -1.6725 -2.2479  0.1263
 1082TIP3    H224738   5.758   2.812   3.260 -0.3055  4.5454  2.7731
 1083TIP3   OH224739   0.456   1.784   1.814  0.1828  0.0519  0.1981
 1083TIP3    H124740   0.376   1.732   1.821 -0.3420  1.1967  4.1452
 1083TIP3    H224741   0.526   1.724   1.840  0.1244  0.1001  0.4680
 1084TIP3   OH224742   4.580   2.363   1.338  0.9866  0.1373  0.4104
 1084TIP3    H124743   4.495   2.384   1.377 -0.1082 -1.5704 -1.0067
 1084TIP3    H224744   4.599   2.438   1.282 -0.7768 -0.5742 -1.1782
 1085TIP3   OH224745   4.283   5.077  16.764  0.4001  0.4360  0.2251
 1085TIP3    H124746   4.310   4.986  16.780 -1.9610 -0.4022 -0.3158
 1085TIP3    H224747   4.224   5.097  16.837 -1.8757  0.2925 -1.5158
 1086TIP3   OH224748   0.232   2.162   3.465  0.0076  0.4222 -0.5942
 1086TIP3    H124749   0.208   2.173   3.373  1.5865  0.5078 -1.0113
 1086TIP3    H224750   0.152   2.181   3.513 -0.6841  0.9566 -1.9311
 1087TIP3   OH224751   1.212   5.215  12.132 -0.1207 -0.1429  0.1083
 1087TIP3    H124752   1.229   5.125  12.104 -0.5170 -0.5007  1.0243
 1087TIP3    H224753   1.166   5.255  12.058  0.1481 -0.6565 -0.3361
 1088TIP3   OH224754   1.507   0.421  16.190  0.3431 -0.4276  0.1299
 1088TIP3    H124755   1.462   0.400  16.272  0.8334  1.3966  0.8850
 1088TIP3    H224756   1.592   0.379  16.198 -1.0409 -3.6144 -1.1663
 1089TIP3   OH224757   6.099   4.459   4.121 -0.1325  0.5871  0.1188
 1089TIP3    H124758   6.165   4.526   4.141  1.0924 -0.5763  0.0927
 1089TIP3    H224759   6.150   4.378   4.112 -1.4239 -0.0960 -1.2183
 1090TIP3   OH224760   0.986   1.124   2.331 -0.1289 -0.3062  0.2354
 1090TIP3    H124761   1.046   1.198   2.322  0.2216 -0.6925 -0.7318
 1090TIP3    H224762   1.043   1.051   2.357 -0.5610 -0.1089  1.7829
 1091TIP3   OH224763   1.749   4.624  14.089  0.4500  0.0193 -0.4817
 1091TIP3    H124764   1.840   4.594  14.098  0.1980 -0.5207  0.2841
 1091TIP3    H224765   1.726   4.658  14.175  0.3997  1.5324 -1.0786
 1092TIP3   OH224766   6.807   0.335  12.364 -0.3795 -0.4602 -0.6503
 1092TIP3    H124767   6.724   0.329  12.412 -0.5175  0.0635 -0.8187
 1092TIP3    H224768   6.781   0.338  12.272 -0.2568  1.1819 -0.6469
 1093TIP3   OH224769   3.565   3.478  10.651  0.1378 -0.2808  0.1494
 1093TIP3    H124770   3.488   3.523  10.686  0.0084 -0.8668  0.6179
 1093TIP3    H224771   3.552   3.479  10.556 -0.3110 -0.1407  0.2105
 1094TIP3   OH224772   4.827   3.029   2.642  0.3138 -0.1964  0.3979
 1094TIP3    H124773   4.922   3.014   2.649  0.4872  0.3482 -0.6955
 1094TIP3    H224774   4.807   3.090   2.713  0.2643 -2.5434  2.4687
 1095TIP3   OH224775   3.540   6.743   3.111 -0.0871 -0.5145  0.0514
 1095TIP3    H124776   3.573   6.662   3.072 -0.3858 -0.6625  0.0992
 1095TIP3    H224777   3.451   6.721   3.140 -0.7897  0.2839 -1.4084
 1096TIP3   OH224778   0.702   3.992   5.367 -0.3664  0.0863  0.1976
 1096TIP3    H124779   0.686   3.983   5.273 -0.1983 -0.4035  0.2170
 1096TIP3    H224780   0.649   3.923   5.407  0.5856 -0.5594  0.3676
 1097TIP3   OH224781   4.557   4.262  16.776  0.0231  0.7454  1.1235
 1097TIP3    H124782   4.598   4.175  16.778 -1.1724  0.0450 -2.2007
 1097TIP3    H224783   4.466   4.246  16.802  0.0261  1.1784  1.4115
 1098TIP3   OH224784   1.905   6.703  16.729 -0.2315 -0.7569  0.0124
 1098TIP3    H124785   1.866   6.788  16.750  0.7261 -0.0134 -1.1456
 1098TIP3    H224786   1.851   6.639  16.776 -1.5767  0.4084  0.0790
 1099TIP3   OH224787   4.419   4.458   4.871  0.2192 -0.0714 -0.6138
 1099TIP3    H124788   4.400   4.380   4.922 -0.8931 -0.3719 -1.4675
 1099TIP3    H224789   4.352   4.522   4.898 -0.6357 -0.3744 -1.9904
 1100TIP3   OH224790   4.366   6.438  15.116  0.4003  0.0823  0.5242
 1100TIP3    H124791   4.447   6.469  15.155  2.0872 -2.7749 -0.5720
 1100TIP3    H224792   4.321   6.392  15.187  0.6898 -0.0879  0.5957
 1101TIP3   OH224793   3.965   0.462  12.932 -0.3333 -0.2970 -0.4859
 1101TIP3    H124794   4.024   0.497  12.865 -0.7306  2.2752  0.4558
 1101TIP3    H224795   3.880   0.456  12.888 -0.0351 -1.1150 -0.9609
 1102TIP3   OH224796   1.610   5.040  16.049  0.3727 -1.0021 -0.1818
 1102TIP3    H124797   1.681   5.010  15.992  1.2674  0.5504  0.1115
 1102TIP3    H224798   1.638   5.016  16.137  0.9418  0.3847  0.0210
 1103TIP3   OH224799   3.838   5.618  16.428 -0.2001 -0.0040  0.2227
 1103TIP3    H124800   3.893   5.552  16.386  1.2472  0.9334  0.5975
 1103TIP3    H224801   3.875   5.629  16.515  0.1337  1.8933 -0.1202
 1104TIP3   OH224802   3.157   1.874  13.727  1.0379  0.2821  0.2867
 1104TIP3    H124803   3.126   1.872  13.817  0.0907  0.1426 -0.0363
 1104TIP3    H224804   3.081   1.850  13.675  2.3023 -2.4825 -0.3727
 1105TIP3   OH224805   2.809   1.174   4.579  0.6491  0.3260  0.6022
 1105TIP3    H124806   2.817   1.079   4.564  2.1658  0.6838 -0.9526
 1105TIP3    H224807   2.885   1.196   4.632  1.6922  1.0999 -1.1851
 1106TIP3   OH224808   0.140   3.205   4.138  0.2826  0.4818  0.1287
 1106TIP3    H124809   0.062   3.153   4.117  1.3716 -1.2014  0.1692
 1106TIP3    H224810   0.131   3.226   4.230  0.7275 -1.2373  0.5858
 1107TIP3   OH224811   3.163   2.977   1.434 -0.3147  0.1085  0.1935
 1107TIP3    H124812   3.106   2.900   1.440 -1.3102  0.8798  0.6509
 1107TIP3    H224813   3.133   3.035   1.505  1.5306  0.1925  0.9345
 1108TIP3   OH224814   1.394   5.772  16.515  0.4645 -0.3596 -0.6101
 1108TIP3    H124815   1.335   5.841  16.545 -0.5294 -1.6854  0.4976
 1108TIP3    H224816   1.370   5.758  16.423  1.3401  1.4382 -1.1406
 1109TIP3   OH224817   2.315   0.582   5.646 -0.3993 -0.1950 -0.5070
 1109TIP3    H124818   2.288   0.586   5.554  0.2958 -1.2837 -0.7631
 1109TIP3    H224819   2.366   0.501   5.653  0.0858  0.2042  0.6959
 1110TIP3   OH224820   4.716   6.589  12.201 -0.4997 -0.1033 -0.2184
 1110TIP3    H124821   4.799   6.616  12.163  0.6278 -1.2262  1.3530
 1110TIP3    H224822   4.713   6.494  12.188 -1.0914 -0.2001  0.5659
 1111TIP3   OH224823   4.536   4.359  16.106 -0.3679 -0.3450 -0.1947
 1111TIP3    H124824   4.531   4.350  16.201 -0.7755  2.3815  0.0833
 1111TIP3    H224825   4.540   4.454  16.091  0.1220 -0.7491 -2.8744
 1112TIP3   OH224826   6.360   4.941   4.098 -0.0295 -0.1255  0.8514
 1112TIP3    H124827   6.295   4.991   4.049 -1.6945 -1.9943  1.1207
 1112TIP3    H224828   6.363   4.983   4.184  0.0248  0.6990  0.4567
 1113TIP3   OH224829   3.824   3.169   6.286  0.4390  0.1009 -0.2616
 1113TIP3    H124830   3.764   3.242   6.304  1.9018  0.7781  2.0616
 1113TIP3    H224831   3.779   3.092   6.321 -0.2248  0.1762 -0.9290
 1114TIP3   OH224832   5.391   3.652  12.103 -0.0746  0.3391 -0.1789
 1114TIP3    H124833   5.466   3.701  12.137 -0.0359  2.4727 -3.0985
 1114TIP3    H224834   5.380   3.580  12.164  2.6747  1.4979  1.8177
 1115TIP3   OH224835   4.322   0.722  14.102 -0.0440  0.7687 -0.0531
 1115TIP3    H124836   4.368   0.738  14.184  1.9440  0.1761 -1.0199
 1115TIP3    H224837   4.232   0.752  14.118  0.1609  0.1051  2.5045
 1116TIP3   OH224838   1.824   5.348  16.152 -0.0482 -0.5972  0.4648
 1116TIP3    H124839   1.780   5.334  16.236  0.1949 -0.7659  0.5651
 1116TIP3    H224840   1.891   5.280  16.148  0.3684 -0.1940  0.4272
 1117TIP3   OH224841   4.637   6.515  16.673 -0.3242  0.4617 -0.2878
 1117TIP3    H124842   4.548   6.493  16.647 -0.3987  2.1441 -1.5674
 1117TIP3    H224843   4.692   6.486  16.599 -0.0074  0.9340 -0.2430
 1118TIP3   OH224844   0.657   1.221  10.790 -0.3372  0.5682 -0.6730
 1118TIP3    H124845   0.658   1.216  10.694 -2.5559 -0.3491 -0.6714
 1118TIP3    H224846   0.709   1.146  10.819  0.6362  1.0509 -1.1603
 1119TIP3   OH224847   5.936   0.007   2.527  0.6270  0.6722 -0.0714
 1119TIP3    H124848   5.993   0.071   2.569 -1.4406  2.9703 -0.6493
 1119TIP3    H224849   5.982  -0.017   2.447  1.3660  1.5804  0.0737
 1120TIP3   OH224850   5.874   3.051   0.826  0.1163 -0.5100  0.1344
 1120TIP3    H124851   5.831   3.128   0.863 -1.0011 -0.1682 -1.7994
 1120TIP3    H224852   5.962   3.081   0.805  0.1968 -0.2191  0.8555
 1121TIP3   OH224853   0.201   3.368   0.647 -0.4916 -0.0170 -0.3825
 1121TIP3    H124854   0.140   3.423   0.695 -0.8282 -0.2559 -0.5358
 1121TIP3    H224855   0.268   3.429   0.615  0.6115 -0.0798  1.7456
 1122TIP3   OH224856   5.418   5.097  11.777 -1.1443 -1.5533 -0.0660
 1122TIP3    H124857   5.329   5.089  11.743 -1.3879 -0.4235  0.2678
 1122TIP3    H224858   5.434   5.014  11.822 -2.1623 -1.6409  0.1595
 1123TIP3   OH224859   6.677   2.815  13.227 -0.0265 -0.4013  0.1447
 1123TIP3    H124860   6.738   2.761  13.277 -0.5988  0.6206  2.0208
 1123TIP3    H224861   6.664   2.892  13.281 -0.2077  1.0385 -1.9111
 1124TIP3   OH224862   4.585   5.765   1.094  0.1673  0.9003 -0.4737
 1124TIP3    H124863   4.546   5.736   1.012 -1.4100 -0.6023  0.7837
 1124TIP3    H224864   4.572   5.860   1.095  1.1389  1.0835 -2.4170
 1125TIP3   OH224865   0.904   4.838  12.479  0.3422  0.0670  0.0852
 1125TIP3    H124866   0.931   4.902  12.413  1.6805 -0.9559 -0.3822
 1125TIP3    H224867   0.813   4.862  12.500  0.4734  1.4471 -0.8631
 1126TIP3   OH224868   0.129   5.705   2.731 -0.0933  0.4022  0.1258
 1126TIP3    H124869   0.050   5.685   2.780 -0.7613  1.5475 -0.4608
 1126TIP3    H224870   0.133   5.800   2.730  0.3930  0.3789 -1.2591
 1127TIP3   OH224871   1.755   0.400  12.157  0.0450  0.3919  0.4456
 1127TIP3    H124872   1.797   0.427  12.075 -1.0035 -2.3584 -1.0722
 1127TIP3    H224873   1.732   0.482  12.200  0.8726  1.9094 -1.8829
 1128TIP3   OH224874   2.645   0.905   2.200  0.0109  0.8477  0.6374
 1128TIP3    H124875   2.611   0.840   2.138 -0.4473  1.8548 -0.1726
 1128TIP3    H224876   2.694   0.853   2.263  0.8090 -0.1714 -0.7715
 1129TIP3   OH224877   1.087   4.492  13.951 -0.0125  0.1717 -0.0571
 1129TIP3    H124878   1.174   4.489  13.911 -0.1052  0.2036 -0.2663
 1129TIP3    H224879   1.050   4.575  13.920  0.1575  0.4927  0.6128
 1130TIP3   OH224880   4.786   1.247  16.080 -0.5930  0.2869  0.4415
 1130TIP3    H124881   4.721   1.317  16.089 -0.0607  0.8432  0.0160
 1130TIP3    H224882   4.820   1.258  15.991 -2.2400 -2.0149 -0.5219
 1131TIP3   OH224883   4.152   1.869  11.458  0.5647 -0.0592  0.3590
 1131TIP3    H124884   4.239   1.900  11.485  1.1361 -1.1007 -0.2327
 1131TIP3    H224885   4.157   1.864  11.363 -0.0797 -0.3250  0.3398
 1132TIP3   OH224886   6.222   0.954   2.792  0.1039  0.5121 -0.1031
 1132TIP3    H124887   6.203   0.952   2.886 -1.7347 -0.0394 -0.4801
 1132TIP3    H224888   6.216   0.862   2.764 -0.7300  0.8380 -1.0245
 1133TIP3   OH224889   5.302   5.493   0.305 -0.1166 -0.3132  0.4677
 1133TIP3    H124890   5.297   5.419   0.366  0.2675 -0.4898  0.2820
 1133TIP3    H224891   5.395   5.511   0.296  0.0093 -2.0191 -2.1586
 1134TIP3   OH224892   3.240   6.431   2.616  0.2468 -0.0165 -0.3742
 1134TIP3    H124893   3.302   6.371   2.574  0.8989 -0.5551  1.3126
 1134TIP3    H224894   3.156   6.411   2.575  0.9049 -0.3450 -1.5916
 1135TIP3   OH224895   0.567   2.221  14.866 -0.1710  0.0578 -0.4991
 1135TIP3    H124896   0.631   2.283  14.829  0.1438 -0.0836 -0.1923
 1135TIP3    H224897   0.504   2.276  14.912  0.8571  0.0732  0.9283
 1136TIP3   OH224898   1.765   4.689   2.528 -0.1495  0.0704 -0.0592
 1136TIP3    H124899   1.692   4.709   2.469  0.1559 -0.5407 -0.6482
 1136TIP3    H224900   1.827   4.761   2.513 -0.5103  0.4581  0.2638
 1137TIP3   OH224901   2.697   0.974  15.655  0.3955 -0.1566  0.5202
 1137TIP3    H124902   2.687   0.965  15.750  0.7437 -2.1728  0.3854
 1137TIP3    H224903   2.763   1.042  15.644 -0.8776  1.3290  1.6752
 1138TIP3   OH224904   5.514   2.570   2.257  0.4407 -0.3833 -0.4714
 1138TIP3    H124905   5.466   2.495   2.222 -1.3878 -0.3317  1.7772
 1138TIP3    H224906   5.516   2.633   2.186 -1.4432 -1.0442 -1.1248
 1139TIP3   OH224907   5.741   2.521   5.983 -0.1532 -0.2779 -0.2437
 1139TIP3    H124908   5.773   2.509   5.894 -1.6178 -0.9420 -0.6971
 1139TIP3    H224909   5.783   2.451   6.034  0.0713 -0.3788 -0.5694
 1140TIP3   OH224910   1.951   4.370  16.525 -0.3070  0.6642 -0.6776
 1140TIP3    H124911   1.898   4.421  16.586 -1.1391  0.7969 -1.4974
 1140TIP3    H224912   1.935   4.279  16.550  0.4457  0.7620  0.1853
 1141TIP3   OH224913   4.375   0.822   5.907 -0.0395  0.2789 -0.2024
 1141TIP3    H124914   4.335   0.744   5.868 -0.9489  1.3100 -1.3327
 1141TIP3    H224915   4.461   0.828   5.866  0.4521 -0.7089  0.6497
 1142TIP3   OH224916   0.443   4.189   4.758  0.7585  0.1960 -0.6126
 1142TIP3    H124917   0.396   4.258   4.711 -0.9046 -0.3812  0.1433
 1142TIP3    H224918   0.373   4.132   4.791  1.9969 -0.5450  0.7620
 1143TIP3   OH224919   4.352   0.132   0.583 -0.8336 -0.5797  0.3290
 1143TIP3    H124920   4.259   0.149   0.597 -0.9119 -0.3004 -0.4802
 1143TIP3    H224921   4.376   0.190   0.511  0.0296 -0.4573  0.7127
 1144TIP3   OH224922   5.471   3.089  10.703  0.2030  0.0145 -0.5960
 1144TIP3    H124923   5.391   3.142  10.704  0.2398  0.0936  1.8045
 1144TIP3    H224924   5.542   3.154  10.693  0.1208  0.2150  0.1064
 1145TIP3   OH224925   0.611   4.151   0.684  0.3938 -0.4055 -0.0226
 1145TIP3    H124926   0.595   4.124   0.774  0.6452  1.5829  0.6558
 1145TIP3    H224927   0.705   4.171   0.681  0.2617  0.1646 -0.5324
 1146TIP3   OH224928   0.130   0.642   1.108  0.2597 -0.0838 -0.0122
 1146TIP3    H124929   0.085   0.565   1.144 -0.7809 -0.8774 -2.8638
 1146TIP3    H224930   0.073   0.716   1.130 -2.1004 -0.9777 -2.8629
 1147TIP3   OH224931   1.888   2.511  11.361  0.7024 -0.0407 -0.4422
 1147TIP3    H124932   1.795   2.494  11.372  0.7700 -0.9136 -1.1450
 1147TIP3    H224933   1.926   2.492  11.447  0.1308  1.1054  0.0746
 1148TIP3   OH224934   1.507   0.086   3.796 -0.7307  0.3967 -0.9232
 1148TIP3    H124935   1.476   0.019   3.735 -2.2184  0.3447 -0.1599
 1148TIP3    H224936   1.574   0.134   3.748  1.1169 -2.2686 -1.1414
 1149TIP3   OH224937   5.140   1.547   4.793  0.5861  0.1422 -0.3683
 1149TIP3    H124938   5.136   1.641   4.776 -2.1613 -0.3384 -2.6983
 1149TIP3    H224939   5.220   1.518   4.749  0.1797  1.0165 -1.7230
 1150TIP3   OH224940   2.054   6.051   5.119 -0.1717  0.5522 -0.0581
 1150TIP3    H124941   2.000   5.976   5.143 -0.2005  0.6200  0.0883
 1150TIP3    H224942   2.127   6.049   5.181 -0.9287  1.4926  0.8788
 1151TIP3   OH224943   6.680   3.307   2.794 -0.4752 -0.0546  0.2440
 1151TIP3    H124944   6.603   3.360   2.815  0.4416  1.3850  0.0556
 1151TIP3    H224945   6.651   3.251   2.722 -1.2832  0.6030  0.0496
 1152TIP3   OH224946   4.961   0.395   2.105 -0.5084 -0.3426 -0.1940
 1152TIP3    H124947   4.981   0.382   2.013  0.1666  0.3051 -0.1497
 1152TIP3    H224948   4.897   0.466   2.106 -0.7551 -0.5657 -0.1832
 1153TIP3   OH224949   2.338   0.862   4.502 -0.6256 -0.0138 -0.8691
 1153TIP3    H124950   2.429   0.841   4.519 -0.2831  1.3677 -0.9069
 1153TIP3    H224951   2.299   0.873   4.589 -0.8983 -1.1552 -0.8418
 1154TIP3   OH224952   3.972   1.597   0.724  0.0445 -0.0278 -0.4786
 1154TIP3    H124953   3.894   1.583   0.778 -0.0588 -0.7618 -0.8168
 1154TIP3    H224954   4.037   1.633   0.785  0.2716 -1.8426  0.3763
 1155TIP3   OH224955   6.479   2.015  15.840  0.4914  0.0688  0.6376
 1155TIP3    H124956   6.473   2.007  15.935  0.6831 -0.3546  0.6163
 1155TIP3    H224957   6.505   2.106  15.825 -0.6202  0.4446  0.9451
 1156TIP3   OH224958   4.741   3.603   3.861  0.1903 -0.2242  0.4237
 1156TIP3    H124959   4.698   3.622   3.778  0.7559 -0.5171  0.0692
 1156TIP3    H224960   4.671   3.613   3.926  0.0488  1.3168  0.0577
 1157TIP3   OH224961   3.626   6.414  17.055 -0.0347  0.0430  0.3560
 1157TIP3    H124962   3.607   6.370  17.138 -1.3383  0.1089  0.1107
 1157TIP3    H224963   3.549   6.395  17.000  0.6014  0.3919 -0.6744
 1158TIP3   OH224964   0.468   6.245   0.009 -0.1893  0.7500  0.6370
 1158TIP3    H124965   0.467   6.320   0.067  1.7421  0.8203  0.6147
 1158TIP3    H224966   0.536   6.265  -0.055 -1.1168 -0.0775 -0.6480
 1159TIP3   OH224967   0.872   2.242   2.833  0.2779  0.2492  0.3705
 1159TIP3    H124968   0.928   2.283   2.898 -1.3434  0.9932  1.3491
 1159TIP3    H224969   0.784   2.247   2.871 -0.6174  0.1997 -1.6326
 1160TIP3   OH224970   6.440   0.712   4.552  0.3071 -0.1700 -0.4824
 1160TIP3    H124971   6.534   0.720   4.567  0.2841 -1.1885  0.2294
 1160TIP3    H224972   6.417   0.790   4.501  1.4752  0.2449 -0.3781
 1161TIP3   OH224973   4.815   3.234   1.179 -0.1870  0.3168 -0.3200
 1161TIP3    H124974   4.763   3.154   1.185  0.0674  0.2209  0.6574
 1161TIP3    H224975   4.890   3.219   1.237 -1.4118  2.2181  1.8788
 1162TIP3   OH224976   6.137   5.012  13.886 -0.3567 -0.6677  0.0400
 1162TIP3    H124977   6.222   4.974  13.906 -0.9919 -1.5976  1.0640
 1162TIP3    H224978   6.083   4.938  13.858 -0.5201  0.0771 -1.6923
 1163TIP3   OH224979   4.154   2.063  11.884  0.1314 -0.6003 -0.1848
 1163TIP3    H124980   4.169   2.060  11.790  0.3087  0.8416 -0.2116
 1163TIP3    H224981   4.064   2.094  11.894 -0.0045 -1.0810  0.1173
 1164TIP3   OH224982   6.432   5.231  12.817  0.0486  0.3414 -0.0170
 1164TIP3    H124983   6.344   5.247  12.783 -0.3560  0.0989  0.8901
 1164TIP3    H224984   6.439   5.288  12.894  1.0196  1.0314 -0.6017
 1165TIP3   OH224985   6.346   6.248  13.482 -0.3596 -0.2174 -0.2185
 1165TIP3    H124986   6.268   6.282  13.438 -0.6421  0.1462  0.5547
 1165TIP3    H224987   6.343   6.288  13.569  0.9485  0.1860 -0.3521
 1166TIP3   OH224988   5.894   0.066  11.640 -0.3074  0.1214 -0.7854
 1166TIP3    H124989   5.969   0.014  11.611 -1.6033 -2.2010 -0.0631
 1166TIP3    H224990   5.822   0.038  11.583 -1.3860  0.0261  0.6076
 1167TIP3   OH224991   6.299   2.998  14.713 -0.6122 -0.2676 -0.1485
 1167TIP3    H124992   6.298   2.986  14.808  0.8249 -1.1944 -0.2369
 1167TIP3    H224993   6.279   3.091  14.700 -1.3259 -0.2522  1.0327
 1168TIP3   OH224994   6.734   0.121  13.275  0.6125  0.2893 -0.0289
 1168TIP3    H124995   6.759   0.154  13.189  1.9516  0.8364  0.5587
 1168TIP3    H224996   6.710   0.198  13.325 -1.1036 -0.1211 -0.2012
 1169TIP3   OH224997   3.417   0.623   5.771  0.0662 -0.4064  0.2317
 1169TIP3    H124998   3.400   0.717   5.765  1.6943 -0.1267 -0.2346
 1169TIP3    H224999   3.416   0.605   5.865  0.7764  0.2890  0.3857
 1170TIP3   OH225000   1.401   5.523   0.161 -0.1821 -0.3139  0.1965
 1170TIP3    H125001   1.456   5.536   0.084 -1.0245 -0.3791 -0.4228
 1170TIP3    H225002   1.361   5.437   0.148 -1.0653  0.0794  0.2272
 1171TIP3   OH225003   6.809   5.415   0.791  0.1893 -0.1469 -0.2903
 1171TIP3    H125004   6.873   5.485   0.804 -0.5342  0.4840 -0.0663
 1171TIP3    H225005   6.778   5.427   0.701  0.4455 -0.5071 -0.4292
 1172TIP3   OH225006   2.249   6.278   5.512 -0.2314 -0.3304 -0.0382
 1172TIP3    H125007   2.250   6.327   5.430  0.4601 -1.5688 -0.7917
 1172TIP3    H225008   2.294   6.196   5.492 -0.6192 -0.9291  1.4100
 1173TIP3   OH225009   1.867   4.625  15.395  0.1908  0.1442  0.0057
 1173TIP3    H125010   1.874   4.720  15.403  0.6899  0.0858  0.2970
 1173TIP3    H225011   1.863   4.594  15.486  0.3041 -0.1324 -0.0845
 1174TIP3   OH225012   0.395   3.276   5.775 -0.1136  0.0486  0.1905
 1174TIP3    H125013   0.439   3.357   5.749  0.3059  0.7010  2.7576
 1174TIP3    H225014   0.302   3.295   5.766  0.0271  0.0679 -1.2930
 1175TIP3   OH225015   6.565   4.078   1.625  0.1491 -0.2433 -0.2242
 1175TIP3    H125016   6.643   4.132   1.632 -0.4726  0.9576 -2.2053
 1175TIP3    H225017   6.498   4.125   1.673  0.4875 -1.0319  1.0561
 1176TIP3   OH225018   4.495   5.634   2.297  0.3465 -0.0217 -0.2531
 1176TIP3    H125019   4.442   5.558   2.272  1.8062 -0.3329 -2.5636
 1176TIP3    H225020   4.465   5.704   2.239 -0.9039  1.1910  1.7845
 1177TIP3   OH225021   1.402   2.115   2.785  0.1815 -0.1705 -0.1751
 1177TIP3    H125022   1.326   2.158   2.825 -1.3552 -1.1793 -1.8738
 1177TIP3    H225023   1.477   2.150   2.831 -1.4555 -0.9572  3.2758
 1178TIP3   OH225024   1.988   4.257   4.147  0.3292  0.3439 -0.0628
 1178TIP3    H125025   1.951   4.250   4.235  0.1100  0.4655 -0.1456
 1178TIP3    H225026   1.976   4.170   4.109 -0.7492  0.6487 -0.4385
 1179TIP3   OH225027   5.945   1.247   4.627  0.2143 -0.4957 -0.1133
 1179TIP3    H125028   5.898   1.309   4.570  0.3968 -1.0358 -0.8538
 1179TIP3    H225029   5.949   1.291   4.712  0.3497  0.5207 -0.6394
 1180TIP3   OH225030   1.624   4.983   2.569  0.9940  0.4876 -0.0480
 1180TIP3    H125031   1.570   5.044   2.620  0.1229  0.1148 -0.5108
 1180TIP3    H225032   1.689   4.950   2.631 -0.3626 -0.3439  0.9659
 1181TIP3   OH225033   2.989   2.714   0.923 -0.2116 -0.4302  0.4671
 1181TIP3    H125034   2.994   2.670   0.839 -2.7077 -2.7318  1.4427
 1181TIP3    H225035   3.056   2.671   0.977 -1.2448 -1.6842  0.7882
 1182TIP3   OH225036   3.563   5.777  16.979  0.5134 -0.0702 -0.0667
 1182TIP3    H125037   3.504   5.724  16.926 -0.3292  0.4001  0.3778
 1182TIP3    H225038   3.639   5.792  16.924 -0.5092  0.7213 -1.2865
 1183TIP3   OH225039   3.206   4.011   2.901 -0.3558 -0.2953  0.7396
 1183TIP3    H125040   3.249   4.077   2.847 -1.4648 -2.0760 -2.4620
 1183TIP3    H225041   3.254   3.930   2.882 -1.0387 -1.0465  2.1416
 1184TIP3   OH225042   0.681   3.565   3.758  0.1180 -0.5678 -0.4619
 1184TIP3    H125043   0.605   3.550   3.813 -0.6230 -0.0374 -1.3232
 1184TIP3    H225044   0.707   3.477   3.729  0.8221 -0.8884  1.1233
 1185TIP3   OH225045   5.942   2.266  14.420  0.0621 -0.0412  0.1269
 1185TIP3    H125046   5.914   2.343  14.470 -0.2767 -0.2157  0.2097
 1185TIP3    H225047   5.934   2.194  14.481 -0.8461 -0.3326 -0.3313
 1186TIP3   OH225048   1.538   6.416  12.800  0.5291 -0.4645 -0.6036
 1186TIP3    H125049   1.599   6.382  12.866 -0.1457 -1.6049 -0.5489
 1186TIP3    H225050   1.521   6.506  12.827  0.2922 -0.9051  0.7721
 1187TIP3   OH225051   3.954   1.560   2.825 -0.0240  0.1851  0.1385
 1187TIP3    H125052   3.865   1.583   2.798  0.0261 -0.7068 -0.8515
 1187TIP3    H225053   3.958   1.582   2.918  0.1533  4.4790 -0.7960
 1188TIP3   OH225054   4.370   6.721  11.381  0.5474 -0.2939 -0.5787
 1188TIP3    H125055   4.464   6.706  11.388  0.9677  2.3801  0.0654
 1188TIP3    H225056   4.339   6.724  11.472 -0.2808 -1.8038 -0.8021
 1189TIP3   OH225057   4.914   2.651   1.469  0.6697  0.6811 -0.2992
 1189TIP3    H125058   4.963   2.711   1.525 -0.9409  1.1446  0.6587
 1189TIP3    H225059   4.952   2.565   1.488  3.1291  1.3587 -1.8351
 1190TIP3   OH225060   0.010   1.192  13.707  0.4940  0.0833 -0.2429
 1190TIP3    H125061  -0.070   1.244  13.703  0.5306  0.1504 -0.1270
 1190TIP3    H225062   0.064   1.224  13.634  1.0619  1.1256  0.6286
 1191TIP3   OH225063   3.390   2.243  15.971 -0.0703  0.4737 -0.4091
 1191TIP3    H125064   3.327   2.177  16.000 -1.1500  1.3745 -0.6364
 1191TIP3    H225065   3.337   2.307  15.924  0.8559  1.8568  0.3860
 1192TIP3   OH225066   4.487   3.429   5.029  0.6442  0.0962 -0.1541
 1192TIP3    H125067   4.530   3.462   5.108  1.6621  0.1932 -0.7384
 1192TIP3    H225068   4.455   3.508   4.985 -0.1703  0.0230  0.2873
 1193TIP3   OH225069   0.105   4.889  15.065  0.0786  0.2063  0.1616
 1193TIP3    H125070   0.013   4.865  15.062  0.0902  0.1783  0.0332
 1193TIP3    H225071   0.110   4.971  15.014  0.2918 -0.3281 -0.6859
 1194TIP3   OH225072   4.127   2.831   4.466  0.1215 -0.4182 -0.4063
 1194TIP3    H125073   4.110   2.763   4.532 -2.1123 -0.4345 -0.9546
 1194TIP3    H225074   4.097   2.912   4.507 -1.4171 -0.4528 -1.4290
 1195TIP3   OH225075   0.856   1.851   5.293  0.2090 -0.0997  0.3746
 1195TIP3    H125076   0.913   1.927   5.288 -0.6322  0.6833  2.2114
 1195TIP3    H225077   0.904   1.789   5.349 -0.6893  0.5405  1.8804
 1196TIP3   OH225078   2.472   4.509  16.110 -0.1429  0.1735 -0.4803
 1196TIP3    H125079   2.521   4.429  16.129 -0.4895 -0.3263 -1.6275
 1196TIP3    H225080   2.499   4.571  16.178  0.4343 -0.7887  0.1735
 1197TIP3   OH225081   3.194   0.011  11.188 -0.1506 -0.3404 -0.1977
 1197TIP3    H125082   3.232  -0.076  11.200 -0.2100 -0.2342  0.7561
 1197TIP3    H225083   3.125  -0.002  11.122  1.1460 -0.6396 -1.5252
 1198TIP3   OH225084   2.983   3.361  13.808  0.5260 -0.2587 -0.1573
 1198TIP3    H125085   3.075   3.339  13.794  0.4604 -1.3041  0.9498
 1198TIP3    H225086   2.955   3.302  13.878 -1.2608 -0.6689 -1.1836
 1199TIP3   OH225087   1.722   6.445   0.162  0.2354  0.1373  0.9945
 1199TIP3    H125088   1.779   6.409   0.094 -0.6832 -0.8518  0.7266
 1199TIP3    H225089   1.672   6.513   0.118  1.0294  0.8445  1.1722
 1200TIP3   OH225090   1.849   6.174  11.418  0.2066 -0.5446  0.2775
 1200TIP3    H125091   1.768   6.218  11.390  0.7220 -0.1212 -0.5854
 1200TIP3    H225092   1.839   6.084  11.388 -0.9528 -1.0999  2.2515
 1201TIP3   OH225093   3.194   1.124   7.042 -0.3603 -0.0324  0.3548
 1201TIP3    H125094   3.162   1.141   6.954 -1.7280 -1.4406  0.5522
 1201TIP3    H225095   3.269   1.067   7.030  0.0562  0.5757  0.0538
 1202TIP3   OH225096   6.480   2.179   6.074  0.6973  0.8082 -0.2933
 1202TIP3    H125097   6.408   2.151   6.130  2.4456  0.6232  1.9294
 1202TIP3    H225098   6.555   2.127   6.102  1.4805  0.1537 -3.3534
 1203TIP3   OH225099   6.059   3.884   0.258  0.5777 -0.5048  0.6994
 1203TIP3    H125100   6.115   3.932   0.319  0.7088 -0.5425  0.6077
 1203TIP3    H225101   6.088   3.910   0.171 -1.7645  2.0747  0.6325
 1204TIP3   OH225102   2.238   5.944  12.285 -0.1903  0.5348  0.5762
 1204TIP3    H125103   2.238   5.855  12.322 -0.2727  0.9517  1.5926
 1204TIP3    H225104   2.244   5.930  12.190 -1.0520 -0.5903  0.6634
 1205TIP3   OH225105   3.271   4.618   3.421 -0.1541 -0.1109  0.1377
 1205TIP3    H125106   3.337   4.661   3.368 -0.1940  2.2682  1.9065
 1205TIP3    H225107   3.303   4.529   3.433  0.7201 -0.1459 -2.3177
 1206TIP3   OH225108   2.719   3.710  12.829  0.3658 -0.1286  0.0847
 1206TIP3    H125109   2.693   3.801  12.820 -0.6897 -0.5112 -0.9278
 1206TIP3    H225110   2.650   3.661  12.785  0.7342 -1.4414  0.9379
 1207TIP3   OH225111   5.590   0.632   4.823 -0.0361  0.0973 -0.5347
 1207TIP3    H125112   5.495   0.617   4.828  0.1608 -0.9901  0.1340
 1207TIP3    H225113   5.623   0.601   4.907  0.4113  4.5619  1.0358
 1208TIP3   OH225114   1.488   1.298   4.168 -0.3725  0.0820 -1.2494
 1208TIP3    H125115   1.580   1.322   4.162 -0.1237 -0.1437  1.2732
 1208TIP3    H225116   1.463   1.275   4.078  2.3016 -0.9142 -1.7688
 1209TIP3   OH225117   0.140   4.196  12.274  0.4251 -0.8547 -0.1921
 1209TIP3    H125118   0.113   4.278  12.315  1.0289  0.2650 -1.9599
 1209TIP3    H225119   0.220   4.171  12.321  0.4566 -0.2248  0.0977
 1210TIP3   OH225120   3.701   1.392  16.306 -0.0024  0.3176 -0.2701
 1210TIP3    H125121   3.720   1.302  16.333  0.6324  1.1085  2.0004
 1210TIP3    H225122   3.615   1.386  16.264  0.6587 -1.5666 -1.4269
 1211TIP3   OH225123   3.443   5.240  13.281  0.3806  0.1062  0.0685
 1211TIP3    H125124   3.534   5.261  13.301  0.9780 -0.9270 -1.4700
 1211TIP3    H225125   3.433   5.149  13.309  0.4951 -0.5244 -1.8592
 1212TIP3   OH225126   6.149   2.794   2.631 -0.2953  0.1369 -0.0389
 1212TIP3    H125127   6.092   2.859   2.590 -1.8897 -0.5547  1.0337
 1212TIP3    H225128   6.110   2.777   2.716  1.0504 -0.9737  0.3808
 1213TIP3   OH225129   3.458   4.346  13.173  0.4297 -0.4499  0.3014
 1213TIP3    H125130   3.406   4.266  13.171  0.7713 -0.6803  0.5316
 1213TIP3    H225131   3.437   4.391  13.091  1.5891 -1.6274 -0.6535
 1214TIP3   OH225132   4.785   0.927   1.902 -0.1405 -0.3188 -0.1053
 1214TIP3    H125133   4.742   0.845   1.926 -0.6041  0.3247  1.3315
 1214TIP3    H225134   4.733   0.963   1.831 -0.9216 -0.4435  0.4028
 1215TIP3   OH225135   1.248   4.818   6.779 -0.3113 -0.3334  0.5610
 1215TIP3    H125136   1.321   4.761   6.805 -0.5376  0.5526  3.3369
 1215TIP3    H225137   1.279   4.907   6.801 -1.3177  0.2665 -0.4367
 1216TIP3   OH225138   6.019   0.212   1.802 -0.1222 -0.1800 -0.4384
 1216TIP3    H125139   6.036   0.274   1.873  1.2651  0.2619 -1.1284
 1216TIP3    H225140   6.046   0.259   1.723 -2.9799 -0.1403 -1.4335
 1217TIP3   OH225141   5.712   3.126  14.779 -0.2872  0.9674 -0.3447
 1217TIP3    H125142   5.684   3.119  14.688  0.4635 -0.0294 -0.4981
 1217TIP3    H225143   5.726   3.036  14.808  1.7871  1.3838  0.0254
 1218TIP3   OH225144   6.120   3.185   0.040  0.0561  0.3162 -0.1558
 1218TIP3    H125145   6.159   3.214  -0.042 -1.2600 -3.1166 -2.1278
 1218TIP3    H225146   6.028   3.208   0.033 -0.3761 -1.3678 -0.3921
 1219TIP3   OH225147   6.000   6.210  15.417 -0.5163 -0.0767 -1.0252
 1219TIP3    H125148   5.972   6.120  15.399 -1.8863  0.9042 -4.0627
 1219TIP3    H225149   5.935   6.265  15.374  1.3730  2.3854 -0.8671
 1220TIP3   OH225150   2.241   1.118  16.183 -0.1136 -0.3683 -0.9737
 1220TIP3    H125151   2.302   1.140  16.253 -1.1397 -1.2677  0.2072
 1220TIP3    H225152   2.260   1.182  16.114  0.9188  0.4978  0.1041
 1221TIP3   OH225153   1.506   1.020   0.432 -0.4573 -0.4549  0.2395
 1221TIP3    H125154   1.594   0.984   0.449 -0.6815 -1.5159 -0.7485
 1221TIP3    H225155   1.447   0.948   0.454 -0.9959 -0.2561 -0.5598
 1222TIP3   OH225156   0.349   6.396   5.539  0.3337  0.6362 -0.2587
 1222TIP3    H125157   0.382   6.486   5.548 -1.5078  1.3569 -0.4939
 1222TIP3    H225158   0.281   6.388   5.605  0.3254 -0.5197 -0.3935
 1223TIP3   OH225159   3.096   5.467  11.550 -0.3501 -0.6101 -0.2004
 1223TIP3    H125160   3.034   5.497  11.483 -0.1669 -0.0178 -0.1110
 1223TIP3    H225161   3.046   5.469  11.631 -0.3115 -0.4578 -0.1796
 1224TIP3   OH225162   0.413   6.671  12.452 -0.1921  0.0539 -0.3601
 1224TIP3    H125163   0.477   6.730  12.411 -1.3672  0.2146 -1.9901
 1224TIP3    H225164   0.409   6.596  12.393 -1.1326 -0.2029  0.0275
 1225TIP3   OH225165   2.673   2.510  11.738  1.0028 -0.1678  0.5293
 1225TIP3    H125166   2.680   2.484  11.646 -4.3381 -0.6788  0.1057
 1225TIP3    H225167   2.679   2.428  11.786 -0.6025 -0.4530  0.2718
 1226TIP3   OH225168   0.968   2.912  15.198 -0.3171 -0.0971  0.6395
 1226TIP3    H125169   0.921   2.833  15.224 -1.5420  0.0725 -0.9846
 1226TIP3    H225170   0.901   2.968  15.159  0.7420  1.2820  0.7851
 1227TIP3   OH225171   1.781   1.405   3.696 -0.0529 -0.3596  1.0510
 1227TIP3    H125172   1.827   1.410   3.780  0.0595  1.9270  0.8994
 1227TIP3    H225173   1.694   1.441   3.714  0.4328  1.4489 -0.0844
 1228TIP3   OH225174   0.931   4.360   1.807 -0.0315  0.1274  0.0222
 1228TIP3    H125175   0.837   4.363   1.791 -0.3886 -1.8794  1.6425
 1228TIP3    H225176   0.970   4.341   1.722 -1.1232  0.3061 -0.5169
 1229TIP3   OH225177   0.236   1.353   0.463 -0.3137 -0.1142 -0.0763
 1229TIP3    H125178   0.241   1.305   0.546  0.5020 -0.7615 -0.4930
 1229TIP3    H225179   0.152   1.328   0.425  0.0863 -1.1846 -0.2694
 1230TIP3   OH225180   2.386   0.614  16.679 -0.3305  0.5431  0.0682
 1230TIP3    H125181   2.304   0.648  16.641 -0.7118  0.4722  0.8235
 1230TIP3    H225182   2.360   0.576  16.763  0.3602 -0.1578 -0.0273
 1231TIP3   OH225183   5.224   5.188   5.918 -0.0805 -0.5914 -0.4561
 1231TIP3    H125184   5.236   5.163   5.827 -2.2834  2.3463 -1.6553
 1231TIP3    H225185   5.157   5.128   5.951  1.4020 -2.2684 -0.4744
 1232TIP3   OH225186   2.485   1.355  10.774  0.4952  0.1618  0.5366
 1232TIP3    H125187   2.490   1.259  10.774 -0.4452  0.1050 -0.4081
 1232TIP3    H225188   2.566   1.383  10.733  0.6113 -0.2431  0.4829
 1233TIP3   OH225189   4.988   3.254   2.852  0.6911  0.3588 -0.1652
 1233TIP3    H125190   4.988   3.296   2.766 -2.0362  1.8938  0.5106
 1233TIP3    H225191   4.997   3.326   2.914  4.4803 -0.8964  0.8580
 1234TIP3   OH225192   6.553   1.693   4.058  0.1922 -0.4500 -0.2012
 1234TIP3    H125193   6.623   1.758   4.053 -1.3921  1.3745  0.7596
 1234TIP3    H225194   6.548   1.671   4.151 -0.8511 -0.1793 -0.1909
 1235TIP3   OH225195   6.690   2.874  12.171  0.1556  0.6180  0.1956
 1235TIP3    H125196   6.694   2.806  12.238  0.3223 -1.2120 -1.5995
 1235TIP3    H225197   6.599   2.901  12.169 -0.2819 -0.8177 -0.2311
 1236TIP3   OH225198   4.067   3.184   2.498 -0.2305 -0.4171  0.0766
 1236TIP3    H125199   4.105   3.207   2.414 -0.7984  1.7429  0.3735
 1236TIP3    H225200   3.984   3.142   2.477  0.6885 -1.9479 -0.4883
 1237TIP3   OH225201   2.924   2.538   1.424 -0.1353  0.2436 -0.5055
 1237TIP3    H125202   2.929   2.448   1.456 -0.4444  0.9887  1.7081
 1237TIP3    H225203   2.833   2.547   1.394 -0.5515  0.3039  0.7580
 1238TIP3   OH225204   0.758   5.588  13.579  0.7830 -0.1968  0.3735
 1238TIP3    H125205   0.817   5.659  13.603 -0.8818  0.9268  1.2506
 1238TIP3    H225206   0.676   5.632  13.554  0.1590 -1.7336 -0.3436
 1239TIP3   OH225207   4.513   1.254   1.672  0.4752 -0.2696  0.1589
 1239TIP3    H125208   4.449   1.219   1.734  0.0595  1.4715  0.7516
 1239TIP3    H225209   4.465   1.259   1.589  0.7878 -1.8353 -0.1418
 1240TIP3   OH225210   2.715   1.766   5.141 -0.2507 -0.1442 -0.2482
 1240TIP3    H125211   2.765   1.818   5.078 -0.3665  0.1707 -0.0804
 1240TIP3    H225212   2.737   1.675   5.120  0.2465 -0.0126 -0.2927
 1241TIP3   OH225213   3.741   4.362  11.173  0.2189  0.3148 -0.8349
 1241TIP3    H125214   3.674   4.300  11.203  1.1596 -0.3611 -0.0997
 1241TIP3    H225215   3.736   4.358  11.077 -0.4486 -0.1209 -0.7822
 1242TIP3   OH225216   3.601   2.089  14.107  0.4061  0.0228  0.5709
 1242TIP3    H125217   3.595   1.995  14.092  0.7109  0.1385 -0.2829
 1242TIP3    H225218   3.694   2.110  14.094  0.0963  0.6844 -0.7222
 1243TIP3   OH225219   5.717   0.127   0.450  0.1333 -0.1399 -0.0628
 1243TIP3    H125220   5.628   0.107   0.480 -0.1176  0.3106 -0.4880
 1243TIP3    H225221   5.735   0.214   0.484 -0.1902  0.4152 -1.2775
 1244TIP3   OH225222   3.217   3.795  17.262  1.1573 -0.1209 -0.3404
 1244TIP3    H125223   3.196   3.853  17.335 -2.8012  2.0576 -2.9870
 1244TIP3    H225224   3.185   3.709  17.289 -0.4057  0.6930  0.4611
 1245TIP3   OH225225   1.234   3.163  15.991 -0.3096  0.2688  0.2044
 1245TIP3    H125226   1.263   3.254  15.992 -2.3784  0.9783 -1.4031
 1245TIP3    H225227   1.167   3.159  16.060 -0.3318  0.0163  0.1693
 1246TIP3   OH225228   5.814   3.609   0.401 -0.6619  0.5749  0.3283
 1246TIP3    H125229   5.816   3.631   0.494  1.2787  0.6055  0.3181
 1246TIP3    H225230   5.822   3.514   0.398 -1.1010  0.5416  0.2017
 1247TIP3   OH225231   6.398   3.292   2.523  0.0939 -0.0744  0.7804
 1247TIP3    H125232   6.443   3.211   2.547  1.4877  0.4661  0.0831
 1247TIP3    H225233   6.423   3.354   2.591  0.5676  0.2835  0.2796
 1248TIP3   OH225234   5.364   6.820   4.464 -0.4344 -0.2463 -0.3846
 1248TIP3    H125235   5.439   6.859   4.420  0.4444 -0.3107  1.0249
 1248TIP3    H225236   5.365   6.857   4.552 -2.2195 -0.0461 -0.4139
 1249TIP3   OH225237   4.554   4.540   1.473  0.0529  0.5881 -0.2207
 1249TIP3    H125238   4.515   4.545   1.560  0.3942 -0.2589 -0.0116
 1249TIP3    H225239   4.620   4.471   1.480 -1.3468 -0.9587 -1.6962
 1250TIP3   OH225240   2.342   2.166   5.746 -0.1260 -0.2538 -0.3052
 1250TIP3    H125241   2.319   2.074   5.730 -1.4812 -0.2379  1.4131
 1250TIP3    H225242   2.279   2.196   5.811  1.8440  1.1987  0.9944
 1251TIP3   OH225243   3.751   4.712   2.880  0.3900  0.4769  0.6140
 1251TIP3    H125244   3.688   4.651   2.841  1.3653 -0.9666  1.2557
 1251TIP3    H225245   3.697   4.783   2.914 -0.8735 -0.5726  0.8674
 1252TIP3   OH225246   3.683   0.692   2.206 -0.3697  0.1301 -0.1192
 1252TIP3    H125247   3.671   0.783   2.177  1.6780  0.1281 -1.0878
 1252TIP3    H225248   3.677   0.640   2.126  0.6797 -0.3361  0.0886
 1253TIP3   OH225249   3.597   3.425   2.648 -0.6457  0.5050 -0.2905
 1253TIP3    H125250   3.679   3.440   2.602  0.4087 -1.2467  0.9714
 1253TIP3    H225251   3.529   3.451   2.584  0.8498  3.5413 -0.7531
 1254TIP3   OH225252   1.006   0.067  16.139  0.5077 -0.3048 -0.4134
 1254TIP3    H125253   0.920   0.058  16.179  0.7310  0.6698  0.2985
 1254TIP3    H225254   0.993   0.130  16.068  0.8876  0.7487  0.4511
 1255TIP3   OH225255   4.845   4.919   1.030  0.2116  0.0422 -0.0448
 1255TIP3    H125256   4.850   4.925   1.126  0.7429 -0.7611 -0.0191
 1255TIP3    H225257   4.930   4.951   1.000  0.2193 -0.1502 -0.2288
 1256TIP3   OH225258   1.151   5.192   6.108 -0.1925 -0.3196 -0.1361
 1256TIP3    H125259   1.099   5.174   6.187  1.4602 -0.3800  0.9490
 1256TIP3    H225260   1.115   5.132   6.042 -1.6147 -0.2460  0.5523
 1257TIP3   OH225261   4.974   3.258   0.364  0.2968  0.1623  0.2803
 1257TIP3    H125262   4.976   3.309   0.445 -0.5717 -0.6057  0.7948
 1257TIP3    H225263   4.926   3.179   0.387  0.8338 -0.4734 -0.7570
 1258TIP3   OH225264   5.561   3.673   0.596 -0.0472 -0.0150  0.2139
 1258TIP3    H125265   5.628   3.609   0.619  0.3223 -0.0033 -0.7931
 1258TIP3    H225266   5.479   3.623   0.594  0.1746 -0.3679 -0.1200
 1259TIP3   OH225267   6.382   1.699  11.827 -0.0218 -0.1257 -0.5980
 1259TIP3    H125268   6.415   1.750  11.753  0.2874  0.5771  0.0248
 1259TIP3    H225269   6.287   1.709  11.823  0.0169  0.2058 -0.6796
 1260TIP3   OH225270   1.819   4.431   4.602  0.7490  0.1481  0.6145
 1260TIP3    H125271   1.887   4.499   4.603  1.0580 -0.1148 -1.4769
 1260TIP3    H225272   1.843   4.374   4.530 -2.2023  0.5567 -0.7624
 1261TIP3   OH225273   6.000   3.550   2.485  0.1159  0.1695 -0.3408
 1261TIP3    H125274   6.078   3.514   2.442 -0.2336 -0.2250 -0.6575
 1261TIP3    H225275   6.013   3.645   2.484  0.4666  0.1185 -0.6380
 1262TIP3   OH225276   3.267   3.144  12.115  0.4883  0.7109 -0.1011
 1262TIP3    H125277   3.308   3.075  12.168 -0.0847 -0.6570 -1.4243
 1262TIP3    H225278   3.220   3.197  12.179  0.1335 -0.6902  0.8314
 1263TIP3   OH225279   6.743   3.356  15.016  0.0738  0.1223 -0.4501
 1263TIP3    H125280   6.649   3.355  14.999  0.0395 -1.4877 -0.2589
 1263TIP3    H225281   6.754   3.422  15.084 -0.6373  1.7758 -1.9162
 1264TIP3   OH225282   3.207   1.627   4.715  0.3070  0.9834  0.1948
 1264TIP3    H125283   3.282   1.594   4.665 -1.3540 -2.8270  0.1239
 1264TIP3    H225284   3.137   1.636   4.651 -0.5426  0.4189  1.0376
 1265TIP3   OH225285   5.749   2.481  14.561  0.2008 -0.1917  0.0671
 1265TIP3    H125286   5.668   2.434  14.542 -0.8031  1.6734 -0.3587
 1265TIP3    H225287   5.752   2.486  14.657 -0.5454  0.3366  0.0649
 1266TIP3   OH225288   1.008   0.584  12.934 -0.2180 -0.3932 -0.1700
 1266TIP3    H125289   1.009   0.587  12.838 -1.4310 -0.2757 -0.1885
 1266TIP3    H225290   0.999   0.676  12.960  0.8319 -0.3564  0.0749
 1267TIP3   OH225291   6.265   3.755   0.598 -1.1242 -0.3720 -0.3658
 1267TIP3    H125292   6.256   3.710   0.514 -2.4773 -0.0316 -0.4171
 1267TIP3    H225293   6.191   3.723   0.650 -1.6962  1.2463 -0.1572
 1268TIP3   OH225294   1.122   1.713   3.637  0.3442 -0.0467  0.0162
 1268TIP3    H125295   1.042   1.764   3.652 -0.6788 -1.9485  1.1617
 1268TIP3    H225296   1.192   1.777   3.645 -1.0344  1.6101 -0.7708
 1269TIP3   OH225297   3.880   2.295   3.721 -0.3112 -0.2881  0.2320
 1269TIP3    H125298   3.906   2.236   3.650  1.1609  0.5266  0.0722
 1269TIP3    H225299   3.851   2.237   3.791 -0.4188 -1.1475 -0.5191
 1270TIP3   OH225300   3.683   2.172   0.008 -0.4153 -1.0404 -0.1484
 1270TIP3    H125301   3.605   2.166   0.063 -0.6885  1.6358 -0.1471
 1270TIP3    H225302   3.650   2.156  -0.081 -0.7563 -1.0425 -0.0225
 1271TIP3   OH225303   6.590   0.991  12.920 -0.2076 -0.9788  0.2378
 1271TIP3    H125304   6.560   0.905  12.950 -2.5394 -0.9160 -1.6869
 1271TIP3    H225305   6.509   1.039  12.900  1.0896  0.0365 -3.0107
 1272TIP3   OH225306   6.572   4.423  13.162 -0.4387  0.5015 -0.0310
 1272TIP3    H125307   6.540   4.333  13.164  0.4824  0.1737 -0.0220
 1272TIP3    H225308   6.498   4.474  13.128  0.3171 -0.7791 -3.8206
 1273TIP3   OH225309   0.416   1.024  14.038  0.0331 -0.0533 -0.0957
 1273TIP3    H125310   0.383   1.114  14.029 -1.8942 -0.7736 -0.3502
 1273TIP3    H225311   0.444   1.018  14.130  0.7420  0.9668 -0.2218
 1274TIP3   OH225312   6.159   3.052  15.810 -0.4222  0.4525  0.0518
 1274TIP3    H125313   6.175   3.018  15.898 -0.1955  0.0131 -0.1589
 1274TIP3    H225314   6.071   3.022  15.788 -0.3132  0.1994 -0.0411
 1275TIP3   OH225315   3.985   2.879  10.674 -0.2437  0.3360 -0.2247
 1275TIP3    H125316   3.926   2.841  10.739  0.1625  2.7540  1.6610
 1275TIP3    H225317   3.933   2.947  10.630 -0.0508 -0.2283 -1.3338
 1276TIP3   OH225318   0.122   2.751  14.498 -0.1450  0.1488 -0.5171
 1276TIP3    H125319   0.163   2.826  14.456 -1.2307  1.2745  0.4277
 1276TIP3    H225320   0.190   2.713  14.553 -0.4426  2.2373  1.3539
 1277TIP3   OH225321   4.629   5.533   0.628  0.3407  0.4057  0.0853
 1277TIP3    H125322   4.552   5.488   0.592  0.7715  0.5913 -1.0734
 1277TIP3    H225323   4.687   5.462   0.656  0.2389  0.2542 -0.0857
 1278TIP3   OH225324   6.700   6.681  14.309  0.1096 -0.7296  0.1462
 1278TIP3    H125325   6.647   6.717  14.381 -0.6354 -1.5604  0.0213
 1278TIP3    H225326   6.790   6.706  14.331 -0.3548  0.9682  0.2018
 1279TIP3   OH225327   3.734   1.758   0.292 -0.5202  0.7340 -0.0657
 1279TIP3    H125328   3.727   1.810   0.213  0.4727  0.6718 -0.1936
 1279TIP3    H225329   3.827   1.736   0.299 -1.2599 -3.4435 -1.5913
 1280TIP3   OH225330   6.062   3.689   0.786 -0.7078  0.3349  0.8054
 1280TIP3    H125331   6.100   3.615   0.833 -1.2871  0.8798  2.1397
 1280TIP3    H225332   6.067   3.763   0.847 -1.1448  1.1436 -0.1044
 1281TIP3   OH225333   2.110   1.024  11.801  0.2832  0.5133  0.2208
 1281TIP3    H125334   2.130   1.096  11.861 -0.1952 -0.1268  1.1653
 1281TIP3    H225335   2.113   0.946  11.856 -0.9458 -0.0080 -0.4349
 1282TIP3   OH225336   2.118   6.306   2.991  0.1349  0.1224 -0.1237
 1282TIP3    H125337   2.059   6.374   2.958 -2.0794 -2.0878 -0.8445
 1282TIP3    H225338   2.123   6.324   3.085 -3.3924 -0.8179  0.3296
 1283TIP3   OH225339   5.566   3.637   2.974 -0.2295  0.3905  0.2768
 1283TIP3    H125340   5.484   3.667   2.934  0.1798  1.2324  0.0533
 1283TIP3    H225341   5.629   3.706   2.953  0.5531 -0.2935  0.3858
 1284TIP3   OH225342   2.150   6.007  16.670 -0.1289  0.1293  0.4103
 1284TIP3    H125343   2.193   6.076  16.620 -1.8150  0.0726 -1.1635
 1284TIP3    H225344   2.213   5.935  16.671 -0.3288 -0.1129 -2.2255
 1285TIP3   OH225345   4.604   2.337   5.281 -0.4808 -0.4057  0.8334
 1285TIP3    H125346   4.570   2.420   5.315  0.3286 -0.2887  1.3589
 1285TIP3    H225347   4.590   2.274   5.351  0.8213 -0.2521  1.2257
 1286TIP3   OH225348   2.226   3.129   2.385 -0.2645  0.4713 -0.1007
 1286TIP3    H125349   2.280   3.209   2.387  0.3384  0.0774 -0.5547
 1286TIP3    H225350   2.197   3.118   2.476  4.1313 -1.7916  1.2004
 1287TIP3   OH225351   5.931   4.569   4.314  0.0984  0.0656 -0.0216
 1287TIP3    H125352   5.965   4.533   4.233  1.0470  0.2411  0.2883
 1287TIP3    H225353   6.009   4.592   4.365 -0.4497 -1.3118  1.5041
 1288TIP3   OH225354   3.937   3.593   0.757 -1.0129 -0.1361  0.1305
 1288TIP3    H125355   3.899   3.614   0.672 -1.1064 -2.5320 -0.4391
 1288TIP3    H225356   4.031   3.592   0.742 -1.0744 -1.4807 -0.1573
 1289TIP3   OH225357   3.146   0.495  11.495 -0.1581 -0.6109 -0.0530
 1289TIP3    H125358   3.153   0.564  11.429  0.6352  1.0097  1.7060
 1289TIP3    H225359   3.217   0.435  11.474  1.2919  0.8906  0.4545
 1290TIP3   OH225360   3.857   3.288   2.258  0.2234  0.8116 -0.0186
 1290TIP3    H125361   3.768   3.256   2.238  0.0852  1.1128  0.1153
 1290TIP3    H225362   3.915   3.225   2.214 -0.0650  0.8805 -0.5046
 1291TIP3   OH225363   5.431   5.450  13.657  0.9272  0.2130  0.4399
 1291TIP3    H125364   5.445   5.538  13.622  1.4065 -0.4273 -0.9788
 1291TIP3    H225365   5.504   5.436  13.717  0.8660  0.7552  0.6494
 1292TIP3   OH225366   5.313   4.553  12.215 -0.0122 -0.1691  0.0181
 1292TIP3    H125367   5.282   4.471  12.254  0.2228 -0.3315 -0.1390
 1292TIP3    H225368   5.236   4.588  12.169 -1.0622  1.3497  2.8004
 1293TIP3   OH225369   1.428   5.259  11.822  0.1075 -0.0662  0.4333
 1293TIP3    H125370   1.470   5.330  11.774 -1.2494  0.7896  0.4822
 1293TIP3    H225371   1.365   5.303  11.879 -1.1788 -1.3492  0.0226
 1294TIP3   OH225372   3.897   5.332   0.194 -0.0763  0.1481  0.3259
 1294TIP3    H125373   3.968   5.345   0.131  0.3907 -2.1618  0.3066
 1294TIP3    H225374   3.820   5.367   0.150  0.7810  1.3012 -0.2852
 1295TIP3   OH225375   4.865   3.798   0.797  0.3628 -0.1663  0.0403
 1295TIP3    H125376   4.777   3.761   0.799 -0.1205  0.9118 -0.5467
 1295TIP3    H225377   4.856   3.883   0.841  1.2922 -0.4197  0.7474
 1296TIP3   OH225378   3.200   6.488   0.931 -0.3372  0.8528  0.4387
 1296TIP3    H125379   3.106   6.470   0.935 -0.1494 -0.4290 -0.6851
 1296TIP3    H225380   3.232   6.466   1.019 -1.3102  2.7279  1.2877
 1297TIP3   OH225381   2.146   2.737  13.858  0.1525 -0.2591  0.6472
 1297TIP3    H125382   2.227   2.686  13.857  1.0038  1.0966 -0.3331
 1297TIP3    H225383   2.174   2.828  13.862 -1.3198  0.2417  0.1677
 1298TIP3   OH225384   5.508   3.451  14.188 -0.8856  0.0732 -0.3519
 1298TIP3    H125385   5.597   3.424  14.210 -0.7899  1.1878  0.6979
 1298TIP3    H225386   5.452   3.385  14.227 -0.4994 -1.0430 -1.6588
 1299TIP3   OH225387   2.714   5.756  15.243  0.0497 -0.2246 -0.0961
 1299TIP3    H125388   2.726   5.835  15.296 -0.0248 -0.1594 -0.1765
 1299TIP3    H225389   2.795   5.707  15.257  1.3981  1.2305 -2.3666
 1300TIP3   OH225390   3.485   2.635  17.008 -0.2905  0.1472  0.3164
 1300TIP3    H125391   3.526   2.714  17.044  0.9136 -0.4268  0.2039
 1300TIP3    H225392   3.391   2.648  17.025 -0.2128  2.0484 -0.5768
 1301TIP3   OH225393   6.067   1.000   2.552  0.5977 -0.0212  0.9793
 1301TIP3    H125394   6.143   1.009   2.495  0.8412  1.3414  1.4865
 1301TIP3    H225395   6.104   0.990   2.640  0.2147  2.6097  1.4900
 1302TIP3   OH225396   3.174   5.537  16.652 -0.2372  0.1575 -0.4263
 1302TIP3    H125397   3.255   5.552  16.603  0.5459  1.3480  1.2249
 1302TIP3    H225398   3.167   5.441  16.657  0.2039  0.0269 -1.9516
 1303TIP3   OH225399   4.058   3.059   4.636 -0.4000 -0.4174  0.3198
 1303TIP3    H125400   4.138   3.079   4.684 -0.3282 -0.1263  0.0778
 1303TIP3    H225401   4.022   3.145   4.613 -0.7380 -0.5481  0.3547
 1304TIP3   OH225402   5.438   3.844  13.381 -0.1928 -0.0439  0.3114
 1304TIP3    H125403   5.507   3.840  13.447 -0.5189  1.6683  0.7904
 1304TIP3    H225404   5.358   3.860  13.430 -0.7974 -1.0601 -0.3230
 1305TIP3   OH225405   3.432   2.262  14.229 -0.8159  0.3795 -0.3564
 1305TIP3    H125406   3.512   2.225  14.191 -0.5655  0.5786 -0.0327
 1305TIP3    H225407   3.367   2.256  14.160 -0.4193  0.5590 -0.7470
 1306TIP3   OH225408   2.969   5.075  15.052  0.0324  0.3970  0.1849
 1306TIP3    H125409   2.955   5.002  15.111 -1.4113  0.2783 -0.2842
 1306TIP3    H225410   2.971   5.153  15.108  0.6674  0.0980  0.5830
 1307TIP3   OH225411   4.629   3.219   4.444  0.3003  0.3402 -0.9107
 1307TIP3    H125412   4.598   3.175   4.364  1.1725  0.4711 -1.3302
 1307TIP3    H225413   4.557   3.210   4.506  1.0304 -3.0798 -0.4490
 1308TIP3   OH225414   5.746   6.724   0.764 -0.3776 -0.0672 -0.6516
 1308TIP3    H125415   5.838   6.742   0.781 -0.5944  0.6615 -0.2445
 1308TIP3    H225416   5.737   6.730   0.668 -0.1062  0.3455 -0.6510
 1309TIP3   OH225417   3.415   1.962   5.878  0.4914 -0.6534  0.0734
 1309TIP3    H125418   3.328   1.928   5.902 -0.4583  1.6683  0.0856
 1309TIP3    H225419   3.417   1.958   5.783 -0.0700  0.3476  0.0222
 1310TIP3   OH225420   3.482   2.893   5.266 -0.5515 -0.1560  0.3594
 1310TIP3    H125421   3.525   2.888   5.351  0.7171 -0.3695 -0.2829
 1310TIP3    H225422   3.422   2.819   5.265  0.1448 -0.7293  0.6775
 1311TIP3   OH225423   2.307   3.532  16.787  0.0574 -0.0175 -0.1284
 1311TIP3    H125424   2.303   3.442  16.819 -2.5265 -0.5394 -1.7810
 1311TIP3    H225425   2.354   3.526  16.704 -0.2282  0.1368 -0.3005
 1312TIP3   OH225426   4.456   3.250  13.712 -0.2707  0.6972  0.2682
 1312TIP3    H125427   4.363   3.265  13.694 -1.1485 -1.7821  2.3768
 1312TIP3    H225428   4.490   3.335  13.740 -2.2542  1.3240  0.8249
 1313TIP3   OH225429   3.202   4.773   2.071 -0.2146  0.2522 -0.0525
 1313TIP3    H125430   3.212   4.721   2.150 -0.9097 -1.8536 -1.3055
 1313TIP3    H225431   3.227   4.862   2.097 -1.0753 -0.2611  2.6710
 1314TIP3   OH225432   2.894   3.276   4.462  0.2546  0.0880 -0.1499
 1314TIP3    H125433   2.977   3.307   4.425  0.1351  1.3443  0.5979
 1314TIP3    H225434   2.848   3.356   4.486 -1.2848 -0.5905 -0.7664
 1315TIP3   OH225435   4.511   1.130   5.635  0.0150 -0.2233  0.8172
 1315TIP3    H125436   4.588   1.076   5.654 -0.0222  0.0963  1.9424
 1315TIP3    H225437   4.536   1.218   5.665  1.3031  1.1797 -4.0004
 1316TIP3   OH225438   2.125   4.224   5.475  0.0891  0.0414 -0.0255
 1316TIP3    H125439   2.121   4.317   5.450 -1.2520 -0.0699 -0.2827
 1316TIP3    H225440   2.206   4.192   5.437 -0.6558  0.5098 -2.0807
 1317TIP3   OH225441   4.788   5.137  15.309  0.0382 -0.0374 -0.6014
 1317TIP3    H125442   4.732   5.188  15.367 -0.0604  0.5698 -1.2246
 1317TIP3    H225443   4.861   5.196  15.287  1.3222 -1.0617  0.7844
 1318TIP3   OH225444   5.998   2.330  16.435  0.2482  0.3717 -0.1093
 1318TIP3    H125445   5.942   2.401  16.404 -2.0359 -1.5176 -0.3981
 1318TIP3    H225446   6.046   2.303  16.357  1.3560  1.7573  0.0657
 1319TIP3   OH225447   3.340   1.478  15.503 -0.3529 -0.8094 -0.0273
 1319TIP3    H125448   3.277   1.544  15.472 -0.7548  0.1741  2.7686
 1319TIP3    H225449   3.422   1.501  15.460 -0.9767  0.2729 -0.6555
 1320TIP3   OH225450   6.040   3.622  16.099 -0.2220  0.1804 -0.4431
 1320TIP3    H125451   5.983   3.544  16.098  0.0491 -0.0216 -2.5695
 1320TIP3    H225452   5.982   3.694  16.075 -0.4135  0.6128  1.2660
 1321TIP3   OH225453   0.827   1.723   0.756  0.3815 -0.2683 -0.3726
 1321TIP3    H125454   0.753   1.706   0.813  0.5182  0.3002 -0.0235
 1321TIP3    H225455   0.855   1.637   0.727  1.9808 -0.7820  2.5198
 1322TIP3   OH225456   0.853   3.312   4.413  0.4523 -0.0168 -0.3492
 1322TIP3    H125457   0.880   3.332   4.502  0.0702 -1.5634  0.1268
 1322TIP3    H225458   0.929   3.267   4.374 -0.2635 -1.5537 -0.0073
 1323TIP3   OH225459   4.007   1.140   5.262  0.0684  0.1057 -0.3907
 1323TIP3    H125460   4.075   1.122   5.328 -1.0885  0.1632  0.8324
 1323TIP3    H225461   3.992   1.056   5.220 -1.1652 -0.5617  1.3310
 1324TIP3   OH225462   5.916   3.547   5.135 -0.3847 -0.5477  0.4142
 1324TIP3    H125463   6.008   3.546   5.110 -0.4134 -0.4161  0.2987
 1324TIP3    H225464   5.900   3.637   5.164 -0.3969 -0.6528  0.7372
 1325TIP3   OH225465   6.356   1.142   3.249  0.3841  0.4516 -0.2210
 1325TIP3    H125466   6.380   1.064   3.300 -0.8561  0.4880  0.4547
 1325TIP3    H225467   6.430   1.201   3.259  0.1780  0.4551  1.5913
 1326TIP3   OH225468   5.714   2.356   2.050  0.3244  0.0272 -0.2072
 1326TIP3    H125469   5.789   2.413   2.066  1.2203 -1.1985  0.0785
 1326TIP3    H225470   5.676   2.388   1.969  1.7214  0.1019 -0.8605
 1327TIP3   OH225471   4.344   3.389  16.848  0.5803 -0.2514  0.2975
 1327TIP3    H125472   4.387   3.323  16.902  0.9415  0.8009  1.3350
 1327TIP3    H225473   4.382   3.379  16.761  1.8021 -0.3544  0.8391
 1328TIP3   OH225474   5.360   3.279   4.746  0.2991 -0.1826  0.0289
 1328TIP3    H125475   5.289   3.242   4.693 -0.3612 -0.5277  1.1438
 1328TIP3    H225476   5.336   3.371   4.756  0.1567 -0.2325  0.1546
 1329TIP3   OH225477   4.182   3.148  15.081  0.4657  0.4454 -0.4056
 1329TIP3    H125478   4.252   3.121  15.141  0.4623 -0.0411 -0.6210
 1329TIP3    H225479   4.130   3.069  15.067 -0.2968  0.8686 -0.0298
 1330TIP3   OH225480   2.980   0.670  11.140  0.3945 -0.2481 -0.2493
 1330TIP3    H125481   3.066   0.693  11.104  1.0928  0.4665  1.8262
 1330TIP3    H225482   2.989   0.580  11.169  0.2672 -0.3445 -0.5029
 1331TIP3   OH225483   6.124   3.623   0.356 -0.1153 -0.2065 -0.4465
 1331TIP3    H125484   6.038   3.590   0.381  0.3405 -1.5224 -0.5485
 1331TIP3    H225485   6.106   3.696   0.296 -1.1791  1.5837  1.9951
 1332TIP3   OH225486   5.017   1.558  13.365 -0.2466 -0.0139 -0.1286
 1332TIP3    H125487   5.028   1.610  13.285  0.8874 -1.8577 -1.2299
 1332TIP3    H225488   5.073   1.601  13.429  1.0508 -0.1089 -1.1577
 1333TIP3   OH225489   0.358   6.584  11.336 -0.1899 -0.0234 -0.1873
 1333TIP3    H125490   0.351   6.539  11.253  0.1385 -0.0194 -0.2184
 1333TIP3    H225491   0.377   6.675  11.313  0.5266 -0.1475 -0.0979
 1334TIP3   OH225492   2.785   5.864   0.311 -0.6908  0.3064 -0.2492
 1334TIP3    H125493   2.874   5.881   0.340 -0.3932 -0.6525 -0.5692
 1334TIP3    H225494   2.764   5.778   0.347 -0.1609 -1.1135 -3.1631
 1335TIP3   OH225495   1.292   6.549  12.735  0.6122  0.6747 -0.8752
 1335TIP3    H125496   1.378   6.507  12.729  0.2306 -0.2634  0.1161
 1335TIP3    H225497   1.293   6.595  12.819  0.5306  1.5675 -1.3522
 1336TIP3   OH225498   0.051   2.027   1.429  0.0274 -0.1153 -0.3037
 1336TIP3    H125499   0.002   2.039   1.510  0.1818 -0.3164 -0.1818
 1336TIP3    H225500  -0.017   2.009   1.363 -0.1281  0.4533 -0.2990
 1337TIP3   OH225501   5.487   0.022   3.718 -0.5644 -0.0981 -0.0537
 1337TIP3    H125502   5.400   0.057   3.699  0.0180  0.2894 -2.1437
 1337TIP3    H225503   5.523  -0.000   3.632  0.4936 -2.4742  0.9553
 1338TIP3   OH225504   6.647   2.149   6.435  0.1699  0.7925  0.5483
 1338TIP3    H125505   6.555   2.141   6.461  0.2614 -0.8730  0.4414
 1338TIP3    H225506   6.673   2.059   6.414  1.7211  1.3077  0.2410
 1339TIP3   OH225507   2.850   4.991   4.191 -0.2696 -0.4150  0.1631
 1339TIP3    H125508   2.914   5.059   4.171 -0.8343  0.1582  0.3139
 1339TIP3    H225509   2.902   4.920   4.230  0.4922 -0.5698 -1.0908
 1340TIP3   OH225510   6.469   3.582   2.380  0.1113  0.3455 -0.2260
 1340TIP3    H125511   6.516   3.523   2.322  1.7272  0.5857  0.8064
 1340TIP3    H225512   6.437   3.651   2.322  1.1985  0.2801 -0.9320
 1341TIP3   OH225513   4.062   1.754  12.605  0.3959  0.0433  0.2292
 1341TIP3    H125514   4.145   1.708  12.613 -0.0932 -0.8377  0.2258
 1341TIP3    H225515   4.053   1.772  12.512 -0.2278 -1.3713  0.0053
 1342TIP3   OH225516   3.089   3.227   1.570  0.4708  0.0019  0.1689
 1342TIP3    H125517   3.107   3.316   1.542  1.2553  0.9618  3.5254
 1342TIP3    H225518   2.997   3.229   1.597  0.5201 -0.1774  0.3505
 1343TIP3   OH225519   5.561   6.798   5.131 -0.5150  0.2920 -0.0866
 1343TIP3    H125520   5.542   6.713   5.092 -1.1024  0.3161  0.1477
 1343TIP3    H225521   5.645   6.786   5.175 -0.5374 -0.1301 -0.1623
 1344TIP3   OH225522   3.815   3.782  14.175 -0.2665  0.6322  0.0337
 1344TIP3    H125523   3.771   3.863  14.201 -0.5214  1.0412 -1.6306
 1344TIP3    H225524   3.903   3.810  14.149 -0.2277  0.3146 -0.1768
 1345TIP3   OH225525   5.888   1.583  14.243  0.1633 -0.4976  0.0442
 1345TIP3    H125526   5.841   1.665  14.259  1.1422 -0.3309  2.2980
 1345TIP3    H225527   5.855   1.552  14.158 -1.7959  1.1092  0.1837
 1346TIP3   OH225528   5.532   1.026  13.210  0.6315  0.0656 -0.1275
 1346TIP3    H125529   5.534   1.118  13.182 -0.9000 -0.6850 -2.8999
 1346TIP3    H225530   5.494   1.029  13.298  1.7834  2.1733  0.3485
 1347TIP3   OH225531   4.707   2.656  12.259  0.0508  0.1834 -0.3270
 1347TIP3    H125532   4.790   2.667  12.213 -0.7615 -0.2198 -1.9376
 1347TIP3    H225533   4.648   2.617  12.194 -0.6525 -2.0561  1.5893
 1348TIP3   OH225534   0.055   4.387  13.689  0.0359 -0.1427  0.4284
 1348TIP3    H125535   0.021   4.476  13.683  2.2266  0.5678 -2.2936
 1348TIP3    H225536  -0.020   4.331  13.671 -1.5055  1.0592  2.7351
 1349TIP3   OH225537   5.332   5.147  14.225 -0.0315 -0.5102  0.7435
 1349TIP3    H125538   5.304   5.135  14.316  0.0162 -1.8961  0.5854
 1349TIP3    H225539   5.351   5.058  14.194 -1.9310 -0.2430 -1.2405
 1350TIP3   OH225540   5.917   0.359   3.981  0.1914 -0.2542  0.0551
 1350TIP3    H125541   5.923   0.418   4.056  0.4960  0.5422 -0.5894
 1350TIP3    H225542   5.997   0.306   3.985 -0.2978 -0.9351  0.8916
 1351TIP3   OH225543   1.760   2.981   4.994 -0.4208 -0.4529 -0.1019
 1351TIP3    H125544   1.726   3.000   5.082  0.4965 -1.3650  0.4753
 1351TIP3    H225545   1.852   3.008   4.998 -0.1673 -1.2307 -0.5198
 1352TIP3   OH225546   3.009   6.084  12.074  0.1601 -0.8602 -0.0038
 1352TIP3    H125547   2.915   6.098  12.069  0.0717 -0.6092  1.9777
 1352TIP3    H225548   3.032   6.103  12.165  2.4249  1.0239 -0.8857
 1353TIP3   OH225549   2.591   1.650  11.239  0.3597  0.0029  0.2237
 1353TIP3    H125550   2.568   1.713  11.307  1.4133  1.3454 -0.6219
 1353TIP3    H225551   2.516   1.592  11.233  0.2240 -0.0860  2.4662
 1354TIP3   OH225552   6.737   5.363  13.589  0.4687  0.5110  0.0874
 1354TIP3    H125553   6.777   5.407  13.514 -0.0761  0.7992 -0.0384
 1354TIP3    H225554   6.664   5.313  13.552  0.6984 -0.0057  0.3157
 1355TIP3   OH225555   0.100   1.005   1.719  0.2815  0.6207  0.4381
 1355TIP3    H125556   0.180   1.030   1.765  0.4579  0.5456  0.1738
 1355TIP3    H225557   0.031   1.055   1.762  0.7386  2.2480 -0.6407
 1356TIP3   OH225558   0.220   4.393   6.468  0.4144  0.5294  0.3611
 1356TIP3    H125559   0.298   4.345   6.442  1.3380  2.3232 -0.2694
 1356TIP3    H225560   0.167   4.399   6.389  1.0552  1.9305  0.0220
 1357TIP3   OH225561   2.938   6.111   4.089  0.0146 -0.6188 -0.0914
 1357TIP3    H125562   3.017   6.165   4.101  0.4372 -1.3913  0.7042
 1357TIP3    H225563   2.971   6.027   4.059 -0.5962 -0.6291 -0.7331
 1358TIP3   OH225564   4.291   1.838  13.219  0.1396 -0.6661  0.2248
 1358TIP3    H125565   4.329   1.791  13.293 -2.7387 -2.1095  0.8590
 1358TIP3    H225566   4.276   1.927  13.251 -1.4977 -1.3998  1.5613
 1359TIP3   OH225567   6.481   1.849   4.788  0.4633  0.4250 -0.7450
 1359TIP3    H125568   6.528   1.782   4.839  0.0087  2.1085  1.9805
 1359TIP3    H225569   6.550   1.906   4.755  0.6945 -0.0476 -1.0770
 1360TIP3   OH225570   4.643   3.249  11.148  0.3718 -0.1710  0.0560
 1360TIP3    H125571   4.736   3.228  11.139  0.4862  0.2484  0.2567
 1360TIP3    H225572   4.599   3.185  11.092  0.7679 -0.4829  0.0942
 1361TIP3   OH225573   2.142   2.021   0.871  0.2105  0.6263  0.3207
 1361TIP3    H125574   2.047   2.031   0.865  0.0342 -0.2144  1.5446
 1361TIP3    H225575   2.166   1.977   0.789 -0.5277  0.3460  0.2494
 1362TIP3   OH225576   6.575   1.940  14.894 -0.3028 -0.5535  0.4186
 1362TIP3    H125577   6.543   1.859  14.853  0.7179 -0.7909  0.0815
 1362TIP3    H225578   6.537   2.010  14.841  1.3661 -0.8618 -1.2472
 1363TIP3   OH225579   0.530   0.440  12.431 -0.0973  0.1591 -0.1878
 1363TIP3    H125580   0.518   0.373  12.364  2.2315 -1.1268  0.6278
 1363TIP3    H225581   0.521   0.523  12.384 -1.1242 -0.7141 -1.5570
 1364TIP3   OH225582   0.562   1.366   1.271 -0.0738  0.2500 -0.1558
 1364TIP3    H125583   0.514   1.394   1.193 -0.1698  0.1786 -0.1227
 1364TIP3    H225584   0.654   1.382   1.249 -0.0607 -0.2211 -0.4726
 1365TIP3   OH225585   1.974   2.538   4.129  0.4981 -0.0284  0.7222
 1365TIP3    H125586   1.879   2.538   4.115  0.4134  0.8075  1.2870
 1365TIP3    H225587   2.008   2.599   4.063  0.7350 -0.9456 -0.0222
 1366TIP3   OH225588   6.491   4.396   0.752 -0.0858  0.0611 -0.0353
 1366TIP3    H125589   6.522   4.335   0.685  1.1069  1.0531 -0.4096
 1366TIP3    H225590   6.407   4.360   0.781 -0.9114 -0.0588 -2.4882
 1367TIP3   OH225591   3.794   1.460  12.871 -0.1039 -0.0708 -0.3437
 1367TIP3    H125592   3.760   1.374  12.895  0.8121 -0.6222 -1.0349
 1367TIP3    H225593   3.776   1.514  12.948 -0.6456 -0.8877  0.1113
 1368TIP3   OH225594   6.135   0.666   3.775  0.4298  0.3687 -0.3739
 1368TIP3    H125595   6.181   0.590   3.808  0.6564  0.7008  0.0777
 1368TIP3    H225596   6.082   0.696   3.849 -1.1961 -0.5343 -1.1418
 1369TIP3   OH225597   5.674   4.889   5.477  0.3072 -0.5250 -0.5120
 1369TIP3    H125598   5.681   4.908   5.383 -0.4182 -1.5837 -0.7884
 1369TIP3    H225599   5.649   4.796   5.481 -4.1385  0.6218  0.6354
 1370TIP3   OH225600   3.412   6.194   2.360 -0.3439 -0.6545 -0.0423
 1370TIP3    H125601   3.441   6.258   2.294 -1.9789 -0.1745 -0.3176
 1370TIP3    H225602   3.491   6.172   2.408  0.1634  2.1302  0.5195
 1371TIP3   OH225603   1.306   2.974  15.802  0.6188  0.0604  0.1992
 1371TIP3    H125604   1.278   3.027  15.877  1.0939  1.5250 -0.6399
 1371TIP3    H225605   1.300   3.033  15.727 -1.0545 -1.7319 -1.1580
 1372TIP3   OH225606   6.041   3.683   4.506 -0.3044 -0.6036  0.4921
 1372TIP3    H125607   6.104   3.641   4.565  0.8608  1.8240  1.0405
 1372TIP3    H225608   6.080   3.767   4.486 -1.6134 -0.6126 -2.2522
 1373TIP3   OH225609   1.380   0.700  13.535 -0.2087  0.2042  0.0474
 1373TIP3    H125610   1.308   0.647  13.503 -0.1760  1.8252 -2.8943
 1373TIP3    H225611   1.339   0.780  13.567  0.0410 -0.0319  0.9549
 1374TIP3   OH225612   0.933   2.340  16.401 -0.3273 -0.1440  0.4658
 1374TIP3    H125613   0.929   2.299  16.315 -1.1744  1.5612 -0.3388
 1374TIP3    H225614   0.987   2.418  16.388 -0.8606  0.3849  1.3408
 1375TIP3   OH225615   0.686   4.811  15.842  0.0321  0.4508 -0.4671
 1375TIP3    H125616   0.715   4.857  15.762 -1.3673  0.3188 -1.0577
 1375TIP3    H225617   0.625   4.872  15.884  0.0220  0.1183  0.0041
 1376TIP3   OH225618   5.798   4.254  15.693  0.2285 -0.1119 -0.0523
 1376TIP3    H125619   5.887   4.286  15.674 -0.0110  1.4982  1.3484
 1376TIP3    H225620   5.809   4.197  15.769 -0.0951  1.1878  0.9920
 1377TIP3   OH225621   4.143   4.384  17.081 -0.0345 -0.4241 -0.0127
 1377TIP3    H125622   4.061   4.382  17.032  0.4918  0.8928 -0.9768
 1377TIP3    H225623   4.164   4.477  17.090  1.2314 -0.7349  0.4242
 1378TIP3   OH225624   6.078   1.473   0.400  0.1812  0.1986  0.2079
 1378TIP3    H125625   6.152   1.518   0.443  1.6613 -2.1483  0.1994
 1378TIP3    H225626   6.025   1.544   0.364  1.4831  2.0187  1.7566
 1379TIP3   OH225627   1.598   1.299   5.865 -0.1714 -0.2105 -0.4767
 1379TIP3    H125628   1.577   1.346   5.945 -2.1299 -1.9719  0.1024
 1379TIP3    H225629   1.693   1.291   5.866 -0.0635  0.9752  0.9714
 1380TIP3   OH225630   6.510   3.897   4.760  0.3424  0.4834  0.3395
 1380TIP3    H125631   6.529   3.927   4.671 -0.8053 -2.1752 -0.8607
 1380TIP3    H225632   6.436   3.951   4.788 -0.3133  0.2652 -0.9344
 1381TIP3   OH225633   4.882   0.791   0.718  0.0804 -0.3098 -0.2462
 1381TIP3    H125634   4.889   0.708   0.764 -0.4433  1.7482  3.8388
 1381TIP3    H225635   4.789   0.814   0.725  0.4508  1.2134 -0.1591
 1382TIP3   OH225636   2.210   6.731   4.571  0.4530 -1.1020 -0.4591
 1382TIP3    H125637   2.228   6.638   4.581  0.5820 -1.1593 -1.1992
 1382TIP3    H225638   2.257   6.773   4.644  0.9427 -1.5515 -0.5179
 1383TIP3   OH225639   2.477   3.676   4.942 -0.3541 -0.2941 -0.2057
 1383TIP3    H125640   2.498   3.585   4.921  1.0937 -0.1302  0.4637
 1383TIP3    H225641   2.392   3.691   4.901 -0.9183 -2.1371  0.2312
 1384TIP3   OH225642   2.697   3.883  13.121 -0.6113 -0.2791  0.1564
 1384TIP3    H125643   2.666   3.824  13.190 -4.1476 -2.2254 -2.8978
 1384TIP3    H225644   2.646   3.963  13.132 -2.9653 -1.4990 -1.6215
 1385TIP3   OH225645   3.482   6.220  12.565  0.4239 -0.2586 -0.4597
 1385TIP3    H125646   3.488   6.162  12.489  2.9099 -0.0419 -0.4854
 1385TIP3    H225647   3.484   6.161  12.640 -2.8571 -0.5249 -0.5342
 1386TIP3   OH225648   0.932   3.426  15.104  0.0932 -0.1548  0.0457
 1386TIP3    H125649   0.842   3.394  15.101  0.4297 -1.0055 -1.2282
 1386TIP3    H225650   0.930   3.508  15.054 -0.1946  0.4121  0.9717
 1387TIP3   OH225651   6.660   1.487   1.549  0.2552 -0.3885  0.1276
 1387TIP3    H125652   6.700   1.431   1.615 -1.6342 -0.9141  0.8719
 1387TIP3    H225653   6.657   1.432   1.470  2.4495  0.2200 -0.4176
 1388TIP3   OH225654   3.020   0.230  12.613  0.1708 -0.2044  0.1824
 1388TIP3    H125655   2.975   0.161  12.564 -0.9586  0.3374  0.4393
 1388TIP3    H225656   3.111   0.202  12.616 -0.1092 -1.2116 -0.5407
 1389TIP3   OH225657   1.619   4.079  13.831 -0.5971  0.1654 -0.1134
 1389TIP3    H125658   1.546   4.057  13.773 -2.0588 -0.5556  1.9420
 1389TIP3    H225659   1.638   4.171  13.812 -2.7324  0.6554  0.0363
 1390TIP3   OH225660   1.145   0.831  12.759  0.2007 -0.0469  0.0378
 1390TIP3    H125661   1.197   0.753  12.741 -0.0010  0.0582 -1.0517
 1390TIP3    H225662   1.209   0.902  12.762  0.4271 -0.3017  1.3971
 1391TIP3   OH225663   1.071   3.190   1.968  0.0149  0.1647  0.0223
 1391TIP3    H125664   1.035   3.126   1.906 -2.4843  1.4888  0.0265
 1391TIP3    H225665   1.142   3.232   1.921  0.4457 -1.2720 -0.6533
 1392TIP3   OH225666   3.137   2.677  15.324 -0.3718 -0.9765 -0.1695
 1392TIP3    H125667   3.103   2.766  15.324  0.5831 -0.6147 -0.0626
 1392TIP3    H225668   3.103   2.638  15.405  0.5835 -0.1814  0.6255
 1393TIP3   OH225669   5.360   1.269  11.141  0.0419 -0.7643 -0.3081
 1393TIP3    H125670   5.402   1.184  11.150 -0.7538 -1.0161  1.0513
 1393TIP3    H225671   5.294   1.256  11.074 -1.9690 -1.9663  1.8539
 1394TIP3   OH225672   3.517   0.160   1.234 -0.0072 -0.1636 -0.4923
 1394TIP3    H125673   3.592   0.161   1.175  1.3819 -0.7686  1.2049
 1394TIP3    H225674   3.458   0.095   1.198  0.8170 -0.5243 -1.2025
 1395TIP3   OH225675   1.711   5.770  17.184 -0.3222 -0.6963 -0.0679
 1395TIP3    H125676   1.673   5.831  17.248 -2.8213 -1.7949 -0.4585
 1395TIP3    H225677   1.702   5.684  17.224 -2.5091 -1.4805 -2.1123
 1396TIP3   OH225678   3.175   4.377  13.360  0.2227  0.1293 -0.0678
 1396TIP3    H125679   3.260   4.391  13.402  0.2077 -2.1247  0.8089
 1396TIP3    H225680   3.195   4.371  13.266  1.1161 -0.7623  0.1611
 1397TIP3   OH225681   0.328   6.307  16.267  0.4070  0.0822 -0.4719
 1397TIP3    H125682   0.257   6.271  16.214  1.8525 -0.5199 -2.0460
 1397TIP3    H225683   0.341   6.242  16.337  0.3009 -0.4674 -0.9600
 1398TIP3   OH225684   1.423   1.463   0.520  0.0416 -0.0533  0.5185
 1398TIP3    H125685   1.453   1.399   0.455 -3.0570 -1.8898  0.7640
 1398TIP3    H225686   1.424   1.546   0.473  1.2610 -0.7655 -0.7667
 1399TIP3   OH225687   6.090   0.880   0.882 -0.0204  0.2944  0.1296
 1399TIP3    H125688   6.145   0.803   0.865 -0.2160  0.3549 -0.7797
 1399TIP3    H225689   6.114   0.907   0.970  0.4708 -0.4660  0.2360
 1400TIP3   OH225690   6.111   1.735  12.672  0.2320 -0.0892 -0.4207
 1400TIP3    H125691   6.105   1.780  12.588  2.3178 -0.2279 -0.6563
 1400TIP3    H225692   6.108   1.642  12.649 -1.0336 -0.1214 -0.1743
 1401TIP3   OH225693   3.105   3.237  12.311  0.2374 -0.5779 -0.0946
 1401TIP3    H125694   3.162   3.227  12.387 -0.7438 -1.1631  0.5716
 1401TIP3    H225695   3.034   3.293  12.342  0.3914  0.0751 -0.8982
 1402TIP3   OH225696   5.817   6.355   3.398  0.1467  0.8011 -0.2484
 1402TIP3    H125697   5.789   6.444   3.416  0.2977  1.1376 -1.5916
 1402TIP3    H225698   5.736   6.303   3.400 -0.2285  1.3144 -1.4234
 1403TIP3   OH225699   5.271   2.217  15.635 -0.2828 -0.0576 -0.4561
 1403TIP3    H125700   5.324   2.183  15.564 -0.0335 -0.7845  0.0780
 1403TIP3    H225701   5.324   2.289  15.671 -1.1716  1.4735 -2.1065
 1404TIP3   OH225702   5.991   2.559  14.368  0.4148  0.5358  0.0562
 1404TIP3    H125703   6.048   2.537  14.441  0.5045  0.3686 -0.0655
 1404TIP3    H225704   6.044   2.617  14.313  1.3468 -1.5903 -1.3384
 1405TIP3   OH225705   2.162   3.407   2.881 -0.3126 -0.1125 -0.1707
 1405TIP3    H125706   2.128   3.496   2.888 -2.0191 -0.7481  0.0550
 1405TIP3    H225707   2.089   3.358   2.842  1.3163 -0.9980 -2.1687
 1406TIP3   OH225708   5.407   6.554  10.497  0.0224 -0.0836 -0.1049
 1406TIP3    H125709   5.417   6.484  10.561 -1.0610 -0.2298 -0.0856
 1406TIP3    H225710   5.496   6.575  10.470  0.2664 -2.6518 -1.4100
 1407TIP3   OH225711   2.359   4.803   1.600 -0.3705 -0.5697 -0.2748
 1407TIP3    H125712   2.308   4.722   1.602 -2.5993  0.7898  0.0957
 1407TIP3    H225713   2.305   4.864   1.549  0.9350  0.8735  0.0429
 1408TIP3   OH225714   5.250   1.570   1.860  0.6277  0.0939 -0.1317
 1408TIP3    H125715   5.257   1.541   1.951 -2.8914  1.0228  0.5115
 1408TIP3    H225716   5.233   1.490   1.811 -1.5835  0.0730  0.6226
 1409TIP3   OH225717   2.754   3.649   5.308 -0.3313 -0.1091 -0.4452
 1409TIP3    H125718   2.723   3.719   5.364  0.0768 -0.4640  0.2257
 1409TIP3    H225719   2.741   3.569   5.359 -0.3899 -0.4801 -1.0332
 1410TIP3   OH225720   6.260   2.550   1.395  0.2436  0.2884  0.6531
 1410TIP3    H125721   6.227   2.477   1.448 -0.6562  0.6272  0.5591
 1410TIP3    H225722   6.267   2.514   1.307 -1.4558  0.6777  0.3404
 1411TIP3   OH225723   6.187   4.572  17.089 -0.5748  0.3777  0.2005
 1411TIP3    H125724   6.158   4.482  17.106  1.1488 -0.1402  0.5520
 1411TIP3    H225725   6.118   4.627  17.125 -1.8780 -0.8166 -0.4553
 1412TIP3   OH225726   6.571   6.813  12.194  0.0795 -0.1573  0.2101
 1412TIP3    H125727   6.664   6.813  12.169  0.5681  2.4374  1.7848
 1412TIP3    H225728   6.524   6.798  12.112  1.8544  0.1210 -0.8897
 1413TIP3   OH225729   5.526   2.482   3.967 -0.1503 -0.4125  0.6029
 1413TIP3    H125730   5.555   2.448   3.883 -0.1063 -2.4652  1.4167
 1413TIP3    H225731   5.434   2.504   3.953  0.7462  2.5505 -0.9259
 1414TIP3   OH225732   1.023   5.143   3.629 -0.1962 -0.3168  0.0514
 1414TIP3    H125733   0.934   5.109   3.626  0.7835 -2.7451 -3.7017
 1414TIP3    H225734   1.075   5.072   3.668  0.6578 -0.3317 -1.0772
 1415TIP3   OH225735   2.273   6.579  16.109  0.1442 -0.1494  0.3958
 1415TIP3    H125736   2.357   6.616  16.082  0.9978 -0.4953  2.4796
 1415TIP3    H225737   2.216   6.655  16.123  0.5835  0.1628  0.4980
 1416TIP3   OH225738   3.002   2.966   4.903 -0.2583 -0.0617 -0.0932
 1416TIP3    H125739   3.097   2.970   4.914  0.0841 -1.8609 -2.0308
 1416TIP3    H225740   2.967   2.971   4.992  1.6314  0.8522  0.6198
 1417TIP3   OH225741   5.073   5.606   2.300  0.5839 -0.1741  0.7222
 1417TIP3    H125742   5.119   5.522   2.307  1.2907  0.1627  0.1375
 1417TIP3    H225743   5.126   5.667   2.351 -0.8562 -0.4539  2.5914
 1418TIP3   OH225744   4.974   4.775   3.379  0.5406 -0.3543  0.3256
 1418TIP3    H125745   5.047   4.824   3.415 -1.2258  2.0222  0.7988
 1418TIP3    H225746   5.009   4.687   3.365  3.1199  0.3980  1.6751
 1419TIP3   OH225747   3.166   5.984   2.111  0.1461 -0.0805 -0.5351
 1419TIP3    H125748   3.249   5.940   2.129  0.1027  0.5679  1.4450
 1419TIP3    H225749   3.108   5.957   2.183 -1.3937 -0.5507 -1.9001
 1420TIP3   OH225750   0.125   4.260   4.270 -0.0390 -0.1180  0.4342
 1420TIP3    H125751   0.122   4.338   4.214  0.2164  0.6679  1.5043
 1420TIP3    H225752   0.156   4.190   4.212 -0.9443  0.4219 -0.7049
 1421TIP3   OH225753   2.079   3.654  13.707 -0.3539  0.0137 -0.0526
 1421TIP3    H125754   2.055   3.719  13.641 -1.3635  1.1160  1.3745
 1421TIP3    H225755   2.159   3.688  13.746 -1.1228  0.6498  0.9986
 1422TIP3   OH225756   3.215   1.837   2.285 -0.4136  0.2859 -0.1275
 1422TIP3    H125757   3.274   1.855   2.212  1.0844  0.3698  1.0777
 1422TIP3    H225758   3.197   1.922   2.324  0.2581  0.0566  0.7034
 1423TIP3   OH225759   4.658   2.781  16.989 -0.4872 -0.2778 -0.2903
 1423TIP3    H125760   4.621   2.755  17.074  0.5947  0.8200  0.5502
 1423TIP3    H225761   4.708   2.861  17.009  0.3412 -0.3947 -1.8320
 1424TIP3   OH225762   5.422   5.005  11.207  0.0194  0.3286 -0.0008
 1424TIP3    H125763   5.512   5.004  11.172  0.1454  2.1732  0.2160
 1424TIP3    H225764   5.398   5.098  11.206 -1.2013  0.0291  1.6902
 1425TIP3   OH225765   1.570   6.155  15.940  0.5557  0.6322  0.1889
 1425TIP3    H125766   1.577   6.235  15.992  1.2109  0.0094  1.0697
 1425TIP3    H225767   1.514   6.098  15.992  1.8413 -0.2827  0.5870
 1426TIP3   OH225768   0.747   6.082   1.078  0.5190  0.1031  0.0687
 1426TIP3    H125769   0.796   5.999   1.073  1.2499  0.5364  0.0163
 1426TIP3    H225770   0.753   6.118   0.989  0.5208  0.4008  0.1916
 1427TIP3   OH225771   1.961   0.639  13.201  0.3665 -0.4714 -0.6342
 1427TIP3    H125772   1.950   0.585  13.279  1.3097 -0.3916 -0.4365
 1427TIP3    H225773   1.949   0.729  13.232  3.3777 -0.2263 -0.0126
 1428TIP3   OH225774   3.297   4.660  12.813 -0.4248 -0.3102 -0.0785
 1428TIP3    H125775   3.323   4.740  12.768 -1.6068  0.0513 -0.1330
 1428TIP3    H225776   3.254   4.607  12.746  0.5750 -1.1025 -0.1034
 1429TIP3   OH225777   2.728   3.511  16.715  0.6022  0.1530 -0.2557
 1429TIP3    H125778   2.820   3.515  16.688  0.2463  0.2905 -1.4637
 1429TIP3    H225779   2.726   3.554  16.800  1.6439  0.2364 -0.2690
 1430TIP3   OH225780   0.850   4.327  16.104 -0.0461  0.7528  0.2540
 1430TIP3    H125781   0.789   4.324  16.178 -0.5170  0.9622 -0.1248
 1430TIP3    H225782   0.923   4.380  16.136  0.1825  0.0706  0.8868
 1431TIP3   OH225783   3.792   2.909  13.522 -0.5562  0.3594  0.5490
 1431TIP3    H125784   3.777   2.859  13.441 -1.3098 -0.0338  0.9245
 1431TIP3    H225785   3.716   2.888  13.577 -0.6353  1.5572  0.8929
 1432TIP3   OH225786   6.692   2.484  15.907  0.4510 -0.4893 -0.4797
 1432TIP3    H125787   6.768   2.505  15.960  1.5402  0.9076 -2.5209
 1432TIP3    H225788   6.631   2.556  15.922  0.4096 -0.5318 -0.4467
 1433TIP3   OH225789   1.889   1.685   2.793  0.0025  0.3803  0.3375
 1433TIP3    H125790   1.913   1.678   2.886  1.7169 -2.0589 -0.2509
 1433TIP3    H225791   1.794   1.691   2.794  0.1623  4.6844  2.4447
 1434TIP3   OH225792   5.287   6.392  16.376 -0.2343 -0.5150 -0.3066
 1434TIP3    H125793   5.382   6.385  16.385 -0.3315 -0.0746  1.2710
 1434TIP3    H225794   5.272   6.387  16.282  1.2004 -2.2369 -0.4858
 1435TIP3   OH225795   4.104   0.883  10.970 -0.1941  0.5022 -0.4802
 1435TIP3    H125796   4.024   0.875  11.021  0.3870  0.4210  0.4306
 1435TIP3    H225797   4.140   0.969  10.994  0.2672  0.3145 -0.4836
 1436TIP3   OH225798   2.449   3.499  17.155  0.6982 -0.2088  0.2745
 1436TIP3    H125799   2.397   3.431  17.197 -0.7721  1.4799  1.2072
 1436TIP3    H225800   2.520   3.517  17.217  2.2945 -2.2885 -0.8657
 1437TIP3   OH225801   4.508   0.566  14.966  0.0401 -0.1770  0.3827
 1437TIP3    H125802   4.547   0.528  14.888 -1.0800  0.3845 -0.4630
 1437TIP3    H225803   4.482   0.654  14.940 -0.6688 -0.1104  1.2745
 1438TIP3   OH225804   3.389   0.095  13.182  0.4126 -0.1931  0.1071
 1438TIP3    H125805   3.305   0.049  13.186 -0.1809  0.8570 -0.0450
 1438TIP3    H225806   3.430   0.080  13.267 -0.2718 -0.0670  0.4583
 1439TIP3   OH225807   0.548   4.939   5.033  0.5675 -0.6973 -0.6113
 1439TIP3    H125808   0.541   4.851   5.070  2.1857  0.1831  1.9405
 1439TIP3    H225809   0.637   4.967   5.055 -0.3333  2.0364 -0.2991
 1440TIP3   OH225810   1.989   2.933   6.562  0.3264  0.4149 -0.1354
 1440TIP3    H125811   2.080   2.963   6.565  0.7388 -0.8413  0.4358
 1440TIP3    H225812   1.952   2.974   6.484  1.9613 -0.6132 -1.4886
 1441TIP3   OH225813   6.027   1.594   1.983  0.1491  0.5897  0.1681
 1441TIP3    H125814   5.996   1.556   2.066 -1.1136  0.0735 -0.5337
 1441TIP3    H225815   6.116   1.561   1.974 -0.0488 -0.1574  0.8336
 1442TIP3   OH225816   1.238   0.541   3.940  0.2107  0.3559 -0.5307
 1442TIP3    H125817   1.176   0.528   4.012  1.8333 -1.2661  0.6028
 1442TIP3    H225818   1.280   0.624   3.959  1.0964 -0.3697  0.7737
 1443TIP3   OH225819   3.015   1.371  11.380 -0.8978 -0.1315  0.2518
 1443TIP3    H125820   2.933   1.409  11.347  1.0774  1.6971 -2.7993
 1443TIP3    H225821   2.998   1.277  11.384 -2.6708  0.0636 -1.7727
 1444TIP3   OH225822   5.069   1.169  16.030 -0.1432 -0.2365  0.0952
 1444TIP3    H125823   4.980   1.144  16.006  0.5177 -2.6800  0.0677
 1444TIP3    H225824   5.096   1.103  16.095  2.2132 -0.5373 -1.1373
 1445TIP3   OH225825   0.999   4.050  12.063 -0.1862 -0.1829  0.8398
 1445TIP3    H125826   0.910   4.022  12.086  0.1119 -2.3591 -0.5450
 1445TIP3    H225827   0.995   4.146  12.066 -3.6685 -0.0725 -2.8770
 1446TIP3   OH225828   2.339   6.032   3.132 -0.1572 -0.0858 -0.1551
 1446TIP3    H125829   2.264   6.013   3.075 -0.7312  1.1655  0.1434
 1446TIP3    H225830   2.300   6.081   3.205  0.7880 -0.4302  0.5771
 1447TIP3   OH225831   4.620   6.064  14.012  0.3947  0.2969  0.3199
 1447TIP3    H125832   4.627   6.062  13.916  1.2350 -1.2001  0.3937
 1447TIP3    H225833   4.533   6.099  14.030  0.2470  0.6132 -0.9878
 1448TIP3   OH225834   2.165   0.911  12.416 -0.0059 -0.3353  0.1202
 1448TIP3    H125835   2.206   0.879  12.496 -2.2168 -0.8603  1.0809
 1448TIP3    H225836   2.142   1.002  12.437 -1.0094 -0.6196  0.2480
 1449TIP3   OH225837   1.921   6.488   2.992 -0.0535  0.4716 -0.2625
 1449TIP3    H125838   1.837   6.482   3.038  0.2830  0.3838  0.3402
 1449TIP3    H225839   1.965   6.564   3.030 -0.6705  1.7128 -1.9344
 1450TIP3   OH225840   6.752   6.319   5.549  0.0813 -0.0667 -0.2534
 1450TIP3    H125841   6.827   6.298   5.493  0.8782  0.2454  0.6888
 1450TIP3    H225842   6.686   6.253   5.526  0.9300 -0.8342 -0.5070
 1451TIP3   OH225843   3.063   1.598   5.184 -0.4989 -0.3211  0.0185
 1451TIP3    H125844   3.158   1.598   5.174 -0.6472 -0.4925 -1.5379
 1451TIP3    H225845   3.029   1.620   5.097 -1.9257 -2.5395 -0.0398
 1452TIP3   OH225846   4.100   0.979  14.669  0.0910  0.2377  0.2673
 1452TIP3    H125847   4.180   1.007  14.624 -0.1053  0.1956 -0.1168
 1452TIP3    H225848   4.081   1.050  14.731 -0.8112  1.3108 -1.2068
 1453TIP3   OH225849   6.133   0.494  16.700  0.3909 -0.0219  0.3189
 1453TIP3    H125850   6.146   0.409  16.743  0.0118  0.2243  0.9153
 1453TIP3    H225851   6.142   0.558  16.770  0.7417  0.4391 -0.1467
 1454TIP3   OH225852   4.656   3.314  11.773 -0.3213  0.0578 -0.5598
 1454TIP3    H125853   4.563   3.308  11.750 -0.2274  0.7875 -1.1568
 1454TIP3    H225854   4.667   3.405  11.801 -0.4193 -0.7768  2.3430
 1455TIP3   OH225855   3.749   2.661   6.277 -0.4815  0.0327  0.0081
 1455TIP3    H125856   3.820   2.626   6.330  0.2538 -0.3113 -1.1685
 1455TIP3    H225857   3.701   2.584   6.246 -0.2711  0.1767 -0.6804
 1456TIP3   OH225858   5.344   3.935  15.658 -0.1665 -0.3950  0.3385
 1456TIP3    H125859   5.279   3.930  15.588  2.4124 -2.9468 -2.0138
 1456TIP3    H225860   5.399   4.010  15.634  0.4181 -0.9646 -0.1141
 1457TIP3   OH225861   4.389   3.468  16.390  0.1111 -0.5767  0.0483
 1457TIP3    H125862   4.324   3.538  16.393  0.1047 -0.5733 -0.1584
 1457TIP3    H225863   4.465   3.508  16.348  1.2204  0.2085  2.6647
 1458TIP3   OH225864   5.720   3.729   5.922  0.2440 -0.0149  0.4352
 1458TIP3    H125865   5.785   3.708   5.856 -0.0505  1.6301 -0.4133
 1458TIP3    H225866   5.711   3.649   5.974 -0.6580 -1.8536 -2.4581
 1459TIP3   OH225867   4.028   2.566   1.526  0.2112 -0.3786 -0.1164
 1459TIP3    H125868   4.021   2.503   1.597 -2.4758  1.1047  0.9925
 1459TIP3    H225869   4.100   2.624   1.552  0.5886 -1.0747  0.3942
 1460TIP3   OH225870   1.756   0.784  12.169 -0.3025 -0.1298 -0.2808
 1460TIP3    H125871   1.834   0.838  12.159 -0.8332  0.9684  1.3475
 1460TIP3    H225872   1.684   0.846  12.175 -1.4435 -1.1468 -2.6952
 1461TIP3   OH225873   2.702   3.289   3.315  0.6488  0.2686  0.7267
 1461TIP3    H125874   2.659   3.356   3.367  1.0504  0.6760  0.5367
 1461TIP3    H225875   2.713   3.215   3.375  1.7254  0.9730  1.4314
 1462TIP3   OH225876   2.741   2.408  16.606 -0.6469  0.2840 -0.3210
 1462TIP3    H125877   2.697   2.352  16.542  0.6409  1.7373 -2.5756
 1462TIP3    H225878   2.827   2.367  16.618 -1.2434 -0.5226  1.2473
 1463TIP3   OH225879   1.531   0.590  11.978  0.4462  0.7165 -0.5665
 1463TIP3    H125880   1.459   0.564  12.035  1.1093 -0.6253 -0.3088
 1463TIP3    H225881   1.585   0.649  12.031  1.8793 -1.6945  0.7654
 1464TIP3   OH225882   5.378   2.675  15.225 -0.2067  0.5196 -0.2472
 1464TIP3    H125883   5.442   2.726  15.176  0.8724  0.0392  0.6519
 1464TIP3    H225884   5.429   2.612  15.275 -1.4661 -0.7545 -0.5247
 1465TIP3   OH225885   0.863   0.998   5.182 -0.6791  0.2347 -0.1226
 1465TIP3    H125886   0.864   1.046   5.099  1.4696  1.6251  0.6738
 1465TIP3    H225887   0.938   0.939   5.177 -0.5758  0.2728  0.7939
 1466TIP3   OH225888   5.174   1.024  15.797  0.2345 -1.0265 -0.1277
 1466TIP3    H125889   5.134   1.088  15.856 -0.3217 -0.1499 -1.4118
 1466TIP3    H225890   5.218   0.962  15.854 -0.9602 -0.6539  1.2317
 1467TIP3   OH225891   4.651   6.462  10.650  0.1202  0.1482 -0.1292
 1467TIP3    H125892   4.625   6.444  10.559  0.0056  0.0132 -0.0690
 1467TIP3    H225893   4.593   6.533  10.678 -0.7498 -0.7100  0.2834
 1468TIP3   OH225894   0.167   4.501   4.659  0.4482  0.2622 -0.4760
 1468TIP3    H125895   0.212   4.498   4.743  1.6561  1.6514 -1.0524
 1468TIP3    H225896   0.189   4.418   4.617  0.4186 -0.1313  0.2845
 1469TIP3   OH225897   4.176   4.256  12.566 -0.3249 -0.0974  0.1283
 1469TIP3    H125898   4.220   4.282  12.647  1.1410  0.4120 -0.8176
 1469TIP3    H225899   4.217   4.173  12.542 -0.4187  0.0036 -0.3708
 1470TIP3   OH225900   2.782   1.081  14.187 -0.2297 -0.1205 -0.0907
 1470TIP3    H125901   2.813   1.072  14.277 -1.7651  1.7575  0.6499
 1470TIP3    H225902   2.788   1.175  14.168 -2.0358 -0.1905 -1.1532
 1471TIP3   OH225903   6.526   0.006  16.547 -0.4930 -0.0754 -0.2774
 1471TIP3    H125904   6.434   0.034  16.544 -0.9641 -1.5931 -0.4123
 1471TIP3    H225905   6.522  -0.089  16.545  1.0320 -0.2021  1.2404
 1472TIP3   OH225906   3.672   3.409   6.325  0.1831  0.1219  0.2016
 1472TIP3    H125907   3.625   3.492   6.330  0.8935  0.5085  0.5814
 1472TIP3    H225908   3.736   3.414   6.396  1.1734 -0.1516 -0.6623
 1473TIP3   OH225909   6.610   2.316  15.064  0.2582 -0.0400 -0.0666
 1473TIP3    H125910   6.694   2.297  15.107  1.1012  1.3864 -1.0614
 1473TIP3    H225911   6.617   2.407  15.035 -1.3582 -0.1284 -0.8050
 1474TIP3   OH225912   4.778   0.017   6.109  0.1836 -0.7458 -0.8978
 1474TIP3    H125913   4.748   0.061   6.188 -0.7381  1.1279 -2.2685
 1474TIP3    H225914   4.870  -0.002   6.126 -0.0487 -0.4951  0.6857
 1475TIP3   OH225915   3.965   2.641   5.189 -0.2286  0.0844  0.0717
 1475TIP3    H125916   3.998   2.640   5.099  2.0017  0.2178  0.8803
 1475TIP3    H225917   3.956   2.549   5.213  0.3078  0.0477  0.1265
 1476TIP3   OH225918   1.595   1.324  10.972  0.0871  0.3757 -0.0563
 1476TIP3    H125919   1.641   1.408  10.973 -1.2263  1.0975  0.4164
 1476TIP3    H225920   1.651   1.267  10.920  1.0643  1.5091 -0.2625
 1477TIP3   OH225921   2.078   3.700  11.168  0.6508 -0.1098 -0.3313
 1477TIP3    H125922   2.155   3.756  11.157  1.6101 -1.6446 -1.6726
 1477TIP3    H225923   2.094   3.626  11.110 -0.5844 -1.7974  1.4348
 1478TIP3   OH225924   2.550   4.796  11.910 -0.0693 -0.2326  0.1329
 1478TIP3    H125925   2.630   4.743  11.909  0.1579  0.0166  2.1236
 1478TIP3    H225926   2.486   4.745  11.861  0.4695 -1.8101  1.0633
 1479TIP3   OH225927   0.736   1.445  11.392 -0.0699  0.0637  0.2212
 1479TIP3    H125928   0.642   1.452  11.376  0.0406  0.5957 -0.2483
 1479TIP3    H225929   0.774   1.436  11.304  0.3508  0.3337  0.3741
 1480TIP3   OH225930   0.565   1.816  12.642  0.3786  0.4274  0.4308
 1480TIP3    H125931   0.507   1.741  12.643  0.3157  0.4159 -1.7217
 1480TIP3    H225932   0.507   1.892  12.639  0.4325  0.4166 -1.7074
 1481TIP3   OH225933   2.684   3.952  11.376  0.2778  0.2023 -0.4688
 1481TIP3    H125934   2.714   3.862  11.385  1.0768  0.6525  1.6249
 1481TIP3    H225935   2.631   3.952  11.296  1.6225 -1.7360 -1.3912
 1482TIP3   OH225936   6.536   1.298   4.498 -0.0096 -0.2378 -0.3944
 1482TIP3    H125937   6.528   1.252   4.414 -2.3281 -2.9570  1.1887
 1482TIP3    H225938   6.629   1.294   4.519  0.4698 -0.2914 -2.4353
 1483TIP3   OH225939   5.182   1.310   2.409 -0.5066 -0.2361  0.1530
 1483TIP3    H125940   5.189   1.405   2.416 -1.5084 -0.1278 -0.2763
 1483TIP3    H225941   5.210   1.290   2.320  0.0936 -0.3908  0.3701
 1484TIP3   OH225942   3.379   4.200  16.169  0.0503  0.0111  0.4162
 1484TIP3    H125943   3.410   4.169  16.084 -1.6603  2.9686 -1.4042
 1484TIP3    H225944   3.306   4.142  16.190  0.2352 -0.5095 -0.3489
 1485TIP3   OH225945   2.983   0.466   1.027 -0.2511  0.2012  0.0808
 1485TIP3    H125946   2.983   0.385   1.078  2.0213 -0.6722 -1.2518
 1485TIP3    H225947   2.907   0.515   1.060 -0.5735 -1.6424  2.1872
 1486TIP3   OH225948   5.496   1.450  15.914 -0.0068  0.3321  0.3063
 1486TIP3    H125949   5.466   1.453  15.823  0.0147  3.5132  0.3446
 1486TIP3    H225950   5.416   1.446  15.965 -0.0169 -1.5602  0.1526
 1487TIP3   OH225951   5.182   2.672  13.185 -0.1619  0.0862  0.5301
 1487TIP3    H125952   5.094   2.686  13.151  0.1994  0.0671 -0.4181
 1487TIP3    H225953   5.236   2.658  13.108  0.7221  0.3633  1.0904
 1488TIP3   OH225954   5.849   1.087   0.495 -0.1807  0.0168 -0.4897
 1488TIP3    H125955   5.802   1.023   0.443  0.1565  1.3654 -2.5054
 1488TIP3    H225956   5.902   1.136   0.432  2.1555  0.0640  1.4220
 1489TIP3   OH225957   1.336   1.164  14.425 -0.3298  0.7090  0.3747
 1489TIP3    H125958   1.349   1.245  14.376  0.2096  0.3458 -0.0933
 1489TIP3    H225959   1.312   1.099  14.359 -0.9322  0.5264  0.7671
 1490TIP3   OH225960   6.713   6.093   2.036 -0.5094 -0.2443  0.1198
 1490TIP3    H125961   6.621   6.118   2.031 -0.4669  0.6902  2.8679
 1490TIP3    H225962   6.726   6.071   2.128  2.3338  0.9668  0.0525
 1491TIP3   OH225963   1.839   4.693  13.832  0.1587 -0.4264  0.1419
 1491TIP3    H125964   1.906   4.625  13.827  0.1026 -0.3698 -2.1361
 1491TIP3    H225965   1.800   4.682  13.918  1.6502 -1.8455  0.6702
 1492TIP3   OH225966   5.202   3.553   2.745 -0.3138  0.1165  0.4990
 1492TIP3    H125967   5.187   3.476   2.798  3.6662 -0.8146  0.4306
 1492TIP3    H225968   5.239   3.617   2.805 -1.5219  1.2435  0.0842
 1493TIP3   OH225969   2.720   4.448  13.420 -0.2182 -0.2396  0.0939
 1493TIP3    H125970   2.677   4.366  13.442 -1.5998  0.0788 -1.3691
 1493TIP3    H225971   2.809   4.439  13.456 -0.2238 -2.5200 -0.4027
 1494TIP3   OH225972   6.371   4.179  17.158  0.0095 -0.2244  0.0878
 1494TIP3    H125973   6.449   4.234  17.164  0.2256 -0.4618 -0.5520
 1494TIP3    H225974   6.387   4.109  17.221  0.0765  0.0207  0.3433
 1495TIP3   OH225975   0.202   3.931   2.050  0.5628 -0.3652  0.0866
 1495TIP3    H125976   0.143   3.942   1.976  0.2772  0.2522  0.4075
 1495TIP3    H225977   0.288   3.955   2.015  0.4768 -0.3526 -0.1198
 1496TIP3   OH225978   4.788   3.246  15.286 -0.6344  0.3379  0.5161
 1496TIP3    H125979   4.773   3.312  15.354 -0.8146 -0.4005  1.1943
 1496TIP3    H225980   4.710   3.251  15.231 -0.1263  1.5037 -0.1152
 1497TIP3   OH225981   1.127   1.311  11.762 -0.7905 -0.7848  0.0025
 1497TIP3    H125982   1.057   1.283  11.821 -1.3155 -0.0596 -0.2587
 1497TIP3    H225983   1.129   1.406  11.772 -0.3417 -0.7365 -0.5479
 1498TIP3   OH225984   5.743   1.380   0.251  0.0317  0.0808  0.3855
 1498TIP3    H125985   5.691   1.313   0.206 -0.5630  0.7679  0.0262
 1498TIP3    H225986   5.807   1.408   0.186 -1.1557  1.4368 -0.2293
 1499TIP3   OH225987   3.045   5.612   6.322 -0.2634  0.0176 -0.0306
 1499TIP3    H125988   3.046   5.703   6.292 -1.8999 -0.5083 -1.7561
 1499TIP3    H225989   2.953   5.593   6.339  0.1885 -1.0166  1.3121
 1500TIP3   OH225990   5.333   4.638   0.996  0.6438 -0.3452  0.2655
 1500TIP3    H125991   5.308   4.720   0.954  0.5389 -1.1174 -1.2045
 1500TIP3    H225992   5.252   4.604   1.034  0.5307 -0.1716  0.1770
 1501TIP3   OH225993   4.511   4.741   6.242  0.1556 -0.3881  0.2096
 1501TIP3    H125994   4.416   4.758   6.243  0.1660 -0.3103  2.0656
 1501TIP3    H225995   4.526   4.697   6.159 -1.3335  0.6011 -0.6316
 1502TIP3   OH225996   3.808   2.553   3.849 -0.2900 -0.3921 -0.5849
 1502TIP3    H125997   3.800   2.462   3.821 -0.0602 -0.5722 -0.0767
 1502TIP3    H225998   3.735   2.566   3.909 -1.7235  0.4583 -2.4617
 1503TIP3   OH225999   2.336   1.859  15.829  0.1900 -0.3344  0.1054
 1503TIP3    H126000   2.322   1.766  15.849 -1.9088  0.5728  3.1205
 1503TIP3    H226001   2.273   1.878  15.759  0.0037 -0.9524  0.0957
 1504TIP3   OH226002   3.349   5.144  12.450 -0.0065 -0.4463 -0.3001
 1504TIP3    H126003   3.374   5.115  12.362  0.0767  0.9240 -0.7428
 1504TIP3    H226004   3.367   5.238  12.450  0.3226 -0.5020  1.3102
 1505TIP3   OH226005   2.223   3.009   4.169  0.8020  0.1706 -0.0263
 1505TIP3    H126006   2.131   3.008   4.194  0.5494  3.6589 -0.6111
 1505TIP3    H226007   2.222   3.013   4.074  1.5991 -0.7657 -0.0822
 1506TIP3   OH226008   5.719   4.058  14.498  0.0028  0.1283  0.2802
 1506TIP3    H126009   5.788   4.105  14.544 -0.4977  0.0692  1.1053
 1506TIP3    H226010   5.747   4.057  14.406  0.9606  0.3250  0.5688
 1507TIP3   OH226011   4.061   1.458  16.865 -0.1972  0.0309 -0.1982
 1507TIP3    H126012   4.085   1.366  16.860  1.9728  0.6159 -0.9225
 1507TIP3    H226013   3.977   1.464  16.820  0.3848 -1.3352 -1.4865
 1508TIP3   OH226014   0.522   2.454   1.379 -0.0847 -0.2102 -0.1865
 1508TIP3    H126015   0.556   2.380   1.329 -0.1750 -0.7957  0.5982
 1508TIP3    H226016   0.461   2.414   1.441 -0.9624  0.6469 -0.4930
 1509TIP3   OH226017   3.912   1.245  15.277 -0.9449 -0.1063 -0.5639
 1509TIP3    H126018   3.877   1.158  15.292 -0.3072 -0.3332 -0.4023
 1509TIP3    H226019   3.989   1.232  15.222 -0.5797  0.3114 -0.1601
 1510TIP3   OH226020   6.486   2.214   2.092  0.0164  0.5924 -0.1710
 1510TIP3    H126021   6.574   2.188   2.065  0.0869  0.2506  0.3862
 1510TIP3    H226022   6.457   2.274   2.024  0.3409  0.0204 -0.8224
 1511TIP3   OH226023   0.204   2.897   0.358  0.1281  0.5599 -0.0275
 1511TIP3    H126024   0.265   2.945   0.302 -0.1777  1.5604  0.4929
 1511TIP3    H226025   0.118   2.933   0.337 -0.1576 -0.0565  0.0609
 1512TIP3   OH226026   6.570   6.115  17.166  0.4680  0.5074  0.1946
 1512TIP3    H126027   6.560   6.100  17.260  2.2912 -1.0505  0.1711
 1512TIP3    H226028   6.568   6.210  17.157 -0.6176  0.6520  1.7009
 1513TIP3   OH226029   0.425   4.732  14.607  0.1528  0.0817 -0.0903
 1513TIP3    H126030   0.465   4.771  14.529 -0.8613  3.4806  0.9818
 1513TIP3    H226031   0.492   4.674  14.642  1.0861 -0.5522 -2.7738
 1514TIP3   OH226032   3.648   0.301  16.862  0.3256  0.2530  0.1768
 1514TIP3    H126033   3.727   0.247  16.874  0.1314 -0.0127  0.2501
 1514TIP3    H226034   3.635   0.303  16.767  1.0761  1.2355  0.0840
 1515TIP3   OH226035   4.645   1.953  17.216  0.2820  0.5147  0.3096
 1515TIP3    H126036   4.740   1.964  17.221  0.0955  2.0030  1.1401
 1515TIP3    H226037   4.616   1.956  17.307 -0.5662  0.1688  0.0586
 1516TIP3   OH226038   1.972   2.558  16.671 -0.1366  0.5273  0.0107
 1516TIP3    H126039   1.891   2.600  16.641 -1.4513 -0.9771  1.3105
 1516TIP3    H226040   1.947   2.467  16.688  1.9994 -0.1229 -0.1833
 1517TIP3   OH226041   2.828   5.801  16.682 -0.5146  0.2218 -0.1904
 1517TIP3    H126042   2.744   5.792  16.728 -0.8602 -0.2671 -0.8972
 1517TIP3    H226043   2.893   5.771  16.745 -0.9668 -0.2539  0.0615
 1518TIP3   OH226044   0.898   3.627  11.554  0.7015 -0.3711  0.2396
 1518TIP3    H126045   0.961   3.698  11.546 -2.7142  2.6805 -1.1408
 1518TIP3    H226046   0.870   3.610  11.464 -2.7914  0.6615  1.0562
 1519TIP3   OH226047   3.427   0.159  17.277  0.4206 -1.3774 -0.0416
 1519TIP3    H126048   3.417   0.197  17.190  1.0686 -0.6215  0.2091
 1519TIP3    H226049   3.337   0.152  17.310  0.3111  0.4110  0.0943
 1520TIP3   OH226050   3.222   0.146  16.811 -0.3186 -0.4949  0.1514
 1520TIP3    H126051   3.163   0.188  16.748 -0.2467 -1.0863 -0.3126
 1520TIP3    H226052   3.209   0.052  16.798  0.2315 -0.6261  0.5130
 1521TIP3   OH226053   1.629   0.500  12.694  0.4883  0.1223  0.0235
 1521TIP3    H126054   1.669   0.586  12.682  3.6637 -1.5767 -2.3702
 1521TIP3    H226055   1.654   0.450  12.616 -1.9484 -2.7408  0.9647
 1522TIP3   OH226056   3.659   3.716  10.509 -0.3466 -0.7164  0.1231
 1522TIP3    H126057   3.580   3.674  10.542 -0.2837  0.7203  2.1606
 1522TIP3    H226058   3.712   3.732  10.587  1.0328  0.2594 -0.9907
 1523TIP3   OH226059   5.428   6.522  13.687 -0.3877  0.7362 -0.7287
 1523TIP3    H126060   5.452   6.609  13.719 -0.2276  0.4574 -0.0770
 1523TIP3    H226061   5.340   6.534  13.649 -0.3842  1.1702 -0.6038
 1524TIP3   OH226062   3.597   3.135  14.097  0.1155  0.4448  0.0906
 1524TIP3    H126063   3.533   3.145  14.167  1.1259 -3.0995  1.6195
 1524TIP3    H226064   3.544   3.111  14.020 -0.6146 -0.1184  0.7548
 1525TIP3   OH226065   4.994   4.753  14.861  0.0317 -0.0765 -0.6327
 1525TIP3    H126066   5.082   4.721  14.844 -0.2884 -1.2950 -0.0542
 1525TIP3    H226067   4.997   4.786  14.951 -0.5467 -1.7782  0.0369
 1526TIP3   OH226068   2.686   3.760   5.966  0.0854  0.1564 -0.0663
 1526TIP3    H126069   2.650   3.676   5.994  0.5056  0.0002  0.0123
 1526TIP3    H226070   2.615   3.802   5.918 -0.4342  0.1443  0.6770
 1527TIP3   OH226071   5.381   2.873  12.840  0.3872 -0.1722  0.2470
 1527TIP3    H126072   5.450   2.902  12.899 -1.0853 -1.6286  2.8091
 1527TIP3    H226073   5.353   2.789  12.876 -4.1720  1.3757  0.6009
 1528TIP3   OH226074   1.545   2.315  16.931 -0.0416 -0.5422  0.2091
 1528TIP3    H126075   1.617   2.359  16.976  1.0679 -3.0110  0.8924
 1528TIP3    H226076   1.543   2.355  16.844 -0.2701  2.1549  1.3919
 1529TIP3   OH226077   4.651   3.997   4.108  0.1684 -0.3998 -0.1137
 1529TIP3    H126078   4.585   4.038   4.164 -0.4361 -0.6242 -0.6613
 1529TIP3    H226079   4.660   3.909   4.143 -0.9614 -0.8807 -0.9920
 1530TIP3   OH226080   1.838   3.153   0.000 -0.5359 -0.1391  0.1873
 1530TIP3    H126081   1.771   3.105  -0.047  1.1564 -0.9012 -1.5005
 1530TIP3    H226082   1.851   3.233  -0.051  0.2706 -0.2738  0.1795
 1531TIP3   OH226083   0.271   5.810  14.092 -0.1673  0.3492 -0.3507
 1531TIP3    H126084   0.288   5.789  14.000 -1.4503 -0.6207 -0.3779
 1531TIP3    H226085   0.357   5.832  14.128  0.2242  1.6333 -1.9982
 1532TIP3   OH226086   3.093   3.658   1.179  0.1867 -0.0801  0.1703
 1532TIP3    H126087   3.095   3.573   1.135 -0.0685  0.3187 -0.6206
 1532TIP3    H226088   3.170   3.704   1.147 -1.0604  0.9671 -1.4172
 1533TIP3   OH226089   2.368   4.989   0.922  0.4000 -0.0432  0.4178
 1533TIP3    H126090   2.372   5.083   0.940 -0.0357 -0.0914  0.7752
 1533TIP3    H226091   2.404   4.980   0.834  0.4428  0.4616  0.3828
 1534TIP3   OH226092   1.054   4.708  17.205  0.7610  0.4121 -0.3819
 1534TIP3    H126093   0.985   4.693  17.140  0.1770 -2.7665  0.8615
 1534TIP3    H226094   1.133   4.721  17.152 -0.0883  0.0163 -1.7941
 1535TIP3   OH226095   5.761   5.454   6.419 -0.2055  0.0850  0.0500
 1535TIP3    H126096   5.782   5.380   6.475 -0.3928  0.5471  0.7394
 1535TIP3    H226097   5.846   5.488   6.390 -0.1324 -0.6350 -0.5860
 1536TIP3   OH226098   4.445   4.646  16.128 -0.1244  0.0683 -0.3333
 1536TIP3    H126099   4.370   4.701  16.147 -0.7092 -1.0015  0.4821
 1536TIP3    H226100   4.426   4.608  16.042 -0.1541  0.3944 -0.4708
 1537TIP3   OH226101   4.558   6.157  13.042 -0.1774  0.5830  0.0600
 1537TIP3    H126102   4.522   6.109  13.118  0.4713  1.2306  0.7839
 1537TIP3    H226103   4.642   6.191  13.073 -0.0310  1.0774 -0.8753
 1538TIP3   OH226104   3.281   2.188  13.205 -0.1616 -0.2242  1.1365
 1538TIP3    H126105   3.191   2.179  13.174  0.1978  2.5219 -0.9142
 1538TIP3    H226106   3.276   2.257  13.272  0.5692  0.9204  0.0451
 1539TIP3   OH226107   2.511   4.789   0.129 -0.0721 -0.1935 -0.1796
 1539TIP3    H126108   2.462   4.709   0.147  2.0530 -1.9833 -1.9485
 1539TIP3    H226109   2.515   4.793   0.033  2.2020  0.5094 -0.0842
 1540TIP3   OH226110   6.298   0.930  12.965  0.1918  0.5250  0.7166
 1540TIP3    H126111   6.306   0.977  12.882  0.4493 -0.7384  0.0173
 1540TIP3    H226112   6.287   0.999  13.031  0.8378  1.5718 -0.2601
 1541TIP3   OH226113   5.867   1.326   6.610  0.0756 -0.0116 -0.0237
 1541TIP3    H126114   5.866   1.419   6.633  1.4993 -0.2583  1.0569
 1541TIP3    H226115   5.821   1.283   6.682 -1.3401 -0.0709 -0.9417
 1542TIP3   OH226116   5.371   2.227  11.182  0.3633 -0.7289  0.6046
 1542TIP3    H126117   5.341   2.282  11.110  0.9553 -1.2091 -0.0085
 1542TIP3    H226118   5.309   2.155  11.185  1.2183 -1.5274 -0.4280
 1543TIP3   OH226119   2.530   2.801   1.133  0.1137  0.4640 -0.1751
 1543TIP3    H126120   2.521   2.833   1.043  1.8244  0.4243 -0.3656
 1543TIP3    H226121   2.467   2.729   1.138  0.6380 -0.1233 -1.6351
 1544TIP3   OH226122   5.501   3.832  15.858 -0.1263 -0.4696 -0.1511
 1544TIP3    H126123   5.588   3.838  15.817  0.3449 -2.1097  0.5446
 1544TIP3    H226124   5.439   3.844  15.786  0.6884 -0.1625 -0.8082
 1545TIP3   OH226125   3.507   2.935   2.651 -0.4075 -0.7066  0.2343
 1545TIP3    H126126   3.581   2.957   2.709 -0.8987 -1.1967  1.0501
 1545TIP3    H226127   3.538   2.859   2.602  0.0785 -0.1808 -0.2922
 1546TIP3   OH226128   2.974   1.914   6.270  0.0078 -0.1607  0.2865
 1546TIP3    H126129   2.970   2.009   6.263 -2.2055 -0.1695  1.2788
 1546TIP3    H226130   2.948   1.895   6.360  0.7735 -1.7013  0.1993
 1547TIP3   OH226131   1.710   6.339  15.390 -0.0910  0.0097  0.1712
 1547TIP3    H126132   1.672   6.310  15.473  0.4584  2.1221  1.2137
 1547TIP3    H226133   1.677   6.278  15.325 -1.7886 -0.7642  1.7297
 1548TIP3   OH226134   6.627   1.319   1.299  0.6903  0.0324 -0.5070
 1548TIP3    H126135   6.551   1.276   1.260  1.2491 -1.2908 -0.2001
 1548TIP3    H226136   6.661   1.375   1.229 -0.0219 -0.0895 -0.9572
 1549TIP3   OH226137   0.928   6.663   5.745 -0.4963  0.5764 -0.6028
 1549TIP3    H126138   1.023   6.660   5.761 -0.5311 -0.4437 -0.5797
 1549TIP3    H226139   0.900   6.572   5.751 -1.3938  0.8131 -1.1602
 1550TIP3   OH226140   0.151   1.146   2.424  0.3106  0.3120  0.3623
 1550TIP3    H126141   0.085   1.212   2.443  0.0951  0.3988 -0.6334
 1550TIP3    H226142   0.204   1.184   2.354 -0.0505 -0.7150 -0.4907
 1551TIP3   OH226143   0.154   6.764  14.398 -0.1455  0.2078 -0.5616
 1551TIP3    H126144   0.115   6.833  14.452  1.4141  0.0289  0.8309
 1551TIP3    H226145   0.148   6.799  14.309  1.7387  2.7558  0.2272
 1552TIP3   OH226146   2.155   2.422   3.823 -0.9181 -0.0822  0.1841
 1552TIP3    H126147   2.088   2.486   3.797  1.0986  1.3448 -1.8149
 1552TIP3    H226148   2.235   2.474   3.831  0.3136 -2.0125  0.7413
 1553TIP3   OH226149   5.063   3.146  11.649  0.5924  0.1444 -0.2184
 1553TIP3    H126150   4.993   3.120  11.709 -0.7375 -0.8881 -2.1622
 1553TIP3    H226151   5.053   3.240  11.639 -1.3032 -0.1625 -1.4128
 1554TIP3   OH226152   1.014   1.836  14.028  0.5863 -0.3366  0.2839
 1554TIP3    H126153   1.014   1.879  13.943 -0.7931  0.3746  0.6321
 1554TIP3    H226154   1.104   1.847  14.060  1.1582 -0.7360 -1.1225
 1555TIP3   OH226155   1.966   4.321  11.164  0.2921  0.3552  0.2700
 1555TIP3    H126156   2.027   4.392  11.182 -0.9921  0.6893  3.5974
 1555TIP3    H226157   1.881   4.355  11.190 -0.5266 -1.9681  0.7384
 1556TIP3   OH226158   6.818   1.931   5.348  0.1582  0.1958 -0.4584
 1556TIP3    H126159   6.736   1.883   5.333  0.1202  0.7496 -2.1822
 1556TIP3    H226160   6.873   1.906   5.274  2.1838 -1.4451  1.5477
 1557TIP3   OH226161   2.536   6.756   4.081  0.2440 -0.4995  0.3046
 1557TIP3    H126162   2.492   6.811   4.146  0.2371 -0.4814  0.2851
 1557TIP3    H226163   2.604   6.710   4.130  0.4325 -0.2632  0.2689
 1558TIP3   OH226164   1.682   5.326  12.741  0.2038  0.0630  0.4944
 1558TIP3    H126165   1.744   5.365  12.679 -0.6342 -0.2205 -0.5520
 1558TIP3    H226166   1.675   5.390  12.811  0.3924  0.8702 -0.2111
 1559TIP3   OH226167   1.993   1.618   5.280 -0.9036  0.7037  0.3857
 1559TIP3    H126168   2.027   1.707   5.275  1.1431 -0.1852 -3.2023
 1559TIP3    H226169   2.039   1.580   5.355  0.5730  1.7300  0.0221
 1560TIP3   OH226170   1.148   3.421  15.291  0.3382 -0.4580 -0.4128
 1560TIP3    H126171   1.200   3.436  15.370  1.6581  3.0459 -1.8418
 1560TIP3    H226172   1.113   3.507  15.269  0.5924 -1.1985 -4.0348
 1561TIP3   OH226173   5.518   5.037  13.295 -0.6787 -0.2697 -0.8495
 1561TIP3    H126174   5.509   5.074  13.382 -0.6657  0.4810 -1.1642
 1561TIP3    H226175   5.597   4.983  13.299 -2.3629 -2.7686  0.4821
 1562TIP3   OH226176   2.485   3.171  11.790 -0.0402  0.4253  0.0808
 1562TIP3    H126177   2.511   3.250  11.742  0.0060 -0.5315 -1.5081
 1562TIP3    H226178   2.551   3.163  11.860  1.2546  0.5732 -1.0956
 1563TIP3   OH226179   3.412   1.182   5.522 -0.2219  0.0676 -0.4465
 1563TIP3    H126180   3.345   1.124   5.486  0.3744 -0.8610 -0.0681
 1563TIP3    H226181   3.390   1.269   5.488  0.3959 -0.7951 -3.1573
 1564TIP3   OH226182   5.025   6.722  11.176 -0.0103 -0.1261  0.0384
 1564TIP3    H126183   5.069   6.727  11.261  0.0876 -0.0604 -0.0159
 1564TIP3    H226184   5.038   6.632  11.148 -0.3033 -0.2309  0.2319
 1565TIP3   OH226185   3.198   3.861  11.173  0.4290 -0.1710 -0.1293
 1565TIP3    H126186   3.236   3.859  11.085  0.0272  0.0453 -0.3075
 1565TIP3    H226187   3.206   3.952  11.202  0.6940 -0.2714  0.1187
 1566TIP3   OH226188   5.321   6.789  13.095  0.0921  0.3204 -0.6268
 1566TIP3    H126189   5.330   6.853  13.024  0.2970  0.7885 -0.1879
 1566TIP3    H226190   5.350   6.707  13.057 -0.6335  0.3925 -1.3440
 1567TIP3   OH226191   1.618   0.806  16.302 -0.6210  0.1242  1.1919
 1567TIP3    H126192   1.711   0.798  16.279 -0.7962 -1.3899  0.9808
 1567TIP3    H226193   1.575   0.832  16.221 -0.4512  0.3968  1.1862
 1568TIP3   OH226194   2.713   4.129   0.654  0.7141 -0.1703  0.0314
 1568TIP3    H126195   2.667   4.145   0.737  0.8468 -1.3773  0.3508
 1568TIP3    H226196   2.790   4.185   0.659 -0.8252  2.0746 -0.6268
 1569TIP3   OH226197   2.889   5.771   4.788  0.5622  0.0061  1.0838
 1569TIP3    H126198   2.936   5.729   4.716 -0.0340 -0.6791  1.0823
 1569TIP3    H226199   2.813   5.813   4.747  1.5292  1.6832  0.9968
 1570TIP3   OH226200   1.359   2.143  11.854  0.3613 -0.3123 -0.6860
 1570TIP3    H126201   1.381   2.231  11.822 -1.7695  0.6128  0.3167
 1570TIP3    H226202   1.443   2.105  11.880  1.0690  2.3304  1.0757
 1571TIP3   OH226203   1.541   2.760  17.162  0.1993 -0.5600 -0.0293
 1571TIP3    H126204   1.476   2.690  17.154 -0.1438 -0.4124  1.2956
 1571TIP3    H226205   1.625   2.716  17.152 -0.0624 -0.9572 -0.4831
 1572TIP3   OH226206   1.233   3.421  15.631 -0.1806  0.2453  0.0229
 1572TIP3    H126207   1.268   3.449  15.715 -0.2954  1.3321 -0.2894
 1572TIP3    H226208   1.239   3.499  15.575  1.5084 -0.9050 -1.4862
 1573TIP3   OH226209   1.735   1.434   2.405  1.1529  0.3140  0.2850
 1573TIP3    H126210   1.702   1.348   2.378  1.5274  0.7203 -1.5868
 1573TIP3    H226211   1.663   1.494   2.384  2.4173  1.0025 -2.4271
 1574TIP3   OH226212   0.087   6.735   4.663  0.5006  0.4996 -0.0812
 1574TIP3    H126213   0.074   6.690   4.747 -1.4489 -1.0069 -1.1209
 1574TIP3    H226214   0.159   6.688   4.622  0.2596  0.0556 -0.0046
 1575TIP3   OH226215   1.765   1.981  11.761  0.2711 -0.1827 -0.0814
 1575TIP3    H126216   1.818   1.940  11.830  0.7136 -0.5922 -0.6545
 1575TIP3    H226217   1.814   2.059  11.736 -0.4344  0.5621  0.8201
 1576TIP3   OH226218   5.139   2.152   3.696  0.1680  0.4853  0.0258
 1576TIP3    H126219   5.108   2.064   3.721  2.8738 -1.1580 -2.2060
 1576TIP3    H226220   5.058   2.202   3.682 -1.4391 -1.8860  0.4865
 1577TIP3   OH226221   3.526   3.054   1.825 -0.1040  0.9088  0.5185
 1577TIP3    H126222   3.595   3.001   1.785 -0.1648  1.6383 -0.5803
 1577TIP3    H226223   3.492   3.000   1.896  0.2580 -0.2636 -0.1886
 1578TIP3   OH226224   4.420   0.504   4.094  0.0365 -0.2048 -0.3623
 1578TIP3    H126225   4.352   0.441   4.074 -0.7972  0.9392 -1.2630
 1578TIP3    H226226   4.427   0.504   4.189  0.8529 -2.4608 -0.3987
 1579TIP3   OH226227   5.241   3.945  11.988  0.3537  0.0389 -0.1059
 1579TIP3    H126228   5.282   3.937  12.074  1.8011  0.1560 -0.7733
 1579TIP3    H226229   5.259   4.035  11.961  0.6671 -0.2580 -0.9021
 1580TIP3   OH226230   1.448   0.190  17.083  0.1084 -0.3337 -0.5098
 1580TIP3    H126231   1.422   0.253  17.150  2.3351  0.3091 -0.2127
 1580TIP3    H226232   1.469   0.244  17.007  2.1949 -0.7053 -0.2063
 1581TIP3   OH226233   5.142   3.552   4.268 -0.4784 -0.1606 -0.6920
 1581TIP3    H126234   5.048   3.533   4.263 -0.4602 -0.7148  0.9030
 1581TIP3    H226235   5.159   3.564   4.361  1.4830 -2.4248 -0.7207
 1582TIP3   OH226236   5.154   3.122   0.212  0.7181 -0.0520 -0.2950
 1582TIP3    H126237   5.191   3.054   0.268  1.7912  0.8479  0.0998
 1582TIP3    H226238   5.087   3.164   0.266 -0.6554 -1.4421 -0.8850
 1583TIP3   OH226239   3.534   1.733  15.658  0.5389  0.0539 -0.4342
 1583TIP3    H126240   3.591   1.803  15.626  0.0921  0.8159  0.4089
 1583TIP3    H226241   3.590   1.656  15.661  0.8202  0.1861 -2.1647
 1584TIP3   OH226242   2.175   5.966  10.719  0.6742 -0.1028  0.5778
 1584TIP3    H126243   2.267   5.952  10.742  0.6773 -0.9634  0.0697
 1584TIP3    H226244   2.142   5.879  10.697 -0.6247  0.0001  2.0390
 1585TIP3   OH226245   5.171   4.522  15.028 -0.2521  0.2689 -0.2032
 1585TIP3    H126246   5.081   4.489  15.032  0.4637 -1.5009  2.0784
 1585TIP3    H226247   5.193   4.518  14.935 -2.7527  1.4518 -0.9050
 1586TIP3   OH226248   3.917   5.539   2.414 -0.1711  0.0312  0.5569
 1586TIP3    H126249   3.856   5.481   2.460 -0.1131 -0.3792  0.1123
 1586TIP3    H226250   3.961   5.586   2.485 -1.1008  0.4376  0.8754
 1587TIP3   OH226251   2.498   5.311  16.447 -0.1107  0.1507  1.3945
 1587TIP3    H126252   2.421   5.264  16.417 -0.1542  0.9619  0.1839
 1587TIP3    H226253   2.539   5.343  16.367  0.5623  1.1481  2.1222
 1588TIP3   OH226254   2.761   0.320   3.805  0.3827  0.8693  0.0038
 1588TIP3    H126255   2.810   0.319   3.723 -0.4909  0.4835 -0.5222
 1588TIP3    H226256   2.776   0.233   3.842  1.3540  1.2803  0.6173
 1589TIP3   OH226257   0.196   3.110   1.710 -0.3865 -0.3003 -0.6040
 1589TIP3    H126258   0.203   3.065   1.794 -0.8975  1.0850  0.1879
 1589TIP3    H226259   0.266   3.072   1.656 -0.1370 -1.2740  0.3979
 1590TIP3   OH226260   2.667   5.376  15.458 -0.5173 -0.2908  0.1197
 1590TIP3    H126261   2.711   5.436  15.518  0.0089  0.4205 -0.9541
 1590TIP3    H226262   2.603   5.431  15.413  1.2292 -0.0757 -2.2045
 1591TIP3   OH226263   6.768   6.389  15.669 -0.2605 -0.6903 -0.7725
 1591TIP3    H126264   6.738   6.476  15.645 -2.4117 -1.5340 -1.2683
 1591TIP3    H226265   6.846   6.375  15.615  0.5674  1.2073 -0.1137
 1592TIP3   OH226266   4.540   5.337   6.415  1.0672  0.3022 -0.1551
 1592TIP3    H126267   4.614   5.391   6.445 -0.0334  1.0065  1.3940
 1592TIP3    H226268   4.482   5.399   6.371  0.4139  0.1481  0.4786
 1593TIP3   OH226269   1.400   3.958  15.947  0.3923 -0.7691 -0.3700
 1593TIP3    H126270   1.435   3.875  15.980 -0.3666 -1.3310 -0.9452
 1593TIP3    H226271   1.413   4.020  16.018  1.1490 -1.3402 -0.0059
 1594TIP3   OH226272   2.858   3.834   0.024 -0.1673  0.6305  0.6835
 1594TIP3    H126273   2.821   3.828  -0.064  1.2046  2.1735 -0.0369
 1594TIP3    H226274   2.829   3.919   0.057 -0.0393  0.3924  1.4229
 1595TIP3   OH226275   5.219   3.737  11.250 -0.1368  0.1432 -0.3461
 1595TIP3    H126276   5.242   3.668  11.313  1.3094  1.0212  0.1153
 1595TIP3    H226277   5.263   3.711  11.169 -1.6412 -0.7557 -0.9168
 1596TIP3   OH226278   4.136   1.440   2.666 -0.3657 -0.4164  0.6027
 1596TIP3    H126279   4.093   1.492   2.733 -1.0275 -1.6407  1.1484
 1596TIP3    H226280   4.075   1.441   2.592  0.3491  0.9059  0.0109
 1597TIP3   OH226281   3.852   5.629  16.689  0.3772  0.4238 -0.0730
 1597TIP3    H126282   3.863   5.569  16.763  0.6403  1.6267  0.8740
 1597TIP3    H226283   3.816   5.709  16.728  0.5236  1.0675 -1.2391
 1598TIP3   OH226284   6.411   0.686   2.636  0.0493  0.1935  0.0165
 1598TIP3    H126285   6.479   0.752   2.650  0.5187 -0.4499  0.8003
 1598TIP3    H226286   6.359   0.688   2.716  1.9348 -2.5522  1.4116
 1599TIP3   OH226287   3.676   6.642  11.866 -0.1985  0.5740  0.0714
 1599TIP3    H126288   3.728   6.658  11.945 -3.1118  1.9519  1.7741
 1599TIP3    H226289   3.664   6.547  11.864  0.6881  0.4416  0.7514
 1600TIP3   OH226290   3.453   6.759   0.199  0.5021  0.2947  0.6762
 1600TIP3    H126291   3.542   6.724   0.202  0.6265  0.6689  1.7742
 1600TIP3    H226292   3.446   6.800   0.113  1.0700 -0.5723  0.2161
 1601TIP3   OH226293   3.506   3.100   1.135  0.2638  0.1569 -0.0085
 1601TIP3    H126294   3.573   3.067   1.075 -1.9007 -2.9616 -0.8475
 1601TIP3    H226295   3.448   3.152   1.080  2.6720  4.1414  0.9898
 1602TIP3   OH226296   3.480   4.926  14.795 -0.0681 -0.2802 -0.1245
 1602TIP3    H126297   3.391   4.960  14.791  0.5901  1.5189 -0.0122
 1602TIP3    H226298   3.529   4.978  14.731  1.2996  0.0764  1.1469
 1603TIP3   OH226299   3.759   1.741   3.539 -0.5718 -0.4453  0.4079
 1603TIP3    H126300   3.727   1.806   3.601  0.5720  1.2274 -0.7209
 1603TIP3    H226301   3.709   1.757   3.459  1.2448  0.5276 -0.5689
 1604TIP3   OH226302   3.959   6.014  14.030 -0.5291 -0.1045  0.5276
 1604TIP3    H126303   4.012   6.069  14.087 -1.3300  1.6002 -0.3170
 1604TIP3    H226304   3.905   5.962  14.090 -0.4244  0.7102  1.3437
 1605TIP3   OH226305   6.816   4.043  12.088  0.3845  0.0504  0.0452
 1605TIP3    H126306   6.875   4.100  12.136 -1.0228  1.4500  0.1468
 1605TIP3    H226307   6.757   4.007  12.154 -1.1436  1.4740 -0.5069
 1606TIP3   OH226308   4.918   6.594   0.431  0.0775 -0.0497 -0.1347
 1606TIP3    H126309   5.009   6.569   0.415 -0.2555 -0.5595 -1.2390
 1606TIP3    H226310   4.924   6.673   0.485  1.2061  1.1548 -2.0029
 1607TIP3   OH226311   2.377   2.405  10.959 -0.2723  0.0489 -0.1948
 1607TIP3    H126312   2.431   2.392  10.881 -1.4353  0.4345 -1.0776
 1607TIP3    H226313   2.320   2.328  10.961  1.1946 -1.0269  1.4882
 1608TIP3   OH226314   1.388   4.667   1.616  0.1313  0.2693  0.3151
 1608TIP3    H126315   1.299   4.645   1.642  0.3581 -1.4059 -0.2206
 1608TIP3    H226316   1.379   4.710   1.531 -0.2760  1.6663  1.0504
 1609TIP3   OH226317   4.551   4.787  14.523  0.6806 -0.7914  0.2283
 1609TIP3    H126318   4.581   4.877  14.535  2.6092 -1.3517 -0.1952
 1609TIP3    H226319   4.522   4.760  14.610  0.9056 -0.0486  0.5395
 1610TIP3   OH226320   6.583   1.326   3.355 -0.2863 -0.3988  0.4130
 1610TIP3    H126321   6.538   1.410   3.349 -1.5533 -0.9393  1.8891
 1610TIP3    H226322   6.634   1.332   3.436 -0.9802 -1.3198  0.9227
 1611TIP3   OH226323   0.656   6.368  12.332  0.0730 -0.2485 -0.1538
 1611TIP3    H126324   0.605   6.408  12.262  0.4827 -0.2367 -0.4437
 1611TIP3    H226325   0.592   6.352  12.402 -0.1903  0.4131 -0.2427
 1612TIP3   OH226326   0.044   4.163   2.717 -0.3461 -0.6959  0.2300
 1612TIP3    H126327   0.038   4.122   2.803 -1.7955 -2.0373 -0.4893
 1612TIP3    H226328   0.042   4.090   2.655 -1.6976  0.3602 -1.0238
 1613TIP3   OH226329   6.257   1.309   1.859 -0.6389  0.0169 -0.0592
 1613TIP3    H126330   6.183   1.298   1.799  1.9667 -2.5841 -2.9645
 1613TIP3    H226331   6.264   1.224   1.904 -0.1656  0.6637  1.1210
 1614TIP3   OH226332   2.605   2.085  11.763 -0.6123 -0.6275 -0.0729
 1614TIP3    H126333   2.625   1.992  11.753 -2.2059 -1.0083  0.2089
 1614TIP3    H226334   2.557   2.108  11.683  0.7963  0.2653 -0.7020
 1615TIP3   OH226335   3.744   6.417  14.642 -0.1292  0.4998  0.6953
 1615TIP3    H126336   3.791   6.333  14.645  0.0532  0.5622 -0.2634
 1615TIP3    H226337   3.723   6.436  14.734 -1.2206 -1.1787  0.8057
 1616TIP3   OH226338   3.823   5.205   0.438  0.2873  0.1924 -0.2708
 1616TIP3    H126339   3.917   5.191   0.444  0.2675 -0.4014 -1.1955
 1616TIP3    H226340   3.811   5.247   0.353 -0.2634  0.4619 -0.0629
 1617TIP3   OH226341   3.588   5.563  13.081 -0.1474  0.0408  0.4929
 1617TIP3    H126342   3.503   5.520  13.092  0.1163 -0.2804  1.2941
 1617TIP3    H226343   3.591   5.628  13.152  1.5140 -1.9504  2.3004
 1618TIP3   OH226344   3.137   6.387  16.363  0.0872 -0.2759 -0.1527
 1618TIP3    H126345   3.150   6.399  16.457  1.2599 -2.2272 -0.0445
 1618TIP3    H226346   3.221   6.414  16.325 -0.3646  0.4503 -0.6346
 1619TIP3   OH226347   2.804   3.117  15.081 -0.2857 -0.5414  0.1502
 1619TIP3    H126348   2.804   3.204  15.040  1.7826 -0.8353 -0.5435
 1619TIP3    H226349   2.794   3.056  15.008 -1.0479 -0.9202  0.5660
 1620TIP3   OH226350   5.197   3.720  16.979 -0.4371  0.5300 -0.0287
 1620TIP3    H126351   5.224   3.705  16.889 -0.3794 -0.4609  0.1420
 1620TIP3    H226352   5.111   3.762  16.972 -1.2105 -1.1133 -0.5430
 1621TIP3   OH226353   5.883   2.842  11.896  0.4099  0.1687  0.1672
 1621TIP3    H126354   5.843   2.758  11.874 -1.7639  1.0409  0.7060
 1621TIP3    H226355   5.868   2.852  11.989  0.9397  1.0300  0.1643
 1622TIP3   OH226356   3.588   5.538   4.815  0.3180 -0.1463 -0.2069
 1622TIP3    H126357   3.546   5.466   4.863  1.0536  1.1973  2.5673
 1622TIP3    H226358   3.675   5.545   4.855  0.9689  1.0433 -1.7868
 1623TIP3   OH226359   1.431   6.279   3.600  0.2915 -0.4826  0.1835
 1623TIP3    H126360   1.384   6.209   3.645 -0.2371  0.5775  1.3112
 1623TIP3    H226361   1.442   6.347   3.667  0.3648  0.7136 -1.0343
 1624TIP3   OH226362   2.745   1.368   6.194 -0.5671 -0.2599  0.2194
 1624TIP3    H126363   2.840   1.365   6.180 -0.6056  0.8399 -0.2991
 1624TIP3    H226364   2.734   1.405   6.281 -0.5120 -0.7608  0.4402
 1625TIP3   OH226365   5.387   5.501  12.081  0.0657 -1.2451 -0.2612
 1625TIP3    H126366   5.430   5.491  11.996  0.6119  0.5504 -0.2095
 1625TIP3    H226367   5.458   5.490  12.145  0.3588  0.9137 -0.1586
 1626TIP3   OH226368   2.276   6.310  11.495  0.0544  0.4145  0.2948
 1626TIP3    H126369   2.341   6.240  11.498 -0.3366  0.0229 -0.2504
 1626TIP3    H226370   2.313   6.379  11.549  0.2179 -0.4055  1.2607
 1627TIP3   OH226371   3.892   0.635   6.023  0.0804  0.2976 -0.3839
 1627TIP3    H126372   3.849   0.551   6.038 -1.7428  1.1822 -0.4926
 1627TIP3    H226373   3.881   0.652   5.930  0.0341  0.8717 -0.2779
 1628TIP3   OH226374   3.499   1.969   4.271 -0.1597 -0.1982 -0.4167
 1628TIP3    H126375   3.478   1.956   4.178  0.4017 -0.3450 -0.5256
 1628TIP3    H226376   3.545   2.052   4.274  0.1770 -0.3883 -0.3226
 1629TIP3   OH226377   3.573   4.149  13.680  0.3522  0.0984 -0.3511
 1629TIP3    H126378   3.586   4.127  13.772 -0.7482  0.6255 -0.0533
 1629TIP3    H226379   3.601   4.240  13.672 -1.7068  0.7889 -0.0117
 1630TIP3   OH226380   3.214   6.679   2.722  0.8426  0.9010  0.1124
 1630TIP3    H126381   3.217   6.728   2.639 -1.3905 -0.3237 -0.7144
 1630TIP3    H226382   3.219   6.587   2.696 -2.6154  0.3844  1.1173
 1631TIP3   OH226383   1.624   3.311   0.249 -0.4393 -0.3861 -0.2452
 1631TIP3    H126384   1.692   3.355   0.197  0.4755 -1.8060 -0.2815
 1631TIP3    H226385   1.595   3.238   0.194 -0.4587 -1.0725  0.6667
 1632TIP3   OH226386   5.116   4.385  11.071  0.4141  0.0850 -0.1393
 1632TIP3    H126387   5.122   4.376  10.976 -0.9946  0.5590 -0.2736
 1632TIP3    H226388   5.176   4.457  11.092 -2.4702  2.9365 -1.1808
 1633TIP3   OH226389   0.875   1.365  14.598 -0.1618  0.1458 -0.1297
 1633TIP3    H126390   0.939   1.295  14.607 -1.3794 -0.7128  2.2181
 1633TIP3    H226391   0.802   1.324  14.551 -0.6203 -0.0108  0.7076
 1634TIP3   OH226392   5.448   6.736   4.797  0.0931 -0.1311 -0.2056
 1634TIP3    H126393   5.478   6.818   4.838  2.7632  0.7493 -3.6712
 1634TIP3    H226394   5.477   6.668   4.857  0.5779  1.3058  1.2428
 1635TIP3   OH226395   5.472   4.682   1.372 -0.0527  0.2877  0.5803
 1635TIP3    H126396   5.490   4.757   1.430  0.2044  1.8096 -1.4250
 1635TIP3    H226397   5.543   4.685   1.307  1.7636 -3.5510  2.2123
 1636TIP3   OH226398   6.410   3.407  11.800 -0.6294  0.0921 -0.3736
 1636TIP3    H126399   6.356   3.477  11.763  1.3916  2.0105  0.2418
 1636TIP3    H226400   6.379   3.398  11.891 -1.6428 -0.6196 -0.7740
 1637TIP3   OH226401   2.374   6.626   0.959  0.2576  0.1681 -0.1813
 1637TIP3    H126402   2.316   6.639   1.034  1.8630  0.7950  0.9782
 1637TIP3    H226403   2.318   6.643   0.883 -1.4114 -0.5607  0.8480
 1638TIP3   OH226404   3.768   5.488   5.594  0.1394 -0.3363 -0.1739
 1638TIP3    H126405   3.797   5.547   5.663 -0.2027 -1.0440  0.5827
 1638TIP3    H226406   3.831   5.415   5.596  1.2937  0.5691 -1.9213
 1639TIP3   OH226407   3.395   6.484   1.444 -0.5206 -0.0389 -0.1528
 1639TIP3    H126408   3.432   6.569   1.469  0.6595 -0.5801  0.0164
 1639TIP3    H226409   3.374   6.442   1.528  0.6284 -0.6412 -0.1454
 1640TIP3   OH226410   0.407   2.267  11.461  0.7416  0.0052 -0.5456
 1640TIP3    H126411   0.352   2.323  11.516 -1.1068 -3.2504  1.1259
 1640TIP3    H226412   0.419   2.317  11.380 -1.6349  2.3578  0.4649
 1641TIP3   OH226413   3.530   4.746   2.678  0.2225  0.2980  0.1317
 1641TIP3    H126414   3.441   4.761   2.648  0.1351 -0.4812 -0.0125
 1641TIP3    H226415   3.571   4.696   2.608 -0.2826 -2.4281  1.6887
 1642TIP3   OH226416   1.622   3.071  13.668  0.2011 -0.0996 -0.0646
 1642TIP3    H126417   1.611   2.983  13.705 -0.1658  0.1268  0.3762
 1642TIP3    H226418   1.715   3.079  13.651  0.3562 -0.2363  0.7375
 1643TIP3   OH226419   4.192   0.115   6.730 -0.6788 -0.4758 -0.0888
 1643TIP3    H126420   4.104   0.120   6.767 -1.6018  1.0574 -2.4308
 1643TIP3    H226421   4.211   0.204   6.700  0.0993 -1.6182 -3.1308
 1644TIP3   OH226422   3.850   4.259   1.380 -0.5812  0.0333  0.1739
 1644TIP3    H126423   3.894   4.264   1.296 -2.0243 -0.3769 -0.6253
 1644TIP3    H226424   3.764   4.220   1.360 -0.3907 -1.4340  2.0324
 1645TIP3   OH226425   3.945   6.206   3.921 -0.0574 -0.1285  0.2410
 1645TIP3    H126426   3.908   6.288   3.886  2.0413  0.7593  0.0556
 1645TIP3    H226427   3.877   6.141   3.903 -0.6199  1.0248 -2.1231
 1646TIP3   OH226428   6.218   6.276  15.568  0.1892 -0.0657  0.7926
 1646TIP3    H126429   6.142   6.243  15.520  0.0077 -1.1039  1.7769
 1646TIP3    H226430   6.264   6.332  15.505 -1.1999  0.2949  0.0803
 1647TIP3   OH226431   1.225   1.010   1.899 -0.1751  0.0654  0.3256
 1647TIP3    H126432   1.154   1.071   1.918  0.3379  0.6120  0.4953
 1647TIP3    H226433   1.199   0.968   1.817  0.4180  1.9652 -0.8833
 1648TIP3   OH226434   5.097   6.208   3.111 -0.4687  0.4269  0.1122
 1648TIP3    H126435   5.012   6.211   3.067  0.2837 -0.9470 -1.5065
 1648TIP3    H226436   5.110   6.116   3.132  0.3984  0.6954  0.7799
 1649TIP3   OH226437   6.309   2.407  15.615  0.0708  0.4529  0.0433
 1649TIP3    H126438   6.232   2.369  15.658 -0.9598  1.0453 -1.2462
 1649TIP3    H226439   6.303   2.501  15.633  1.1502  0.3604  0.9413
 1650TIP3   OH226440   4.680   0.001   0.848 -0.3501 -0.3120  0.1998
 1650TIP3    H126441   4.711   0.082   0.808 -0.2785 -0.5838 -0.3022
 1650TIP3    H226442   4.611   0.028   0.908  0.9232  0.3085  1.4007
 1651TIP3   OH226443   2.449   4.352  12.669  0.2306 -0.6567 -0.1522
 1651TIP3    H126444   2.521   4.303  12.631 -0.5909  0.4772 -3.3700
 1651TIP3    H226445   2.371   4.299  12.650 -0.2680  0.2514 -0.6975
 1652TIP3   OH226446   5.600   0.147   4.356 -0.1186 -0.4597 -0.0855
 1652TIP3    H126447   5.577   0.209   4.426  0.7746 -2.7410  2.3311
 1652TIP3    H226448   5.695   0.155   4.348 -0.1401 -0.6824 -0.5731
 1653TIP3   OH226449   3.538   4.141  12.978  0.1347  0.9790 -0.0968
 1653TIP3    H126450   3.492   4.072  12.930  1.9431  0.1034 -0.6022
 1653TIP3    H226451   3.497   4.222  12.948 -0.6554  0.2608 -0.9982
 1654TIP3   OH226452   4.075   5.206   4.801 -0.0759  0.6640 -0.1149
 1654TIP3    H126453   3.996   5.208   4.748 -1.6533  2.1232  2.2321
 1654TIP3    H226454   4.135   5.265   4.756 -1.1730  1.4090 -0.6080
 1655TIP3   OH226455   0.972   4.602   3.496  0.4846  0.2277  0.1631
 1655TIP3    H126456   0.945   4.652   3.419  3.5693  2.2955  0.3684
 1655TIP3    H226457   1.027   4.532   3.460 -1.9566 -1.7162  0.0956
 1656TIP3   OH226458   6.241   1.656  14.640 -0.0186  0.4092  0.5249
 1656TIP3    H126459   6.234   1.730  14.580  0.1875 -1.7596 -2.2804
 1656TIP3    H226460   6.179   1.592  14.606  2.1108 -1.9563  0.9465
 1657TIP3   OH226461   5.147   3.701  14.421  0.2662  0.7302  0.0821
 1657TIP3    H126462   5.185   3.634  14.364 -0.1573  2.3345 -2.1519
 1657TIP3    H226463   5.186   3.685  14.507  1.1527 -1.5588 -0.7203
 1658TIP3   OH226464   4.591   5.136  16.841 -0.0719  0.0383 -0.9682
 1658TIP3    H126465   4.664   5.120  16.901 -0.6945  0.1211 -0.1724
 1658TIP3    H226466   4.560   5.048  16.818 -1.4478  0.0064  0.8652
 1659TIP3   OH226467   6.198   4.755   1.609 -0.3579 -0.2680  0.1381
 1659TIP3    H126468   6.132   4.809   1.567  0.1689  1.2156  1.1827
 1659TIP3    H226469   6.264   4.740   1.542  1.0840  3.0957  0.7188
 1660TIP3   OH226470   1.047   3.691  12.989  0.2240 -0.0725 -0.1992
 1660TIP3    H126471   1.118   3.719  13.047  0.3046 -3.0584  1.2274
 1660TIP3    H226472   1.075   3.721  12.902  0.4817  3.7459  1.1046
 1661TIP3   OH226473   6.336   0.448  13.947  0.2036  0.2726 -0.3781
 1661TIP3    H126474   6.329   0.359  13.983  1.0556 -0.8528 -2.8717
 1661TIP3    H226475   6.346   0.435  13.853 -0.9108  3.0809 -0.9432
 1662TIP3   OH226476   2.549   3.284  14.857 -0.0779 -0.1864  0.5929
 1662TIP3    H126477   2.569   3.192  14.838  0.5196 -0.1838  1.2097
 1662TIP3    H226478   2.610   3.308  14.927 -1.5429  0.1082  1.7894
 1663TIP3   OH226479   6.567   5.749  14.331  0.3801 -1.1479  0.3180
 1663TIP3    H126480   6.508   5.745  14.257 -1.9173  0.5406  1.9752
 1663TIP3    H226481   6.648   5.708  14.301 -1.1995 -2.3107 -2.4163
 1664TIP3   OH226482   0.188   5.812  12.933  1.0128  0.6057 -0.2603
 1664TIP3    H126483   0.281   5.811  12.909  0.5374 -0.4983 -2.1341
 1664TIP3    H226484   0.161   5.903  12.920  1.7624  0.8857  0.0890
 1665TIP3   OH226485   6.256   4.624  11.124 -0.1134 -0.8606 -0.1427
 1665TIP3    H126486   6.332   4.632  11.067 -0.3142  0.3765 -0.2432
 1665TIP3    H226487   6.247   4.710  11.164 -0.9389 -1.2596  0.5440
 1666TIP3   OH226488   3.978   3.123  15.818  0.1050  0.1582  0.8722
 1666TIP3    H126489   4.040   3.192  15.796  0.7940 -0.3826  1.0798
 1666TIP3    H226490   3.961   3.134  15.911  0.4870 -0.1576  0.9830
 1667TIP3   OH226491   6.191   6.083  11.699 -0.1469 -0.4660  0.3171
 1667TIP3    H126492   6.160   5.998  11.667  0.2648 -0.9298  1.1217
 1667TIP3    H226493   6.225   6.064  11.787 -0.6161  0.6494  0.7447
 1668TIP3   OH226494   5.147   5.172  15.915 -0.4505  0.6107 -0.5842
 1668TIP3    H126495   5.149   5.257  15.872 -0.9709  0.8733 -0.0947
 1668TIP3    H226496   5.064   5.171  15.963 -0.5702 -0.2721 -0.7989
 1669TIP3   OH226497   6.123   6.321  14.254 -0.1546  0.0929  0.0011
 1669TIP3    H126498   6.099   6.269  14.331 -0.6290  0.2550 -0.0415
 1669TIP3    H226499   6.099   6.410  14.277 -1.6593 -0.0617 -0.9072
 1670TIP3   OH226500   4.671   0.211  13.797  0.0677 -0.0115  0.3862
 1670TIP3    H126501   4.589   0.163  13.807 -1.7151  2.3512 -2.0057
 1670TIP3    H226502   4.683   0.218  13.702  1.6860  1.8182  0.6953
 1671TIP3   OH226503   3.097   6.331  13.688 -0.1013 -0.3168  0.0199
 1671TIP3    H126504   3.019   6.277  13.673 -0.3536  0.0128  0.1386
 1671TIP3    H226505   3.110   6.328  13.783  0.6919 -1.2914 -0.1210
 1672TIP3   OH226506   3.599   3.108  16.023  0.3335  0.1431  0.0564
 1672TIP3    H126507   3.527   3.047  16.007  0.9184 -0.5565  0.1189
 1672TIP3    H226508   3.601   3.117  16.118  0.4129  0.0661  0.0593
 1673TIP3   OH226509   0.198   4.838  11.338 -0.6913 -0.1576  0.1656
 1673TIP3    H126510   0.146   4.758  11.333 -1.1298  0.0868  0.8134
 1673TIP3    H226511   0.215   4.849  11.432 -2.3238  1.5983  0.2777
 1674TIP3   OH226512   4.279   6.024  13.224  0.9142 -0.1577 -0.4202
 1674TIP3    H126513   4.225   6.012  13.145 -0.0879 -0.9004  0.3589
 1674TIP3    H226514   4.329   5.944  13.232 -1.0016 -1.2602  1.1856
 1675TIP3   OH226515   3.943   1.934   1.015 -0.2725  0.0396  0.0100
 1675TIP3    H126516   3.921   1.846   1.045 -1.2561  0.0155 -0.7431
 1675TIP3    H226517   3.894   1.992   1.074 -0.1631  0.0694  0.0731
 1676TIP3   OH226518   3.189   3.410   0.497  0.3455  0.0908  0.0406
 1676TIP3    H126519   3.094   3.399   0.488  0.3588  0.7515 -0.9465
 1676TIP3    H226520   3.222   3.411   0.408  1.2394  0.2810  0.3673
 1677TIP3   OH226521   0.928   0.736   4.339 -0.3877  0.4442 -0.0404
 1677TIP3    H126522   0.989   0.807   4.357 -2.8494  2.6554 -0.0820
 1677TIP3    H226523   0.853   0.779   4.298 -2.6730 -1.9323  1.4862
 1678TIP3   OH226524   3.787   3.457  15.272  0.0504  0.8601  0.4284
 1678TIP3    H126525   3.732   3.529  15.241 -1.8050 -0.9137 -0.5392
 1678TIP3    H226526   3.729   3.405  15.327  1.2649 -0.0668  0.8410
 1679TIP3   OH226527   4.256   0.336   1.813 -0.4135 -0.4422 -0.2819
 1679TIP3    H126528   4.346   0.365   1.829 -0.1335 -1.9074  0.9679
 1679TIP3    H226529   4.246   0.336   1.718  0.0353  2.2677 -0.3662
 1680TIP3   OH226530   2.332   3.069  14.328  0.2761 -0.6225 -0.3447
 1680TIP3    H126531   2.326   2.980  14.294 -0.0433 -0.4820 -0.6606
 1680TIP3    H226532   2.242   3.092  14.350  0.4492 -0.6253  0.3726
 1681TIP3   OH226533   1.548   6.710  11.758 -0.6028  0.8305  0.5957
 1681TIP3    H126534   1.490   6.781  11.787 -1.0933 -0.5846  3.1848
 1681TIP3    H226535   1.560   6.655  11.835  2.0339 -0.4102 -0.6198
 1682TIP3   OH226536   1.413   5.050  16.239 -0.0774  0.4177  0.3996
 1682TIP3    H126537   1.478   5.057  16.309 -0.9688  0.6032  1.2323
 1682TIP3    H226538   1.374   4.963  16.252  0.7132 -0.1053 -0.7288
 1683TIP3   OH226539   0.479   3.599   1.174  0.5058 -0.2870  0.0866
 1683TIP3    H126540   0.569   3.575   1.194  0.5404 -0.3627 -0.1571
 1683TIP3    H226541   0.467   3.574   1.082  0.7610  1.2841 -0.3865
 1684TIP3   OH226542   3.835   5.564   1.988 -0.5573 -0.7518 -0.2035
 1684TIP3    H126543   3.928   5.545   1.980 -0.0565  1.5182 -0.1214
 1684TIP3    H226544   3.795   5.526   1.909  0.7786  0.3095 -1.4015
 1685TIP3   OH226545   4.237   6.021   0.385 -0.2062 -0.8302  0.5671
 1685TIP3    H126546   4.172   6.050   0.449 -0.4952 -1.7047  0.6898
 1685TIP3    H226547   4.197   6.040   0.300  0.4507  0.9225  0.6311
 1686TIP3   OH226548   6.478   4.818  12.442 -0.4575 -0.3781  0.3451
 1686TIP3    H126549   6.427   4.876  12.386 -0.4545 -1.3959 -0.7167
 1686TIP3    H226550   6.414   4.761  12.483 -0.4608  0.3633  1.4048
 1687TIP3   OH226551   3.051   5.876   2.755  0.2777  0.9229 -0.7526
 1687TIP3    H126552   3.078   5.966   2.737  0.8644  0.6922 -1.0751
 1687TIP3    H226553   3.102   5.851   2.832  0.6296  0.6476 -1.0686
 1688TIP3   OH226554   3.187   5.906   0.138 -0.2198 -0.5364 -0.4510
 1688TIP3    H126555   3.249   5.877   0.205  0.3187 -1.6756 -1.4180
 1688TIP3    H226556   3.122   5.958   0.186  0.0007 -1.5686  1.0000
 1689TIP3   OH226557   2.992   5.527   5.904 -0.2764 -0.1675  0.4520
 1689TIP3    H126558   3.036   5.567   5.829 -2.4883 -1.0632 -1.3798
 1689TIP3    H226559   2.961   5.601   5.957  2.8094  0.4776  1.4671
 1690TIP3   OH226560   5.778   6.354  11.725  0.3120 -0.0032  0.0897
 1690TIP3    H126561   5.775   6.258  11.727 -1.9327  0.0598  2.1035
 1690TIP3    H226562   5.773   6.380  11.817 -1.1852  2.0960 -0.5612
 1691TIP3   OH226563   2.674   2.030   1.760 -0.2808  0.1577  0.5869
 1691TIP3    H126564   2.715   1.951   1.726 -1.1611 -0.1927  0.3458
 1691TIP3    H226565   2.659   2.085   1.683 -0.9693 -0.0362  0.5840
 1692TIP3   OH226566   6.127   4.995   0.451 -0.4411 -0.4163  0.0503
 1692TIP3    H126567   6.168   5.041   0.525 -0.3746  2.0477 -1.4435
 1692TIP3    H226568   6.201   4.960   0.401 -0.0409  2.9805 -1.9725
 1693TIP3   OH226569   4.393   1.493  14.325  0.7006 -0.2583 -0.2107
 1693TIP3    H126570   4.316   1.484  14.268 -0.1665 -0.5176  0.9777
 1693TIP3    H226571   4.374   1.571  14.378  1.6088  0.1272 -0.4545
 1694TIP3   OH226572   1.690   0.794   0.535 -0.2752  0.2479 -0.0686
 1694TIP3    H126573   1.700   0.782   0.629  0.0269 -1.5953 -0.3253
 1694TIP3    H226574   1.608   0.749   0.513  0.1873 -0.2399 -0.8372
 1695TIP3   OH226575   4.765   2.369  11.228 -0.1936 -0.0859 -0.8027
 1695TIP3    H126576   4.837   2.310  11.205  0.4308  0.5358 -0.5054
 1695TIP3    H226577   4.802   2.457  11.215 -1.1366  0.2357 -1.3265
 1696TIP3   OH226578   3.360   1.258   3.962 -0.1699  0.5597 -0.0935
 1696TIP3    H126579   3.273   1.227   3.985 -0.5834  1.2334 -0.7099
 1696TIP3    H226580   3.405   1.180   3.929 -1.2255  0.5952 -1.7201
 1697TIP3   OH226581   3.202   0.954   4.975  0.1418 -0.1729 -0.5778
 1697TIP3    H126582   3.281   1.007   4.962 -0.6384  1.2092  0.1377
 1697TIP3    H226583   3.227   0.890   5.042 -0.0946  1.9577  1.6080
 1698TIP3   OH226584   6.052   0.044   6.752 -0.2813 -0.2743 -0.7839
 1698TIP3    H126585   5.966   0.022   6.717 -0.1740 -0.2763 -1.0409
 1698TIP3    H226586   6.058  -0.006   6.834  0.0282 -1.3238 -1.4452
 1699TIP3   OH226587   0.388   5.103   2.602 -0.3444 -0.0830 -0.1766
 1699TIP3    H126588   0.439   5.056   2.668  0.9047  2.1431  0.5019
 1699TIP3    H226589   0.411   5.061   2.520 -0.2322 -1.4702  0.5429
 1700TIP3   OH226590   6.100   0.972  13.788  0.0812  0.2434 -0.6431
 1700TIP3    H126591   6.157   1.049  13.794 -0.4162  0.5722 -0.1603
 1700TIP3    H226592   6.161   0.898  13.783  0.5539  0.5488  0.4355
 1701TIP3   OH226593   2.240   0.281  12.490  0.2381 -0.1012  0.0245
 1701TIP3    H126594   2.249   0.361  12.542  0.4508  0.3755 -0.7275
 1701TIP3    H226595   2.284   0.302  12.407 -0.8871 -0.5187 -0.6932
 1702TIP3   OH226596   5.416   4.462  13.600  0.5072  0.5261  0.1200
 1702TIP3    H126597   5.485   4.525  13.580  1.0071 -0.0245  0.1018
 1702TIP3    H226598   5.460   4.395  13.653 -0.2760  0.7909  1.1221
 1703TIP3   OH226599   2.348   2.889  14.101 -0.0039  0.2142 -0.6739
 1703TIP3    H126600   2.363   2.980  14.077 -0.5783  0.0956 -1.4896
 1703TIP3    H226601   2.412   2.840  14.049  1.0828  0.2352  0.6097
 1704TIP3   OH226602   0.755   3.310  16.376 -0.4827 -0.6991 -0.0539
 1704TIP3    H126603   0.846   3.281  16.372 -0.6020 -0.9774 -0.9834
 1704TIP3    H226604   0.711   3.261  16.306 -1.1605  0.0733 -0.1844
 1705TIP3   OH226605   5.019   5.484   4.412 -0.0083 -0.4491 -0.6052
 1705TIP3    H126606   5.064   5.405   4.441 -0.7819 -0.6876 -0.0246
 1705TIP3    H226607   5.011   5.538   4.491  0.3856  0.1480 -0.9681
 1706TIP3   OH226608   5.518   2.540   6.471 -0.3074 -0.1720 -0.0870
 1706TIP3    H126609   5.529   2.462   6.526  1.5862  0.1754  0.0649
 1706TIP3    H226610   5.567   2.520   6.391  0.8383  1.1723  0.2714
 1707TIP3   OH226611   4.154   3.583   3.936  0.4431  0.3825  0.8295
 1707TIP3    H126612   4.081   3.523   3.949  0.1792  0.8621  1.5498
 1707TIP3    H226613   4.215   3.535   3.880 -0.6291  0.1473 -0.1493
 1708TIP3   OH226614   6.358   2.182  15.144  0.2238 -0.3623  0.1790
 1708TIP3    H126615   6.309   2.263  15.160  0.4596 -0.0446 -0.7028
 1708TIP3    H226616   6.448   2.211  15.129  0.1138 -0.7032 -1.1645
 1709TIP3   OH226617   0.429   3.852   4.058 -0.1348 -0.0613  0.2634
 1709TIP3    H126618   0.487   3.927   4.070  0.1132 -0.0836 -0.7513
 1709TIP3    H226619   0.431   3.806   4.142 -0.1448  0.9658  0.8308
 1710TIP3   OH226620   4.728   6.686   3.958  0.3124  0.4855  0.1890
 1710TIP3    H126621   4.769   6.639   4.031  0.0299 -1.1076 -0.6520
 1710TIP3    H226622   4.750   6.778   3.973 -0.6048  0.3250  2.8451
 1711TIP3   OH226623   2.690   5.340   6.440  0.1967 -0.2352 -0.7441
 1711TIP3    H126624   2.667   5.247   6.446  1.3649 -0.5705 -1.2383
 1711TIP3    H226625   2.610   5.386   6.463  0.3738 -1.3683  2.4415
 1712TIP3   OH226626   3.589   3.012   6.600  0.3974 -0.5295 -0.3992
 1712TIP3    H126627   3.553   3.035   6.685 -0.2171 -1.8893 -0.2884
 1712TIP3    H226628   3.675   3.054   6.599 -0.1273  0.5921  0.3524
 1713TIP3   OH226629   5.034   4.074  13.476  0.1104  0.0237 -0.3797
 1713TIP3    H126630   5.062   4.024  13.400 -0.8788 -0.4349 -0.4436
 1713TIP3    H226631   5.031   4.010  13.547 -0.5022  0.1373 -0.3070
 1714TIP3   OH226632   0.885   1.463  15.426 -0.6683 -0.1905 -0.0219
 1714TIP3    H126633   0.850   1.552  15.420  0.2348  0.0734 -1.7237
 1714TIP3    H226634   0.916   1.455  15.517 -0.8534  1.1807  0.1657
 1715TIP3   OH226635   2.124   5.264   1.523  0.0639 -0.0260 -0.4557
 1715TIP3    H126636   2.140   5.262   1.429  0.0946  1.3771 -0.4939
 1715TIP3    H226637   2.033   5.236   1.532  0.1860 -0.5663 -0.8643
 1716TIP3   OH226638   6.184   6.015   1.777 -0.2949  0.3145  0.5374
 1716TIP3    H126639   6.092   5.997   1.798  0.5442 -1.0487  3.2744
 1716TIP3    H226640   6.213   6.074   1.847  1.0032  0.4781 -0.1271
 1717TIP3   OH226641   2.476   3.182  16.589  0.1895  0.2840 -0.3860
 1717TIP3    H126642   2.473   3.270  16.551  1.7826  0.0576 -1.0750
 1717TIP3    H226643   2.531   3.191  16.667  0.1862 -0.0561 -0.3420
 1718TIP3   OH226644   4.724   0.195   0.671 -0.5808 -0.2902  0.0453
 1718TIP3    H126645   4.729   0.164   0.580 -1.5449  0.7533 -0.3735
 1718TIP3    H226646   4.815   0.209   0.697 -0.3872  2.1911 -1.7552
 1719TIP3   OH226647   0.156   0.149  17.166 -0.1490  0.5494 -1.0325
 1719TIP3    H126648   0.078   0.102  17.193 -0.5902  1.7066 -0.2432
 1719TIP3    H226649   0.169   0.215  17.234  3.3761 -1.6425  0.5454
 1720TIP3   OH226650   1.241   6.175  17.048 -0.0895  0.3136 -0.6380
 1720TIP3    H126651   1.210   6.169  17.138 -0.5691  1.2435 -0.7375
 1720TIP3    H226652   1.254   6.084  17.020 -1.5358 -0.0378 -0.1910
 1721TIP3   OH226653   1.263   5.816  13.683  0.1291 -0.3998 -0.2870
 1721TIP3    H126654   1.274   5.911  13.685 -1.0263 -0.2792  1.0632
 1721TIP3    H226655   1.171   5.803  13.662  0.2773 -1.2275 -0.4432
 1722TIP3   OH226656   4.958   1.344  12.837 -0.0802 -0.5446  0.3226
 1722TIP3    H126657   4.938   1.412  12.772 -0.8079 -1.0096  0.0603
 1722TIP3    H226658   5.054   1.338  12.836  0.1446  2.0396  1.9497
 1723TIP3   OH226659   3.123   1.383   4.302  0.1336  0.3012 -0.3271
 1723TIP3    H126660   3.069   1.391   4.380  0.1408  0.9195 -0.3807
 1723TIP3    H226661   3.069   1.336   4.239 -0.3699  0.9675 -0.4003
 1724TIP3   OH226662   3.311   2.902  12.257 -0.4782  0.1565 -0.0753
 1724TIP3    H126663   3.407   2.902  12.262 -0.4743  3.5351  0.8799
 1724TIP3    H226664   3.286   2.813  12.284  2.3141 -0.2743  1.3074
 1725TIP3   OH226665   5.896   5.114   0.654  0.3044 -0.2437  0.5178
 1725TIP3    H126666   5.947   5.119   0.574  0.9437  1.4906  1.0017
 1725TIP3    H226667   5.955   5.072   0.718  0.7321  0.7024  0.7593
 1726TIP3   OH226668   0.681   6.701   3.127 -0.9019  0.1416  0.3873
 1726TIP3    H126669   0.758   6.645   3.131 -0.0752  1.3159  1.3995
 1726TIP3    H226670   0.683   6.740   3.040 -0.2421  0.3119  0.4788
 1727TIP3   OH226671   4.589   1.280  14.225  0.1976  0.7040 -0.0548
 1727TIP3    H126672   4.556   1.350  14.281  3.0496  2.0845 -0.0259
 1727TIP3    H226673   4.574   1.312  14.136  0.5034  0.8788 -0.0448
 1728TIP3   OH226674   2.487   4.253  16.900 -0.9066  0.1551  0.3701
 1728TIP3    H126675   2.482   4.278  16.807  0.0924 -0.7956  0.0510
 1728TIP3    H226676   2.399   4.266  16.933 -0.9111  2.0468 -0.3196
 1729TIP3   OH226677   1.502   0.050   0.558 -0.2851 -1.0399 -0.0469
 1729TIP3    H126678   1.447  -0.002   0.616  0.6949  0.5280  2.3564
 1729TIP3    H226679   1.442   0.080   0.489 -1.5040 -2.7663  0.2404
 1730TIP3   OH226680   5.371   4.574   4.172  0.4329 -0.1591  0.1435
 1730TIP3    H126681   5.392   4.523   4.250 -0.9009  2.0223  2.0179
 1730TIP3    H226682   5.383   4.665   4.199 -1.2192  0.6948 -1.8120
 1731TIP3   OH226683   0.554   3.992  12.431 -0.0115 -0.1032  0.4226
 1731TIP3    H126684   0.532   3.905  12.397 -0.6732 -0.7141  2.3602
 1731TIP3    H226685   0.477   4.046  12.412 -0.4677 -0.4984  1.1264
 1732TIP3   OH226686   5.635   5.071   0.344  0.0160  0.1248 -0.2111
 1732TIP3    H126687   5.655   4.978   0.357  2.2318  0.7164  0.6886
 1732TIP3    H226688   5.685   5.095   0.266  0.0680  0.7602  0.0215
 1733TIP3   OH226689   2.563   0.126   2.303 -0.0240  0.2481  0.4320
 1733TIP3    H126690   2.653   0.093   2.298  0.0902  0.4287  1.3233
 1733TIP3    H226691   2.511   0.061   2.257  0.6694  0.5310 -0.7786
 1734TIP3   OH226692   1.239   0.883  15.242  0.0968 -1.0788  0.3447
 1734TIP3    H126693   1.219   0.863  15.150 -0.5773 -1.1759  0.5122
 1734TIP3    H226694   1.271   0.973  15.239 -1.5668 -0.4774  0.2279
 1735TIP3   OH226695   1.969   5.171   2.136  0.0424  0.6771 -0.5740
 1735TIP3    H126696   2.042   5.123   2.095 -0.5347  1.2828 -2.3560
 1735TIP3    H226697   1.909   5.103   2.165  1.1176  0.1863  0.5734
 1736TIP3   OH226698   0.987   0.817  11.438  0.2109 -0.2962  0.0734
 1736TIP3    H126699   0.936   0.764  11.499  1.0489 -1.4148 -0.1913
 1736TIP3    H226700   0.983   0.906  11.475  0.4133 -0.8902  1.5714
 1737TIP3   OH226701   4.608   2.829   2.713  0.0288  0.0375 -0.0955
 1737TIP3    H126702   4.676   2.896   2.700 -2.5327  2.5646 -0.9102
 1737TIP3    H226703   4.571   2.848   2.799  0.5236 -1.5348  0.4863
 1738TIP3   OH226704   1.246   0.289  16.099 -0.2606 -0.1608  0.1591
 1738TIP3    H126705   1.195   0.350  16.045  0.3716  0.2461  0.0283
 1738TIP3    H226706   1.180   0.244  16.152 -0.8516 -0.2544 -0.6334
 1739TIP3   OH226707   3.420   5.580  16.552  0.1663 -0.7563 -0.1410
 1739TIP3    H126708   3.481   5.531  16.496 -0.1777 -0.1748 -1.0434
 1739TIP3    H226709   3.413   5.666  16.510  0.7604  0.0684  1.4215
 1740TIP3   OH226710   4.860   4.723  15.750  0.4082  0.0546 -0.2449
 1740TIP3    H126711   4.818   4.653  15.800  1.7872  0.2316  1.1933
 1740TIP3    H226712   4.899   4.679  15.674  0.1571 -0.5357 -0.0321
 1741TIP3   OH226713   6.149   5.465   2.624  0.3190 -0.3696  0.3264
 1741TIP3    H126714   6.159   5.494   2.715 -1.5285 -0.9295  0.7317
 1741TIP3    H226715   6.193   5.380   2.621  0.9265 -0.0640  0.5360
 1742TIP3   OH226716   0.512   4.566  12.112  0.3177 -0.4620  0.6357
 1742TIP3    H126717   0.520   4.504  12.185  1.8735 -1.8208 -0.6277
 1742TIP3    H226718   0.580   4.538  12.050 -0.4765  1.1269 -0.9946
 1743TIP3   OH226719   6.690   5.603   3.939  0.1337  0.3027  0.0819
 1743TIP3    H126720   6.747   5.526   3.933  0.6499  0.7236 -0.3949
 1743TIP3    H226721   6.741   5.674   3.900 -0.4945  0.8044  0.1710
 1744TIP3   OH226722   2.190   0.060  15.638 -0.1859 -0.1244  0.0265
 1744TIP3    H126723   2.237   0.052  15.555  0.0128  4.0928 -0.3915
 1744TIP3    H226724   2.108   0.103  15.615 -0.1064  1.1526  1.9837
 1745TIP3   OH226725   4.337   1.639   4.859 -0.1985 -0.0157 -0.7041
 1745TIP3    H126726   4.254   1.598   4.835 -1.8852  1.3392  2.5260
 1745TIP3    H226727   4.341   1.633   4.954  2.5082  1.7024 -0.6288
 1746TIP3   OH226728   0.639   0.006   2.843  0.5881  0.3767 -0.3808
 1746TIP3    H126729   0.618  -0.084   2.820 -1.5829  0.2303  1.9031
 1746TIP3    H226730   0.719   0.026   2.795  1.4412 -2.9738 -0.4509
 1747TIP3   OH226731   0.554   0.550   5.275  0.3099 -0.3049  0.2694
 1747TIP3    H126732   0.528   0.627   5.225 -1.6774 -0.5630  0.8730
 1747TIP3    H226733   0.600   0.495   5.211 -0.1563  0.4138 -0.7001
 1748TIP3   OH226734   6.184   4.123  13.224 -0.1506  0.2963 -0.2288
 1748TIP3    H126735   6.220   4.135  13.136  0.5264 -1.4422 -0.2045
 1748TIP3    H226736   6.166   4.029  13.230 -1.7978  0.6627  0.8802
 1749TIP3   OH226737   1.344   2.685  15.781  0.6641  0.1056  0.3463
 1749TIP3    H126738   1.275   2.650  15.725  1.7811 -2.0064  0.2607
 1749TIP3    H226739   1.318   2.776  15.796 -0.6053  0.1749 -2.0625
 1750TIP3   OH226740   5.704   6.579   3.463  0.4288  0.0392 -0.0681
 1750TIP3    H126741   5.614   6.562   3.489  0.4101  0.0184 -0.1462
 1750TIP3    H226742   5.724   6.664   3.503  0.9573 -0.7618  1.3970
 1751TIP3   OH226743   1.255   4.642   1.949  0.5056  1.0059 -0.0464
 1751TIP3    H126744   1.236   4.621   1.858 -0.3885  0.2246  0.3030
 1751TIP3    H226745   1.179   4.691   1.979 -0.1424 -0.5168  0.8465
 1752TIP3   OH226746   6.414   3.411   2.907  0.0911 -0.6781  0.3758
 1752TIP3    H126747   6.406   3.491   2.959 -0.3039 -0.5536  0.1223
 1752TIP3    H226748   6.346   3.419   2.840  0.6258 -0.8131 -0.1875
 1753TIP3   OH226749   5.239   5.751  10.534 -0.1200  0.4978  0.1476
 1753TIP3    H126750   5.236   5.818  10.466  1.2197 -0.9694 -1.4239
 1753TIP3    H226751   5.155   5.705  10.527  0.9520 -1.2345 -2.2623
 1754TIP3   OH226752   6.214   5.137   5.336 -0.2152 -0.2596 -1.0836
 1754TIP3    H126753   6.199   5.228   5.361 -1.9274 -0.7569 -0.2930
 1754TIP3    H226754   6.281   5.142   5.268  1.5130  1.4040  0.6860
 1755TIP3   OH226755   2.214   0.297   1.940 -0.3462  0.2482 -0.0770
 1755TIP3    H126756   2.224   0.295   2.036  0.1853  1.2735 -0.1005
 1755TIP3    H226757   2.203   0.206   1.915 -0.7033 -0.0129  0.9926
 1756TIP3   OH226758   0.450   5.646  13.327  0.3050 -0.1982 -0.6530
 1756TIP3    H126759   0.545   5.640  13.340  0.2015 -0.4189  0.0365
 1756TIP3    H226760   0.440   5.695  13.246  0.9783  1.5635  0.2903
 1757TIP3   OH226761   4.022   2.809   1.170  0.5683 -0.4054 -0.0938
 1757TIP3    H126762   3.958   2.863   1.217  1.2241  1.1509 -0.9283
 1757TIP3    H226763   3.968   2.748   1.120 -0.2521  0.2153  0.0005
 1758TIP3   OH226764   6.074   4.973   0.840 -0.4256  0.0170  0.0241
 1758TIP3    H126765   6.046   5.025   0.915  0.3301 -1.3820  1.2888
 1758TIP3    H226766   6.169   4.967   0.848 -0.3121  0.0755 -1.1850
 1759TIP3   OH226767   0.492   2.134  13.756  0.2056 -0.7984 -0.1668
 1759TIP3    H126768   0.450   2.068  13.811  0.6520  0.5069  1.7975
 1759TIP3    H226769   0.430   2.149  13.685 -0.9172 -1.6784  0.6081
 1760TIP3   OH226770   6.807   6.356  12.060  0.4634  0.2047 -0.1046
 1760TIP3    H126771   6.802   6.446  12.028 -0.4911 -0.6696 -2.5678
 1760TIP3    H226772   6.731   6.346  12.116 -0.7296  0.2774 -1.6738
 1761TIP3   OH226773   0.494   4.930   1.098  0.4418  0.6904  0.1049
 1761TIP3    H126774   0.581   4.936   1.059  0.1513  1.4104 -0.4256
 1761TIP3    H226775   0.433   4.950   1.027 -0.1440  0.6484  0.5868
 1762TIP3   OH226776   6.463   1.742  15.420  0.5565  0.2026  0.0981
 1762TIP3    H126777   6.502   1.826  15.443  0.3056  0.7303 -1.3322
 1762TIP3    H226778   6.472   1.737  15.325  0.1831 -1.1980  0.1266
 1763TIP3   OH226779   4.009   5.837   3.757 -0.3976 -0.1502  0.1957
 1763TIP3    H126780   4.069   5.909   3.774  0.5929 -1.0916  0.7556
 1763TIP3    H226781   4.045   5.792   3.681 -1.2789  0.2272 -0.4542
 1764TIP3   OH226782   6.559   1.453   3.892  0.0231 -0.8264 -0.0728
 1764TIP3    H126783   6.524   1.540   3.914  1.8988  0.2619 -1.3089
 1764TIP3    H226784   6.612   1.429   3.968 -2.1352 -1.8401  1.1711
 1765TIP3   OH226785   2.623   3.505  11.985 -0.3418  0.0082 -0.1876
 1765TIP3    H126786   2.716   3.525  11.981  0.0073 -0.9615  2.3563
 1765TIP3    H226787   2.599   3.484  11.894  1.6875  1.0895 -1.0080
 1766TIP3   OH226788   2.059   2.880  15.132 -0.6435  0.3246  0.0593
 1766TIP3    H126789   1.996   2.866  15.203 -1.1941  1.8801 -0.1060
 1766TIP3    H226790   2.145   2.867  15.173 -0.9480  1.3808  1.0536
 1767TIP3   OH226791   2.523   4.267   4.263  0.3834  0.2207 -0.6593
 1767TIP3    H126792   2.542   4.184   4.306  0.3534 -1.2360 -3.3020
 1767TIP3    H226793   2.592   4.326   4.294  1.3517 -1.2434  0.0555
 1768TIP3   OH226794   2.655   2.835  14.153 -0.7087  0.1008  0.3636
 1768TIP3    H126795   2.624   2.821  14.242 -2.3048  0.5528 -0.1166
 1768TIP3    H226796   2.721   2.766  14.139 -2.0766 -1.3784  1.1106
 1769TIP3   OH226797   5.916   0.060   4.143 -0.3318 -0.0047 -0.1359
 1769TIP3    H126798   5.892   0.107   4.223 -0.0728  0.2844 -0.2265
 1769TIP3    H226799   5.846   0.080   4.081  1.5163  3.1633 -1.3367
 1770TIP3   OH226800   3.714   1.100   1.828 -0.4195 -0.1539  0.4062
 1770TIP3    H126801   3.640   1.131   1.775 -0.3492  0.4302  0.6393
 1770TIP3    H226802   3.712   1.156   1.906  0.2452 -0.1613  0.4305
 1771TIP3   OH226803   0.595   4.124  16.739 -0.2428  1.2936 -0.6047
 1771TIP3    H126804   0.683   4.159  16.722 -0.6774  1.7448 -2.0236
 1771TIP3    H226805   0.576   4.151  16.828  2.0865 -1.0350  0.6683
 1772TIP3   OH226806   1.135   6.542  11.421  0.6681  0.0029  0.0204
 1772TIP3    H126807   1.042   6.550  11.398  0.6554 -1.3128 -0.4627
 1772TIP3    H226808   1.144   6.451  11.450  1.5558  0.4728  1.2423
 1773TIP3   OH226809   1.270   5.701   2.376 -0.5284 -0.0538  0.1689
 1773TIP3    H126810   1.348   5.737   2.335 -0.4134 -1.2912 -0.7260
 1773TIP3    H226811   1.200   5.763   2.353  0.0444  0.6406  0.3169
 1774TIP3   OH226812   6.542   5.823   5.136  0.5649  0.6276 -0.5838
 1774TIP3    H126813   6.518   5.898   5.189  0.1327  0.0696  0.0124
 1774TIP3    H226814   6.614   5.854   5.082  0.1613  1.5727 -0.5902
 1775TIP3   OH226815   6.040   0.176   2.718  0.0998  0.1062  0.3749
 1775TIP3    H126816   5.970   0.222   2.765 -2.3637 -1.8472 -1.3039
 1775TIP3    H226817   6.092   0.135   2.787 -3.6331 -2.9926  1.5381
 1776TIP3   OH226818   4.482   1.735   4.530 -0.8234  0.5985 -0.6078
 1776TIP3    H126819   4.444   1.651   4.506 -0.5458  0.3199 -0.0885
 1776TIP3    H226820   4.508   1.724   4.621 -0.0881  0.9963 -0.7680
 1777TIP3   OH226821   1.573   2.559  13.748 -0.1272  0.3056  0.2653
 1777TIP3    H126822   1.634   2.531  13.816 -0.9407  0.4973  1.0871
 1777TIP3    H226823   1.590   2.500  13.674  3.1309  2.2129 -0.6478
 1778TIP3   OH226824   0.444   0.273  12.159 -0.8490  0.6317 -0.2730
 1778TIP3    H126825   0.489   0.331  12.098 -0.9541  0.6648 -0.3181
 1778TIP3    H226826   0.370   0.324  12.190  0.4121  1.4080  1.5299
 1779TIP3   OH226827   3.269   2.686  13.632  0.2136 -0.3042  0.0998
 1779TIP3    H126828   3.333   2.624  13.667 -1.0053 -2.0202 -0.6469
 1779TIP3    H226829   3.245   2.650  13.547 -0.9947  0.8656 -0.0636
 1780TIP3   OH226830   4.107   2.774  16.855  0.4708  0.8286 -0.1070
 1780TIP3    H126831   4.037   2.838  16.842 -0.1165  0.2796  0.3223
 1780TIP3    H226832   4.088   2.735  16.940  0.6747 -0.1150 -0.4935
 1781TIP3   OH226833   1.601   0.041  13.263 -0.0813 -0.1679 -0.5068
 1781TIP3    H126834   1.666  -0.016  13.222  0.2874  0.2336 -0.4834
 1781TIP3    H226835   1.652   0.101  13.317 -0.4514  0.3253 -0.6980
 1782TIP3   OH226836   6.110   2.997  16.099  0.1221 -0.8067  0.1143
 1782TIP3    H126837   6.087   2.910  16.132  0.9875 -1.2055 -0.3327
 1782TIP3    H226838   6.204   3.004  16.112  0.0694  0.0230  0.0466
 1783TIP3   OH226839   1.792   4.817  16.951 -0.4641 -0.5516  0.0212
 1783TIP3    H126840   1.862   4.763  16.915  1.3999  2.0716 -0.3618
 1783TIP3    H226841   1.822   4.841  17.039 -0.4494  1.2910 -0.4646
 1784TIP3   OH226842   0.262   6.041   2.174  0.2531 -0.2164 -0.0139
 1784TIP3    H126843   0.355   6.059   2.158 -0.0688  1.9259  0.4401
 1784TIP3    H226844   0.218   6.125   2.161 -1.2786 -0.5792  2.3836
 1785TIP3   OH226845   4.972   1.843  10.907 -0.1204 -0.2645 -0.1374
 1785TIP3    H126846   4.933   1.928  10.931 -0.2569  0.1935 -1.9288
 1785TIP3    H226847   5.056   1.866  10.867  0.0799 -1.0117 -0.1404
 1786TIP3   OH226848   4.708   1.934  14.947  0.7573  0.2148  0.6318
 1786TIP3    H126849   4.695   1.957  14.855 -0.2461 -1.5377  0.3148
 1786TIP3    H226850   4.628   1.963  14.991  0.4757 -0.5507  0.6319
 1787TIP3   OH226851   0.983   2.484  16.855  0.4692  0.8250  0.3693
 1787TIP3    H126852   0.959   2.459  16.944 -0.4260  0.3934  0.0054
 1787TIP3    H226853   0.901   2.485  16.807  1.3067 -2.1659 -1.2627
 1788TIP3   OH226854   1.027   3.057   0.774  0.2389  0.0084  0.0838
 1788TIP3    H126855   1.076   2.999   0.716  0.6196  0.0359  0.3738
 1788TIP3    H226856   0.965   3.000   0.819 -0.3029  0.0470 -0.6167
 1789TIP3   OH226857   0.881   3.218  11.667  0.0440  0.3122  0.1594
 1789TIP3    H126858   0.952   3.155  11.683 -1.1533 -0.6364  1.9445
 1789TIP3    H226859   0.875   3.224  11.572  0.9089 -1.4532 -0.0205
 1790TIP3   OH226860   5.685   1.221  15.550  0.0743  0.4654 -0.0989
 1790TIP3    H126861   5.736   1.243  15.472  0.6448 -3.2309 -0.8741
 1790TIP3    H226862   5.623   1.155  15.520  0.3911 -1.1360  2.5605
 1791TIP3   OH226863   5.535   1.643   1.937 -0.0167 -0.3224  0.4237
 1791TIP3    H126864   5.586   1.710   1.891 -1.2472  0.1243 -0.2831
 1791TIP3    H226865   5.480   1.692   1.998  1.8285 -0.9188  2.6628
 1792TIP3   OH226866   4.739   2.614   4.372 -0.0970  0.6561 -0.0423
 1792TIP3    H126867   4.754   2.706   4.392  0.4796  0.5246  0.1429
 1792TIP3    H226868   4.782   2.566   4.443  2.7330  0.1600 -2.0164
 1793TIP3   OH226869   3.248   6.377   4.444 -0.5253  0.4530 -0.3848
 1793TIP3    H126870   3.334   6.355   4.408 -0.3144  1.6007 -0.6070
 1793TIP3    H226871   3.267   6.438   4.516 -1.1245  0.4147 -0.1934
 1794TIP3   OH226872   4.809   1.432  10.678  0.1920 -0.2802 -0.3397
 1794TIP3    H126873   4.805   1.506  10.738 -0.4238 -0.1645 -0.5213
 1794TIP3    H226874   4.885   1.450  10.622  0.9882 -0.5731  0.6397
 1795TIP3   OH226875   2.049   5.373  11.937 -0.1680 -0.3302 -0.0474
 1795TIP3    H126876   1.966   5.369  11.984 -1.1280  0.0071 -1.6427
 1795TIP3    H226877   2.100   5.300  11.970 -2.0055 -1.9279 -0.6752
 1796TIP3   OH226878   0.413   1.941  13.104  0.0136  0.4270 -0.4589
 1796TIP3    H126879   0.392   1.860  13.057  1.4587 -0.4976  0.4319
 1796TIP3    H226880   0.329   1.970  13.140 -1.0429  0.9365 -3.2177
 1797TIP3   OH226881   5.190   0.386   5.774  0.1636 -0.4203 -0.4882
 1797TIP3    H126882   5.187   0.419   5.864 -0.3165 -0.2843 -0.5565
 1797TIP3    H226883   5.102   0.401   5.740  0.1343 -1.1522 -0.7384
 1798TIP3   OH226884   3.662   2.923   0.113  0.2745  0.8286  0.0141
 1798TIP3    H126885   3.605   2.925   0.190 -0.5206 -0.1503 -0.5351
 1798TIP3    H226886   3.745   2.958   0.144  0.7333 -1.8281  1.9898
 1799TIP3   OH226887   4.223   2.664  11.672  0.2093  0.1281 -0.5642
 1799TIP3    H126888   4.313   2.692  11.691  0.5823 -0.5246 -1.3225
 1799TIP3    H226889   4.168   2.722  11.726  1.0333  1.1730 -0.8180
 1800TIP3   OH226890   5.646   0.008   0.210 -0.5630 -0.2288 -0.2817
 1800TIP3    H126891   5.717   0.016   0.146 -0.6921  1.2583 -0.2690
 1800TIP3    H226892   5.689   0.023   0.294 -0.3552 -2.3962  0.0208
 1801TIP3   OH226893   6.569   4.522  14.104 -0.5980  0.3672 -0.1042
 1801TIP3    H126894   6.518   4.590  14.148 -0.4206  0.7094 -0.4267
 1801TIP3    H226895   6.504   4.470  14.056 -0.5409  1.3562 -1.2537
 1802TIP3   OH226896   3.913   5.914  12.415  0.1481  0.1445 -0.6722
 1802TIP3    H126897   3.847   5.873  12.470 -0.9825  0.9328 -1.4388
 1802TIP3    H226898   3.956   5.978  12.473  0.9241 -1.0577  0.1000
 1803TIP3   OH226899   6.128   5.674  14.236  0.0920 -0.6862  0.5849
 1803TIP3    H126900   6.078   5.749  14.206 -1.8198 -2.3876 -0.6014
 1803TIP3    H226901   6.133   5.685  14.331  1.0557  1.6434  0.2925
 1804TIP3   OH226902   2.908   3.508   1.656 -0.0553 -0.0041 -0.2666
 1804TIP3    H126903   2.980   3.514   1.594 -0.6981 -0.7709 -1.1057
 1804TIP3    H226904   2.947   3.529   1.741  0.7201  1.5391 -0.9967
 1805TIP3   OH226905   0.028   4.622   2.306  0.2253 -0.2188  0.3068
 1805TIP3    H126906   0.027   4.637   2.401  0.6021  0.0419  0.2715
 1805TIP3    H226907  -0.036   4.684   2.271 -1.8643 -2.1495  0.6468
 1806TIP3   OH226908   1.243   1.234   3.859 -0.3987 -0.2301 -0.1272
 1806TIP3    H126909   1.333   1.206   3.844 -0.0188  0.4497  0.8110
 1806TIP3    H226910   1.233   1.314   3.807 -0.5409 -0.4610 -0.4509
 1807TIP3   OH226911   4.657   3.813  16.407  0.2636 -0.3323 -0.5118
 1807TIP3    H126912   4.740   3.837  16.368  0.7135 -1.4118 -0.2357
 1807TIP3    H226913   4.625   3.740  16.355  0.9246 -1.8592  1.1722
 1808TIP3   OH226914   5.719   0.664   0.120  0.0056 -0.8656 -0.8834
 1808TIP3    H126915   5.788   0.603   0.146 -1.0521 -2.2621 -1.2415
 1808TIP3    H226916   5.639   0.624   0.155 -0.8603 -0.3299 -2.2355
 1809TIP3   OH226917   2.300   0.631   2.047 -0.2181  0.7365  0.0113
 1809TIP3    H126918   2.220   0.626   2.099  0.2843  0.2026  0.7472
 1809TIP3    H226919   2.271   0.620   1.956 -0.9651  0.4764  0.2821
 1810TIP3   OH226920   5.174   5.446  15.836 -0.1666 -0.3420 -0.7889
 1810TIP3    H126921   5.221   5.444  15.752  0.7655  0.4524 -0.2920
 1810TIP3    H226922   5.193   5.533  15.872 -0.8166 -0.5670  0.1055
 1811TIP3   OH226923   3.549   2.476  16.653  0.3328  0.4766 -0.0316
 1811TIP3    H126924   3.554   2.387  16.688  3.0686 -0.3139 -2.1497
 1811TIP3    H226925   3.456   2.491  16.637 -0.0666 -2.6322 -1.0409
 1812TIP3   OH226926   6.446   2.627   3.297  0.0370  0.1287  0.7333
 1812TIP3    H126927   6.458   2.693   3.365  0.7516  0.7580  0.0128
 1812TIP3    H226928   6.407   2.552   3.342 -1.3277  1.2459  1.4617
 1813TIP3   OH226929   4.268   4.075   5.606 -0.1065 -0.0695  0.0253
 1813TIP3    H126930   4.309   4.157   5.580  1.2969  0.1212  2.6662
 1813TIP3    H226931   4.176   4.083   5.577  0.5816  1.3764 -1.8726
 1814TIP3   OH226932   6.443   0.194   0.273 -0.2051 -0.0639  0.2081
 1814TIP3    H126933   6.484   0.261   0.328 -0.4589  0.4713 -0.2480
 1814TIP3    H226934   6.435   0.235   0.187 -2.1373  0.0221  0.3999
 1815TIP3   OH226935   0.539   1.042  11.115 -0.2787  0.1369 -0.4110
 1815TIP3    H126936   0.533   0.989  11.036  2.1978 -1.2175  0.2395
 1815TIP3    H226937   0.626   1.082  11.111  1.1901 -2.3797  3.0108
 1816TIP3   OH226938   3.404   4.132  12.092 -0.0732 -0.4370 -0.0500
 1816TIP3    H126939   3.329   4.080  12.121  0.4767 -1.0633  0.2713
 1816TIP3    H226940   3.470   4.067  12.066  1.2550  0.0587  1.9674
 1817TIP3   OH226941   6.225   5.425   1.714 -0.3260  0.1020 -0.2875
 1817TIP3    H126942   6.192   5.368   1.645 -0.6954 -1.4603  1.1444
 1817TIP3    H226943   6.181   5.394   1.794  1.6597  0.5264  0.9946
 1818TIP3   OH226944   6.533   3.779   0.550  0.6531 -0.3017 -0.3452
 1818TIP3    H126945   6.444   3.801   0.577  0.1753 -2.2627 -0.1889
 1818TIP3    H226946   6.542   3.686   0.572  3.1260  0.1382  0.6526
 1819TIP3   OH226947   4.270   6.775  11.918 -0.5708  0.4422 -0.2597
 1819TIP3    H126948   4.331   6.822  11.974  0.5615 -1.1527 -0.1175
 1819TIP3    H226949   4.221   6.719  11.978  1.1206 -1.7889 -0.8880
 1820TIP3   OH226950   0.604   0.886  16.950 -0.6199  0.2893 -0.0383
 1820TIP3    H126951   0.540   0.838  17.004 -0.7566 -0.3886 -0.7854
 1820TIP3    H226952   0.555   0.961  16.918 -0.2024  1.3263  1.7090
 1821TIP3   OH226953   4.809   2.914   0.268 -0.2010  0.3729 -0.0795
 1821TIP3    H126954   4.833   2.964   0.347  0.9014  0.6410 -0.5771
 1821TIP3    H226955   4.766   2.836   0.302 -0.8053  1.0440  0.7530
 1822TIP3   OH226956   0.925   3.401   0.444  0.7507 -0.0956  0.2925
 1822TIP3    H126957   0.984   3.474   0.427 -1.5539  1.1058 -2.9641
 1822TIP3    H226958   0.945   3.337   0.376 -0.5185 -0.3848  0.1763
 1823TIP3   OH226959   5.458   0.020   3.122  0.2486  0.0115 -0.1519
 1823TIP3    H126960   5.376   0.024   3.072  1.0509  0.2813 -1.4808
 1823TIP3    H226961   5.515  -0.035   3.069 -0.6286 -4.3096  3.1518
 1824TIP3   OH226962   6.409   3.768  12.110  0.5731  0.0652 -0.9877
 1824TIP3    H126963   6.330   3.775  12.164  2.0037  1.5331  0.9604
 1824TIP3    H226964   6.461   3.700  12.152  2.5313  2.4973  0.6486
 1825TIP3   OH226965   6.045   6.817   6.442  0.7146  0.3628 -0.2456
 1825TIP3    H126966   5.988   6.888   6.414  1.1463  1.2480  1.1009
 1825TIP3    H226967   6.111   6.859   6.497  1.0167 -1.0712  0.5068
 1826TIP3   OH226968   6.794   6.008   5.460 -0.0575 -0.2429  0.0654
 1826TIP3    H126969   6.831   5.939   5.406  0.3135 -0.3541  0.4668
 1826TIP3    H226970   6.855   6.081   5.452 -1.8419  1.0644 -2.6289
 1827TIP3   OH226971   4.838   6.098  13.268 -0.8226  0.7035  0.5968
 1827TIP3    H126972   4.824   6.171  13.208  4.1606  0.4058 -1.2075
 1827TIP3    H226973   4.929   6.108  13.296 -1.4689 -2.1540  4.0635
 1828TIP3   OH226974   6.274   5.739  15.663  0.3753  0.1893 -0.6869
 1828TIP3    H126975   6.313   5.714  15.580 -0.4289 -1.8357 -0.4714
 1828TIP3    H226976   6.323   5.689  15.729 -0.2635  0.3193 -0.1077
 1829TIP3   OH226977   2.388   6.481  13.902 -0.5986  0.1452 -0.0302
 1829TIP3    H126978   2.387   6.507  13.809  0.4045  1.8082  0.4034
 1829TIP3    H226979   2.359   6.390  13.901 -0.3347  0.0504 -2.0195
 1830TIP3   OH226980   0.836   2.516   3.435 -0.7942  0.3069 -0.1705
 1830TIP3    H126981   0.893   2.471   3.498 -1.3137 -0.2752 -0.1113
 1830TIP3    H226982   0.798   2.589   3.485 -0.8141  0.1456  0.0500
 1831TIP3   OH226983   1.809   6.176   5.631 -0.0363 -0.0883  0.0467
 1831TIP3    H126984   1.756   6.126   5.693  1.5583 -1.5849  0.2273
 1831TIP3    H226985   1.870   6.113   5.595  1.0330  1.4204 -0.8401
 1832TIP3   OH226986   3.072   2.465  14.754  0.2131 -0.3939  0.3333
 1832TIP3    H126987   3.113   2.400  14.811  0.8933  0.3026  0.6648
 1832TIP3    H226988   2.978   2.449  14.763  0.3975 -1.8679 -0.2557
 1833TIP3   OH226989   1.899   4.327  16.858  0.1378  0.5425 -0.2179
 1833TIP3    H126990   1.931   4.406  16.902  0.3704  0.1223  0.3733
 1833TIP3    H226991   1.817   4.353  16.817  0.0643  1.0103  0.2314
 1834TIP3   OH226992   3.826   1.744   1.157  0.6388  0.2906 -0.2077
 1834TIP3    H126993   3.803   1.797   1.233 -0.9138 -1.4688  0.5881
 1834TIP3    H226994   3.844   1.657   1.193  1.9184 -0.0404 -1.6241
 1835TIP3   OH226995   0.557   4.395  15.944 -0.0777  0.1085  0.9084
 1835TIP3    H126996   0.569   4.322  16.004 -1.1875  1.0677  2.3536
 1835TIP3    H226997   0.561   4.473  16.000 -2.4888  0.9681 -0.0221
 1836TIP3   OH226998   5.912   1.228  12.524  0.4865 -0.3878  0.1569
 1836TIP3    H126999   5.917   1.238  12.619  0.1662  0.6314  0.0720
 1836TIP3    H227000   5.927   1.316  12.490  1.6651 -0.9397 -0.7811
 1837TIP3   OH227001   5.680   6.368  11.038 -0.5052 -0.0210 -0.5490
 1837TIP3    H127002   5.705   6.400  10.951  1.4184 -1.7388 -0.6568
 1837TIP3    H227003   5.713   6.279  11.041  0.6100  0.4536  2.4639
 1838TIP3   OH227004   2.324   5.165  11.510  0.3088  0.1387  0.2888
 1838TIP3    H127005   2.379   5.130  11.580  0.6557  0.1183  0.0085
 1838TIP3    H227006   2.330   5.260  11.519 -0.7819  0.1374  1.1704
 1839TIP3   OH227007   5.051   4.637  12.205 -1.1974 -0.0917  0.0412
 1839TIP3    H127008   4.973   4.593  12.237 -0.9341 -1.4894 -1.1895
 1839TIP3    H227009   5.020   4.693  12.133 -1.0892 -0.4856 -0.3094
 1840TIP3   OH227010   4.712   0.967   5.186  0.7001 -0.0901  0.0730
 1840TIP3    H127011   4.745   1.004   5.104 -0.5745  2.1230  0.5010
 1840TIP3    H227012   4.747   1.025   5.254  0.1250 -0.7278  0.9135
 1841TIP3   OH227013   0.438   5.483   1.223 -0.0072  0.1219 -0.3312
 1841TIP3    H127014   0.403   5.405   1.181  1.1979 -0.6369  0.0507
 1841TIP3    H227015   0.465   5.454   1.310  0.1698  1.0357 -0.0676
 1842TIP3   OH227016   5.521   1.709  15.652 -0.7625 -0.0300  0.2742
 1842TIP3    H127017   5.544   1.778  15.590  2.1301 -0.4607  0.7660
 1842TIP3    H227018   5.501   1.633  15.598  0.9050 -0.1594 -0.2046
 1843TIP3   OH227019   5.229   1.117  16.942 -0.3434 -0.0502  0.2076
 1843TIP3    H127020   5.274   1.175  17.003 -0.0816  2.9740 -2.6578
 1843TIP3    H227021   5.136   1.131  16.959 -0.2815  1.2873 -0.4479
 1844TIP3   OH227022   1.942   6.266  13.132  0.0100 -0.5926 -0.3214
 1844TIP3    H127023   2.001   6.228  13.067 -0.4189 -1.0659 -0.4358
 1844TIP3    H227024   1.990   6.342  13.166  0.9739 -1.3797  0.1049
 1845TIP3   OH227025   6.719   3.238   3.453 -0.3019 -0.5105  0.0369
 1845TIP3    H127026   6.652   3.240   3.521 -0.2979  0.4551  0.0184
 1845TIP3    H227027   6.703   3.156   3.406  0.5241 -1.8614  2.0250
 1846TIP3   OH227028   3.204   2.566  10.844 -0.2669  0.1005  0.5779
 1846TIP3    H127029   3.180   2.475  10.865 -0.5397  0.2136  0.7625
 1846TIP3    H227030   3.270   2.589  10.909 -0.7331  0.2771  0.9980
 1847TIP3   OH227031   1.827   4.624   2.803 -0.2814 -0.4477  0.4281
 1847TIP3    H127032   1.920   4.631   2.824  0.4238 -1.5265 -2.0632
 1847TIP3    H227033   1.817   4.675   2.722 -2.0443  0.4285  1.1726
 1848TIP3   OH227034   2.096   1.763  16.096 -0.4963  0.9788 -0.2108
 1848TIP3    H127035   2.001   1.765  16.094 -0.4948  0.4454 -1.3602
 1848TIP3    H227036   2.119   1.757  16.189 -1.6221 -0.8894 -0.0421
 1849TIP3   OH227037   4.037   4.302   0.235 -0.6672 -0.3216  0.0015
 1849TIP3    H127038   4.030   4.244   0.159 -0.1945  0.5734 -0.7268
 1849TIP3    H227039   4.122   4.281   0.273 -0.3388  0.1492 -0.4724
 1850TIP3   OH227040   0.886   1.176   3.543 -0.2139  0.1914 -0.1604
 1850TIP3    H127041   0.872   1.133   3.627  1.2531  0.4482  0.2270
 1850TIP3    H227042   0.842   1.261   3.552 -1.0600 -0.2528 -0.0776
 1851TIP3   OH227043   1.864   5.720  15.573 -0.1347  0.6116 -0.6950
 1851TIP3    H127044   1.875   5.796  15.517  0.1196 -0.0168 -1.5043
 1851TIP3    H227045   1.929   5.731  15.642 -0.5563  1.4698 -0.4324
 1852TIP3   OH227046   4.293   2.585  12.813 -0.7014 -0.3079 -0.8097
 1852TIP3    H127047   4.199   2.582  12.797 -0.7859  1.9463 -0.9325
 1852TIP3    H227048   4.317   2.677  12.800  1.2871 -0.5876  0.5448
 1853TIP3   OH227049   2.954   5.567  14.488 -0.3092 -0.1686  0.1387
 1853TIP3    H127050   2.936   5.527  14.403  0.1462  0.7711 -0.4057
 1853TIP3    H227051   3.045   5.596  14.483 -0.2922 -0.0623  0.9255
 1854TIP3   OH227052   0.737   5.258   3.300 -0.5069  0.0835  0.4859
 1854TIP3    H127053   0.719   5.329   3.239  1.0222  1.9931  2.2023
 1854TIP3    H227054   0.650   5.228   3.329 -1.1569  1.5661  0.0997
 1855TIP3   OH227055   2.948   3.258  14.075  0.7610 -0.0459  0.0852
 1855TIP3    H127056   3.017   3.194  14.056  0.7361  0.2413 -1.0445
 1855TIP3    H227057   2.873   3.205  14.102  0.8541 -0.4719 -0.4800
 1856TIP3   OH227058   4.015   4.751   2.802  0.1131 -0.4072  0.7055
 1856TIP3    H127059   4.065   4.782   2.877 -1.7720 -2.7300  3.0096
 1856TIP3    H227060   3.929   4.729   2.838 -0.7150 -1.9461 -2.0619
 1857TIP3   OH227061   5.595   5.722  11.804  0.3780  0.3797  0.6286
 1857TIP3    H127062   5.500   5.716  11.802  0.3293  1.1200  0.7257
 1857TIP3    H227063   5.625   5.631  11.797 -0.3121  0.2229 -0.2405
 1858TIP3   OH227064   6.240   1.067  17.002 -0.4423  0.3121  0.2095
 1858TIP3    H127065   6.248   1.152  16.958  0.4278  0.3867  0.4852
 1858TIP3    H227066   6.328   1.051  17.037 -0.9890  0.0033  1.4582
 1859TIP3   OH227067   1.576   2.506  15.260  0.0921 -0.1184  0.5307
 1859TIP3    H127068   1.671   2.492  15.257  0.1442  0.3927 -0.5444
 1859TIP3    H227069   1.558   2.532  15.350  1.0587  0.3512  0.5911
 1860TIP3   OH227070   3.330   5.780   0.317  0.1281  0.0467  0.1324
 1860TIP3    H127071   3.384   5.714   0.359 -1.8591 -0.2843  2.2577
 1860TIP3    H227072   3.320   5.849   0.383  0.2524  1.4164 -1.2293
 1861TIP3   OH227073   4.677   0.221  13.530 -0.0454  0.6350 -0.1691
 1861TIP3    H127074   4.719   0.199  13.447 -0.1855  0.3195 -0.1541
 1861TIP3    H227075   4.595   0.262  13.505 -0.1699  0.3776 -0.1835
 1862TIP3   OH227076   3.149   4.799  15.021 -0.2309  0.0209  0.2287
 1862TIP3    H127077   3.179   4.753  15.100 -1.4287 -0.2420  0.5348
 1862TIP3    H227078   3.169   4.739  14.949 -1.0391 -0.6289  0.5436
 1863TIP3   OH227079   6.506   3.114  16.294  0.2099 -0.5285  0.5844
 1863TIP3    H127080   6.486   3.165  16.373  1.0316 -1.0541  1.1370
 1863TIP3    H227081   6.578   3.160  16.252 -1.1783  0.5552 -0.6355
 1864TIP3   OH227082   4.404   4.033   3.331 -0.6274 -0.2834  0.3502
 1864TIP3    H127083   4.380   4.033   3.238  1.8369  0.8154 -0.3279
 1864TIP3    H227084   4.360   4.109   3.367  0.7248  0.9667 -0.5852
 1865TIP3   OH227085   6.257   2.579  17.109 -0.3138  0.0787 -0.0221
 1865TIP3    H127086   6.313   2.531  17.170 -0.7369 -0.9123 -0.4044
 1865TIP3    H227087   6.238   2.517  17.039 -4.0947 -0.5290  1.4176
 1866TIP3   OH227088   5.263   3.475  14.997 -0.6439 -0.2241 -0.0094
 1866TIP3    H127089   5.278   3.397  14.944 -1.1679  0.7948 -1.6912
 1866TIP3    H227090   5.177   3.462  15.036 -0.9519 -0.2637 -0.6978
 1867TIP3   OH227091   4.701   4.970   0.668 -0.1697  0.2620  0.3232
 1867TIP3    H127092   4.609   4.943   0.670  0.1497 -0.8571  0.3300
 1867TIP3    H227093   4.748   4.899   0.711  1.1704 -1.2154 -3.3476
 1868TIP3   OH227094   6.498   2.618   4.226 -0.2484  0.7621 -0.3426
 1868TIP3    H127095   6.420   2.647   4.180 -1.0902 -0.7084  0.1178
 1868TIP3    H227096   6.481   2.635   4.319 -0.1419  0.2120 -0.2146
 1869TIP3   OH227097   6.455   5.558   1.761  0.0922 -1.1716  0.6105
 1869TIP3    H127098   6.424   5.647   1.745  1.4081 -0.7034  0.6779
 1869TIP3    H227099   6.375   5.508   1.778 -0.7519 -0.2423 -0.5229
 1870TIP3   OH227100   5.451   5.133  13.543 -0.4525 -0.4204 -1.2091
 1870TIP3    H127101   5.432   5.039  13.548  1.1140 -0.7108 -0.6349
 1870TIP3    H227102   5.466   5.159  13.633  2.7214 -0.3961 -1.6938
 1871TIP3   OH227103   6.260   0.637  16.370  0.2113  0.2360 -0.1678
 1871TIP3    H127104   6.311   0.576  16.316 -1.4318  0.0185 -1.5018
 1871TIP3    H227105   6.169   0.617  16.349 -0.3960  1.6768  1.0301
 1872TIP3   OH227106   0.541   2.913   0.697 -0.2401  0.2925 -0.0882
 1872TIP3    H127107   0.535   2.968   0.618 -2.0928  0.8576  0.4281
 1872TIP3    H227108   0.493   2.962   0.764  0.0514 -0.8901  1.0021
 1873TIP3   OH227109   4.080   4.558  11.760 -0.2981  0.1796  0.2256
 1873TIP3    H127110   4.024   4.525  11.831 -0.0877  1.5949  1.0661
 1873TIP3    H227111   4.024   4.618  11.711  0.1436  0.7472  0.4031
 1874TIP3   OH227112   1.102   6.355   3.294  0.1487 -0.1730  0.1360
 1874TIP3    H127113   1.074   6.327   3.207  1.4659 -0.9397 -0.0496
 1874TIP3    H227114   1.108   6.273   3.344  0.2266  0.1792  0.7067
 1875TIP3   OH227115   4.080   1.459  15.440 -0.0990  0.2118  0.6305
 1875TIP3    H127116   4.029   1.393  15.391  1.0626  1.5196 -2.4761
 1875TIP3    H227117   4.015   1.501  15.497 -1.7173 -0.7290 -0.4589
 1876TIP3   OH227118   0.693   0.851   3.961  0.1341 -0.0498  0.0900
 1876TIP3    H127119   0.661   0.825   4.048 -1.7381 -0.6720 -0.7501
 1876TIP3    H227120   0.745   0.777   3.931  2.2865  0.8779  1.3799
 1877TIP3   OH227121   5.110   4.476  13.234  0.5563  0.0042 -0.2178
 1877TIP3    H127122   5.020   4.481  13.266  0.7331 -1.6736  0.6023
 1877TIP3    H227123   5.154   4.551  13.273 -0.0371 -0.1802  0.8149
 1878TIP3   OH227124   2.747   5.748  11.971  0.2778 -0.8677 -0.0987
 1878TIP3    H127125   2.765   5.788  11.886 -1.9272 -0.5145 -0.4404
 1878TIP3    H227126   2.713   5.661  11.950 -0.3782 -0.7402  0.4040
 1879TIP3   OH227127   2.141   0.794   0.888 -0.5193 -0.0782 -0.0495
 1879TIP3    H127128   2.089   0.737   0.944  0.7691 -0.1357  1.1280
 1879TIP3    H227129   2.123   0.883   0.919  1.5726 -0.2280  1.6906
 1880TIP3   OH227130   3.642   6.594  14.445 -0.0350 -0.2369 -0.1599
 1880TIP3    H127131   3.679   6.579  14.532 -1.5528  0.4296  0.6268
 1880TIP3    H227132   3.713   6.573  14.385  1.4309  0.4712  1.2738
 1881TIP3   OH227133   4.038   3.955   2.291 -0.1395  0.0957 -0.6094
 1881TIP3    H127134   3.976   3.901   2.242  0.6236  0.5722 -2.1425
 1881TIP3    H227135   4.007   4.044   2.281 -0.0143  0.1929 -0.1646
 1882TIP3   OH227136   3.349   0.457  12.498 -0.1479  0.0430 -0.2415
 1882TIP3    H127137   3.273   0.468  12.555  0.0092  1.1866 -0.2422
 1882TIP3    H227138   3.388   0.544  12.493  0.3168 -0.2206 -1.4351
 1883TIP3   OH227139   1.917   3.393  10.527  0.3709 -0.4242 -0.7359
 1883TIP3    H127140   1.906   3.301  10.551  1.1340 -0.4038 -0.2573
 1883TIP3    H227141   1.947   3.435  10.608 -3.5030  0.9677  0.0617
 1884TIP3   OH227142   5.911   3.588  11.778 -0.0394 -0.4871 -0.5740
 1884TIP3    H127143   5.950   3.561  11.861 -0.6604 -1.2999 -0.5354
 1884TIP3    H227144   5.941   3.524  11.714 -1.5129 -1.2821 -0.4855
 1885TIP3   OH227145   6.075   2.278  12.837  0.2102 -0.3974 -0.1447
 1885TIP3    H127146   6.030   2.227  12.904 -0.2470 -1.6236 -1.3701
 1885TIP3    H227147   6.115   2.351  12.885 -0.3704 -1.0877  1.4061
 1886TIP3   OH227148   0.438   1.046  16.809 -0.5484  0.6591  0.6911
 1886TIP3    H127149   0.412   1.069  16.719 -0.7847  0.9334  0.8296
 1886TIP3    H227150   0.364   1.073  16.863  0.2012  1.8541  1.1410
 1887TIP3   OH227151   0.742   3.597  13.264  0.6220  0.5699 -0.0714
 1887TIP3    H127152   0.733   3.683  13.305  3.4655  1.0461 -0.3671
 1887TIP3    H227153   0.749   3.615  13.171  1.8464  0.1003 -0.0893
 1888TIP3   OH227154   1.333   3.671   3.882 -1.0288 -0.1065 -0.2836
 1888TIP3    H127155   1.325   3.701   3.973 -1.0798 -1.2592  0.0895
 1888TIP3    H227156   1.343   3.576   3.888  0.1686 -0.0653 -1.4315
 1889TIP3   OH227157   5.796   3.148   1.894  0.7147 -0.1044 -0.2210
 1889TIP3    H127158   5.831   3.119   1.810  0.0775  0.5465 -0.7208
 1889TIP3    H227159   5.722   3.090   1.910  1.2988 -0.7180  0.2605
 1890TIP3   OH227160   5.075   6.466  17.163 -0.2942 -0.0802  0.5268
 1890TIP3    H127161   4.985   6.500  17.173 -0.8249 -1.2371 -0.2357
 1890TIP3    H227162   5.068   6.401  17.093  1.2171  0.0756  0.2255
 1891TIP3   OH227163   3.167   3.109   0.043 -0.4001 -0.4620  0.2761
 1891TIP3    H127164   3.231   3.129  -0.025  0.0343 -0.0265  0.7986
 1891TIP3    H227165   3.177   3.015   0.058  0.1967 -0.3792  0.4228
 1892TIP3   OH227166   5.150   3.939  14.924 -0.3456 -0.1613 -0.1078
 1892TIP3    H127167   5.085   3.873  14.948 -0.8138  1.0736  2.1048
 1892TIP3    H227168   5.103   4.022  14.928 -0.0125  0.3005 -3.8056
 1893TIP3   OH227169   2.442   0.453   0.469 -0.4947 -0.2168 -0.5339
 1893TIP3    H127170   2.494   0.373   0.476  1.9850  1.3726 -0.0447
 1893TIP3    H227171   2.383   0.450   0.544  1.3681 -0.3670  0.9549
 1894TIP3   OH227172   6.541   6.203  15.012 -0.1594  0.2172  0.4132
 1894TIP3    H127173   6.473   6.145  14.978  0.0218 -0.4359  1.1403
 1894TIP3    H227174   6.619   6.147  15.019  0.5121  0.9988 -0.5863
 1895TIP3   OH227175   0.570   1.525   4.749 -0.2458  0.1160  0.0756
 1895TIP3    H127176   0.509   1.462   4.712 -1.0037  1.3872 -0.9068
 1895TIP3    H227177   0.656   1.488   4.733 -0.6929 -0.8743 -0.0797
 1896TIP3   OH227178   3.575   0.701   1.607  0.3739  0.2360 -0.7786
 1896TIP3    H127179   3.549   0.703   1.514 -0.0859  0.5533 -0.6430
 1896TIP3    H227180   3.492   0.695   1.654  0.6024  0.2711 -0.3767
 1897TIP3   OH227181   4.882   6.577  11.580 -0.3742  0.2062  0.0141
 1897TIP3    H127182   4.932   6.654  11.608 -0.8843  0.3183  0.6413
 1897TIP3    H227183   4.938   6.533  11.516  0.0496  0.9374 -0.1271
 1898TIP3   OH227184   0.759   3.986  10.299  0.3868  0.6793 -0.0362
 1898TIP3    H127185   0.704   3.953  10.229  0.4063  2.1824 -0.7938
 1898TIP3    H227186   0.732   3.938  10.377 -0.7514  0.1444 -0.7600
 1899TIP3   OH227187   1.413   2.612   6.197 -0.4075 -0.0395  0.1480
 1899TIP3    H127188   1.463   2.676   6.147  0.0174 -0.6557 -0.2198
 1899TIP3    H227189   1.334   2.659   6.225  0.6892  1.1504  1.3382
 1900TIP3   OH227190   2.155   0.333   3.922 -0.8630  0.3056 -0.5528
 1900TIP3    H127191   2.189   0.257   3.969  1.0024  0.7216 -1.1756
 1900TIP3    H227192   2.085   0.367   3.977  0.1166 -0.2565  1.0632
 1901TIP3   OH227193   2.359   5.056  12.600 -0.3983  0.6715 -0.6977
 1901TIP3    H127194   2.439   5.024  12.558  0.2058  2.2801 -0.8208
 1901TIP3    H227195   2.369   5.151  12.600 -1.3419  0.7821  1.2607
 1902TIP3   OH227196   0.841   4.896   1.864 -0.0145 -0.7645  0.2780
 1902TIP3    H127197   0.847   4.868   1.773  1.9699  0.8559 -0.1302
 1902TIP3    H227198   0.884   4.826   1.913 -2.1638 -2.2320  0.1404
 1903TIP3   OH227199   1.792   2.208  14.923 -0.1205 -0.0004  0.4593
 1903TIP3    H127200   1.844   2.129  14.909 -0.3095  0.0935 -0.8213
 1903TIP3    H227201   1.724   2.204  14.856  0.3896  1.6865 -0.1728
 1904TIP3   OH227202   2.189   4.882   1.367  0.7980 -0.3803 -0.2610
 1904TIP3    H127203   2.212   4.797   1.330 -0.3737 -2.7837  4.0776
 1904TIP3    H227204   2.096   4.893   1.348  0.9368 -0.0812 -0.7744
 1905TIP3   OH227205   3.762   1.431   1.410  0.0050 -0.2598 -0.1214
 1905TIP3    H127206   3.819   1.504   1.434 -0.8673  0.4734 -0.2433
 1905TIP3    H227207   3.674   1.462   1.432 -0.6293 -0.2806 -2.5469
 1906TIP3   OH227208   6.335   3.571  16.610  0.0750  0.2997  0.5587
 1906TIP3    H127209   6.297   3.634  16.671  0.4911  1.0023  0.0951
 1906TIP3    H227210   6.284   3.491  16.623  0.2787  0.3812  1.9709
 1907TIP3   OH227211   3.669   6.148   2.484  0.0803 -0.2769 -0.1170
 1907TIP3    H127212   3.719   6.104   2.416 -1.4635 -0.9301 -0.8457
 1907TIP3    H227213   3.659   6.082   2.553  1.5713  0.3566  0.7575
 1908TIP3   OH227214   5.992   5.334  11.514 -0.3830  0.3125  0.2147
 1908TIP3    H127215   6.005   5.381  11.597  0.9468  1.5015 -0.6349
 1908TIP3    H227216   5.961   5.247  11.540  0.8170  0.3912  1.9946
 1909TIP3   OH227217   2.127   4.157   2.356  0.0234  0.9727  0.6417
 1909TIP3    H127218   2.089   4.223   2.414  0.3132  2.4564 -0.7921
 1909TIP3    H227219   2.175   4.209   2.290  1.2899 -0.7238  0.2016
 1910TIP3   OH227220   4.307   0.273  14.894  0.1020  0.3772 -0.2346
 1910TIP3    H127221   4.263   0.324  14.826  1.3008 -1.2115 -2.2801
 1910TIP3    H227222   4.239   0.253  14.957 -1.4913  0.3504 -1.9102
 1911TIP3   OH227223   5.510   3.015  16.392  0.3056 -0.1388 -0.1536
 1911TIP3    H127224   5.547   2.953  16.454 -0.3455 -0.2254  0.1538
 1911TIP3    H227225   5.582   3.076  16.372  1.1262 -1.3486 -0.9443
 1912TIP3   OH227226   2.220   3.049   5.274  0.5474  0.4277  0.3283
 1912TIP3    H127227   2.133   3.051   5.312  0.8742 -1.3103  1.2415
 1912TIP3    H227228   2.237   3.139   5.246 -0.1328  1.5245  3.2923
 1913TIP3   OH227229   0.089   0.598   1.463  0.2907  0.8395  0.0841
 1913TIP3    H127230   0.087   0.692   1.483 -1.3363  0.5385  1.3853
 1913TIP3    H227231  -0.002   0.575   1.446  0.8561 -0.2408 -1.5291
 1914TIP3   OH227232   0.629   2.306   1.151  0.3769  0.7271 -0.1060
 1914TIP3    H127233   0.585   2.258   1.081 -0.6999  2.3386 -0.5719
 1914TIP3    H227234   0.722   2.288   1.138  0.2574  1.5832 -2.4303
 1915TIP3   OH227235   2.198   2.161   3.982  0.3405  0.3024 -0.1753
 1915TIP3    H127236   2.200   2.247   3.939  0.2780  1.1136  1.3690
 1915TIP3    H227237   2.170   2.181   4.072  1.7508 -1.1515  0.6103
 1916TIP3   OH227238   0.819   6.312   0.397 -0.4523  0.4526  0.0197
 1916TIP3    H127239   0.793   6.283   0.310  0.5993 -0.9475  0.1682
 1916TIP3    H227240   0.745   6.287   0.453 -1.3765  1.8676 -0.5511
 1917TIP3   OH227241   0.616   1.749  15.191  0.0365 -0.2488  0.0876
 1917TIP3    H127242   0.619   1.843  15.173 -1.2537  0.1553  1.8170
 1917TIP3    H227243   0.557   1.714  15.125 -0.2899  0.3282  0.0673
 1918TIP3   OH227244   4.546   1.130   3.346  0.2889  0.6558  0.6536
 1918TIP3    H127245   4.540   1.055   3.405 -0.9553 -0.0985 -0.4190
 1918TIP3    H227246   4.470   1.122   3.289  2.3171  0.4756 -2.1468
 1919TIP3   OH227247   6.420   4.812  16.571 -0.8627 -0.2083  0.6478
 1919TIP3    H127248   6.387   4.784  16.486 -1.4705  1.4271  0.3091
 1919TIP3    H227249   6.343   4.845  16.617 -0.1244  1.4515  0.7613
 1920TIP3   OH227250   3.845   2.772   3.629 -0.1343 -0.1286  0.7412
 1920TIP3    H127251   3.781   2.716   3.585 -2.4779  1.4850  1.9680
 1920TIP3    H227252   3.867   2.725   3.709 -0.7814 -0.1144  0.9308
 1921TIP3   OH227253   1.899   4.520  14.506 -0.4129  0.6321 -0.4204
 1921TIP3    H127254   1.849   4.541  14.585 -1.6982  1.8961 -1.5595
 1921TIP3    H227255   1.879   4.428  14.489 -2.0243  1.0018 -0.6084
 1922TIP3   OH227256   2.081   4.492  15.496 -0.3542  0.5770 -0.3911
 1922TIP3    H127257   2.095   4.586  15.497  1.6863  0.2912 -0.6822
 1922TIP3    H227258   2.093   4.467  15.405  1.8509 -0.3499  0.1384
 1923TIP3   OH227259   4.905   4.203   3.502 -0.3955 -0.5737 -0.1190
 1923TIP3    H127260   4.897   4.279   3.444 -0.0464 -0.0285  0.5404
 1923TIP3    H227261   4.815   4.186   3.531 -0.2662  0.6511  1.0688
 1924TIP3   OH227262   0.277   3.935   0.508 -0.6669 -0.0097 -0.4524
 1924TIP3    H127263   0.234   3.960   0.425  1.0223  1.0557 -1.0313
 1924TIP3    H227264   0.370   3.931   0.486 -0.4166 -1.8732  0.9016
 1925TIP3   OH227265   1.777   1.126  13.955 -0.2020 -0.3478  0.3338
 1925TIP3    H127266   1.864   1.093  13.934  0.5698  0.7060  1.7950
 1925TIP3    H227267   1.751   1.175  13.877 -0.2453 -2.1540 -0.7971
 1926TIP3   OH227268   0.185   4.777   0.532  0.1600  0.2506  0.4115
 1926TIP3    H127269   0.155   4.722   0.603 -0.5727 -0.4929 -0.4657
 1926TIP3    H227270   0.243   4.721   0.481  1.4657  1.0723  0.9598
 1927TIP3   OH227271   4.468   4.413   3.591  0.1020 -0.5299 -0.0206
 1927TIP3    H127272   4.408   4.364   3.534  1.4442 -4.1042  1.4319
 1927TIP3    H227273   4.418   4.426   3.671 -0.4911  1.1783 -0.6452
 1928TIP3   OH227274   0.019   4.254   0.979 -0.3201 -0.6779  0.2892
 1928TIP3    H127275  -0.053   4.313   1.001  2.4832  2.7633  0.7531
 1928TIP3    H227276   0.004   4.230   0.888 -0.9051  1.7352 -0.2715
 1929TIP3   OH227277   5.842   0.159  14.186 -0.6052  0.5648 -0.3772
 1929TIP3    H127278   5.936   0.158  14.170 -0.1168  0.1522  2.2780
 1929TIP3    H227279   5.812   0.242  14.149  0.5217  0.0132 -2.5767
 1930TIP3   OH227280   1.255   2.763  14.437  0.2757 -0.2721 -0.2110
 1930TIP3    H127281   1.169   2.729  14.414  0.7623 -1.1056 -0.8177
 1930TIP3    H227282   1.317   2.702  14.397  1.1633 -1.2947  2.5655
 1931TIP3   OH227283   3.162   3.691   0.740 -0.5355 -0.2213 -0.5190
 1931TIP3    H127284   3.108   3.710   0.663 -2.9628 -1.1591  0.8891
 1931TIP3    H227285   3.160   3.595   0.747  2.1562 -0.3677 -0.9751
 1932TIP3   OH227286   0.836   1.922   6.055 -0.4457  0.4258 -0.0527
 1932TIP3    H127287   0.809   1.874   5.977  0.3469 -0.8750  0.4672
 1932TIP3    H227288   0.806   1.868   6.128  1.7804 -0.0343  0.5343
 1933TIP3   OH227289   5.043   5.182   2.735  0.3518  0.9305 -0.0490
 1933TIP3    H127290   5.130   5.216   2.753  0.0088  1.0493  1.4361
 1933TIP3    H227291   5.005   5.245   2.674  2.7216 -1.2169 -3.9307
 1934TIP3   OH227292   1.251   1.660  14.957  0.2359  0.1893 -0.4034
 1934TIP3    H127293   1.176   1.616  14.916  0.3349 -0.0091 -0.3696
 1934TIP3    H227294   1.228   1.665  15.050  0.3715 -0.0832 -0.3569
 1935TIP3   OH227295   2.058   6.280   6.722 -0.0540  0.1261  0.0268
 1935TIP3    H127296   1.992   6.228   6.677  0.1222 -1.0967  1.1506
 1935TIP3    H227297   2.015   6.364   6.739 -1.0186 -0.3484 -0.0247
 1936TIP3   OH227298   2.741   0.679  15.621  0.0033 -0.0866  0.0932
 1936TIP3    H127299   2.814   0.623  15.595 -0.4606  0.3959 -2.3219
 1936TIP3    H227300   2.782   0.764  15.639  0.0164  0.2825 -1.6107
 1937TIP3   OH227301   2.499   1.403   2.538  0.9393  0.0301  0.1913
 1937TIP3    H127302   2.443   1.327   2.520 -1.7975  2.0796 -0.1608
 1937TIP3    H227303   2.586   1.374   2.511 -0.8456 -1.3334 -4.7311
 1938TIP3   OH227304   5.187   5.457   2.805 -0.0197 -0.7399 -0.3016
 1938TIP3    H127305   5.145   5.543   2.810 -1.0440 -1.1522 -1.6936
 1938TIP3    H227306   5.178   5.422   2.894 -0.3556  0.2246  0.0618
 1939TIP3   OH227307   4.660   6.267  10.213 -0.4198  0.7974  0.5964
 1939TIP3    H127308   4.632   6.335  10.273 -2.1118  0.0734  0.6460
 1939TIP3    H227309   4.654   6.186  10.263 -5.1314 -0.2905 -1.4254
 1940TIP3   OH227310   2.434   3.318  14.549 -0.1020  0.0696  0.4463
 1940TIP3    H127311   2.411   3.389  14.610 -0.8967  0.2725 -0.0697
 1940TIP3    H227312   2.431   3.239  14.602  0.1173  0.3479  0.8781
 1941TIP3   OH227313   2.580   6.242   4.627  0.3252 -0.1077  0.2606
 1941TIP3    H127314   2.505   6.199   4.586 -0.3610  2.8816 -1.7385
 1941TIP3    H227315   2.553   6.256   4.718 -0.5369 -1.3004  0.2050
 1942TIP3   OH227316   0.936   2.686   4.344 -0.3932  0.2364  0.3123
 1942TIP3    H127317   0.866   2.656   4.287 -0.5059 -0.1473  0.6510
 1942TIP3    H227318   0.925   2.781   4.349 -1.4181  0.0799  1.0660
 1943TIP3   OH227319   1.508   1.599  13.398  0.0178  0.0609  0.6476
 1943TIP3    H127320   1.559   1.673  13.367 -0.4560  0.3628  0.5948
 1943TIP3    H227321   1.418   1.619  13.374 -0.1499 -0.4001  0.8777
 1944TIP3   OH227322   3.119   2.919   2.496 -0.2940  0.3754  0.1284
 1944TIP3    H127323   3.152   2.991   2.443 -0.7996  0.1478 -0.4944
 1944TIP3    H227324   3.169   2.924   2.578  0.4868  0.7209 -0.3705
 1945TIP3   OH227325   0.339   4.087   3.805  0.0056 -0.2744 -0.1893
 1945TIP3    H127326   0.419   4.116   3.763  0.8640 -0.4000  1.3161
 1945TIP3    H227327   0.318   4.003   3.764 -0.6331  0.8472 -2.1968
 1946TIP3   OH227328   4.621   5.913   1.484  0.8975 -1.0369 -0.2769
 1946TIP3    H127329   4.563   5.910   1.560  0.7598 -0.3513 -0.3452
 1946TIP3    H227330   4.637   5.822   1.461 -0.4231 -1.2374 -0.4622
 1947TIP3   OH227331   6.555   4.940  10.977 -0.3608 -0.1549 -0.3954
 1947TIP3    H127332   6.590   4.952  10.889 -2.5854  2.2272 -1.0037
 1947TIP3    H227333   6.472   4.895  10.964 -1.6341  1.9510  0.2956
 1948TIP3   OH227334   2.897   0.353   7.041 -0.1303  0.8288 -0.3661
 1948TIP3    H127335   2.839   0.399   7.102 -1.7454  0.2036 -1.4144
 1948TIP3    H227336   2.851   0.273   7.019  1.8379 -0.4418 -0.0090
 1949TIP3   OH227337   3.943   0.269   5.868 -0.1351  0.5472 -0.0506
 1949TIP3    H127338   3.856   0.294   5.901 -0.3996  0.0249 -0.3521
 1949TIP3    H227339   3.984   0.352   5.845 -0.8380  0.7451 -0.6122
 1950TIP3   OH227340   5.780   1.671  17.008  0.2636  0.3499  0.6544
 1950TIP3    H127341   5.686   1.675  16.990  0.2923 -0.1359  0.3768
 1950TIP3    H227342   5.820   1.731  16.945  0.5337 -2.6968 -2.2109
 1951TIP3   OH227343   4.385   6.387  15.506  0.6605  0.1619 -0.0683
 1951TIP3    H127344   4.387   6.481  15.522 -5.9327  0.2553  2.0695
 1951TIP3    H227345   4.423   6.348  15.585 -0.0984  1.0241  0.7311
 1952TIP3   OH227346   3.842   5.114   2.831 -0.7481  0.5577  0.2067
 1952TIP3    H127347   3.830   5.043   2.768 -1.2828 -1.2542  2.2707
 1952TIP3    H227348   3.931   5.101   2.864 -0.4181  1.5812 -0.2624
 1953TIP3   OH227349   1.171   1.666   1.335  0.6315 -0.6095  0.0786
 1953TIP3    H127350   1.254   1.628   1.365  0.7708  0.2047  0.7433
 1953TIP3    H227351   1.104   1.616   1.383  0.7127 -1.5659 -0.7928
 1954TIP3   OH227352   1.048   6.771   0.606  0.1197  0.1731  0.3400
 1954TIP3    H127353   1.051   6.845   0.545 -1.3195  0.0697  0.1186
 1954TIP3    H227354   1.099   6.702   0.562 -0.8310  0.1292 -0.7319
 1955TIP3   OH227355   6.005   3.916  14.635  0.2793  0.7534 -0.3154
 1955TIP3    H127356   6.031   3.950  14.721 -0.4407 -0.5317  0.4239
 1955TIP3    H227357   6.070   3.849  14.615 -1.1420 -0.8923  0.5085
 1956TIP3   OH227358   2.672   0.735  12.155 -0.0113 -0.4277  0.2377
 1956TIP3    H127359   2.686   0.811  12.099 -1.0977 -1.8388 -2.0543
 1956TIP3    H227360   2.760   0.702  12.175  0.3911  0.2928 -0.3393
 1957TIP3   OH227361   5.224   1.080   3.917  0.1294  0.2103 -0.2973
 1957TIP3    H127362   5.280   1.002   3.913  0.4429  0.5256 -2.7840
 1957TIP3    H227363   5.282   1.152   3.892 -0.6392  0.9898  0.1582
 1958TIP3   OH227364   0.944   0.671   4.919  0.3227 -0.1381 -0.1778
 1958TIP3    H127365   0.927   0.728   4.844 -0.1693  0.5914  0.4843
 1958TIP3    H227366   0.949   0.583   4.881  0.3998  0.2602 -1.1101
 1959TIP3   OH227367   2.059   0.001  12.968  0.4229 -0.8240  0.7473
 1959TIP3    H127368   2.112   0.074  12.936  1.4518 -0.7949  2.4465
 1959TIP3    H227369   2.067  -0.066  12.899 -0.7803  0.7511 -0.9673
 1960TIP3   OH227370   1.011   3.600  10.851 -0.1755  0.0173 -0.0628
 1960TIP3    H127371   1.040   3.565  10.767  1.1945 -0.4377  0.5734
 1960TIP3    H227372   1.089   3.597  10.906 -1.2244 -0.3330  1.4368
 1961TIP3   OH227373   5.071   1.486   3.342  0.0155  0.6752  0.1748
 1961TIP3    H127374   4.980   1.517   3.351 -0.0836  1.2239 -2.3522
 1961TIP3    H227375   5.092   1.448   3.427 -1.3944  3.7155  1.9608
 1962TIP3   OH227376   6.213   3.432   2.372  0.6069 -0.3945  0.1098
 1962TIP3    H127377   6.259   3.382   2.439  0.0608 -1.3032 -0.1814
 1962TIP3    H227378   6.274   3.500   2.346  0.8305 -0.0475  1.5220
 1963TIP3   OH227379   1.938   5.910  13.070 -0.2413  0.5744  0.0987
 1963TIP3    H127380   1.972   5.846  13.134  2.4354  1.1161 -0.7020
 1963TIP3    H227381   1.917   5.987  13.123  1.9203  1.0064  0.3911
 1964TIP3   OH227382   1.803   3.696   6.517  0.0536  0.6030 -0.0179
 1964TIP3    H127383   1.843   3.779   6.488  0.4096  0.4311 -0.0264
 1964TIP3    H227384   1.867   3.629   6.492  0.3005  0.4347  1.0459
 1965TIP3   OH227385   3.542   5.822  12.100  0.4419 -0.0101 -0.3639
 1965TIP3    H127386   3.537   5.912  12.067 -1.3974  0.0926  0.1205
 1965TIP3    H227387   3.631   5.813  12.132 -0.1650  2.6047  2.2947
 1966TIP3   OH227388   2.891   6.132  16.636 -0.0985 -0.3298 -0.5873
 1966TIP3    H127389   2.878   6.044  16.672 -1.1078 -0.1446 -0.5084
 1966TIP3    H227390   2.879   6.191  16.710  2.8889 -0.2321 -0.1035
 1967TIP3   OH227391   0.502   0.954  11.873 -0.7103  0.0562 -0.2024
 1967TIP3    H127392   0.492   0.937  11.779  1.2036  1.3699 -0.6909
 1967TIP3    H227393   0.449   1.032  11.889  1.3831  1.6614 -0.8747
 1968TIP3   OH227394   4.332   3.604  14.418 -0.1658  0.0618  0.0802
 1968TIP3    H127395   4.275   3.582  14.344  0.3524  0.4234 -0.4290
 1968TIP3    H227396   4.420   3.581  14.388  0.0794  0.5104  0.4630
 1969TIP3   OH227397   5.376   0.336  14.394  0.0301 -0.4157 -0.4551
 1969TIP3    H127398   5.408   0.288  14.317  0.5022 -1.1232  0.1758
 1969TIP3    H227399   5.377   0.428  14.367 -0.3600 -0.7012 -1.4886
 1970TIP3   OH227400   0.951   4.565  15.976 -0.2141 -0.7370  0.4495
 1970TIP3    H127401   0.924   4.474  15.969  2.6015 -1.4758 -1.3491
 1970TIP3    H227402   0.924   4.605  15.893 -1.1313  0.0059  1.0903
 1971TIP3   OH227403   2.957   2.799  13.371 -0.0913  0.1974  0.0293
 1971TIP3    H127404   2.904   2.804  13.451 -0.8517 -2.7334 -0.2160
 1971TIP3    H227405   3.043   2.833  13.396 -1.0007  1.5134  1.4462
 1972TIP3   OH227406   1.500   1.560  17.194 -0.4938 -0.4244  0.5766
 1972TIP3    H127407   1.555   1.482  17.189  2.2901  1.4582  0.2931
 1972TIP3    H227408   1.442   1.554  17.117  1.1841 -1.1477 -0.6556
 1973TIP3   OH227409   0.610   3.314   0.227  0.4107  0.6288 -0.1338
 1973TIP3    H127410   0.648   3.235   0.189  0.4489  1.2263 -1.3562
 1973TIP3    H227411   0.626   3.305   0.321  4.5115  1.3836 -0.6875
 1974TIP3   OH227412   5.343   1.078   3.111 -0.4521  0.2842  0.2574
 1974TIP3    H127413   5.419   1.121   3.073 -0.2739 -1.5850 -1.5747
 1974TIP3    H227414   5.270   1.106   3.056 -0.7969  0.5225  0.8284
 1975TIP3   OH227415   4.122   0.875   6.587  0.2540 -0.8240 -0.2780
 1975TIP3    H127416   4.146   0.937   6.519  2.2846 -1.6993 -0.4013
 1975TIP3    H227417   4.184   0.892   6.658 -2.0387  0.2983  1.5169
 1976TIP3   OH227418   0.039   6.576   2.878 -0.2006 -0.1045 -0.3275
 1976TIP3    H127419   0.113   6.637   2.879 -1.2329  1.1720  3.6700
 1976TIP3    H227420  -0.021   6.612   2.812 -0.1069  2.3746  0.9055
 1977TIP3   OH227421   4.558   3.195  12.789  1.5048  0.4785  0.0869
 1977TIP3    H127422   4.508   3.200  12.707 -0.0484  0.8046  1.0421
 1977TIP3    H227423   4.546   3.105  12.818  0.0393  1.0146  1.1928
 1978TIP3   OH227424   6.134   3.618  13.887 -0.4413  0.1673 -0.2767
 1978TIP3    H127425   6.128   3.654  13.799 -2.3473 -0.3650 -0.3765
 1978TIP3    H227426   6.135   3.523  13.875  0.1056  0.0997  0.2432
 1979TIP3   OH227427   2.128   6.219   0.290  0.1500 -0.3065 -0.7178
 1979TIP3    H127428   2.213   6.183   0.264  1.2250  2.0223 -0.5670
 1979TIP3    H227429   2.076   6.218   0.210  1.7557  2.1035 -1.8651
 1980TIP3   OH227430   3.264   5.976   1.414 -0.0235  0.1311  0.0222
 1980TIP3    H127431   3.349   5.939   1.440 -0.5651 -0.4853  0.9660
 1980TIP3    H227432   3.247   5.938   1.328 -0.5495 -1.8265  0.9618
 1981TIP3   OH227433   4.371   2.243   3.816  0.1359 -0.1393  0.0560
 1981TIP3    H127434   4.312   2.194   3.758  1.5933 -0.7128 -0.9705
 1981TIP3    H227435   4.373   2.331   3.779  0.4115 -0.2889 -0.2950
 1982TIP3   OH227436   4.537   1.472   4.021  0.2047  0.4105 -0.5723
 1982TIP3    H127437   4.565   1.467   3.930  1.0439  1.2207 -0.3695
 1982TIP3    H227438   4.555   1.563   4.047 -1.8908  0.7446 -0.1950
 1983TIP3   OH227439   0.919   3.391  17.183  0.1799  0.2542  0.0299
 1983TIP3    H127440   0.843   3.403  17.125 -0.1853 -0.7926  0.2918
 1983TIP3    H227441   0.928   3.297  17.192 -0.3291  0.4109  2.4222
 1984TIP3   OH227442   2.997   3.868  14.615 -0.0100  0.7478  0.1523
 1984TIP3    H127443   2.960   3.954  14.595  0.5455  0.8617 -0.3884
 1984TIP3    H227444   3.050   3.883  14.693 -0.2495  0.8042  0.3066
 1985TIP3   OH227445   1.031   4.444   0.526  0.5524 -0.5379  0.0617
 1985TIP3    H127446   0.948   4.484   0.502  0.9303 -0.7742 -1.7122
 1985TIP3    H227447   1.009   4.353   0.547  0.3087 -0.4994 -0.0241
 1986TIP3   OH227448   0.345   5.125   3.969 -0.5379 -0.2244  0.0219
 1986TIP3    H127449   0.252   5.117   3.947 -0.7072  1.4307  0.0844
 1986TIP3    H227450   0.361   5.219   3.975  1.3060 -0.4718 -0.6224
 1987TIP3   OH227451   0.725   1.836  12.421  0.4052 -0.5777  0.3915
 1987TIP3    H127452   0.754   1.926  12.407 -0.1558 -0.5474 -0.6470
 1987TIP3    H227453   0.665   1.841  12.495 -1.6885  0.3435 -1.3148
 1988TIP3   OH227454   0.260   0.329   5.052 -0.0825 -0.3025  0.4727
 1988TIP3    H127455   0.235   0.420   5.071 -0.7154 -0.2632 -0.5202
 1988TIP3    H227456   0.306   0.333   4.969 -1.8682 -1.1328 -0.5957
 1989TIP3   OH227457   3.237   4.717   2.663  0.8264  0.0909  0.5177
 1989TIP3    H127458   3.251   4.737   2.755  1.3892 -1.7676  0.8465
 1989TIP3    H227459   3.145   4.691   2.657  0.2593  2.0898  0.1957
 1990TIP3   OH227460   6.659   3.793   1.645 -0.3427  0.0474  0.5257
 1990TIP3    H127461   6.583   3.736   1.644 -0.3185  0.0200 -0.9608
 1990TIP3    H227462   6.623   3.882   1.649 -0.3843 -0.0294  2.4549
 1991TIP3   OH227463   1.528   1.981   0.599 -0.1534 -0.1208 -0.2901
 1991TIP3    H127464   1.469   2.045   0.559  0.1315  0.1597 -0.2647
 1991TIP3    H227465   1.498   1.974   0.690 -1.2609 -1.3020 -0.7240
 1992TIP3   OH227466   6.421   3.369  11.356  0.0138 -0.6099 -0.3833
 1992TIP3    H127467   6.483   3.439  11.378 -0.1767 -0.2468 -0.9644
 1992TIP3    H227468   6.476   3.298  11.323  0.3939 -1.5751  2.2104
 1993TIP3   OH227469   1.377   5.840   4.719 -0.3478  0.0540 -0.0285
 1993TIP3    H127470   1.431   5.793   4.783  0.7007 -0.8197 -1.5092
 1993TIP3    H227471   1.316   5.890   4.772  0.4622 -0.6786  1.6638
 1994TIP3   OH227472   2.924   0.260   1.234 -0.2024  0.0143 -0.4919
 1994TIP3    H127473   2.844   0.210   1.250  1.8129 -2.8599  1.1806
 1994TIP3    H227474   2.948   0.294   1.321  2.3917 -2.4006 -0.1891
 1995TIP3   OH227475   1.665   4.170  12.770  0.2314 -0.3176 -0.1996
 1995TIP3    H127476   1.693   4.192  12.859 -0.5104 -0.6508  0.1172
 1995TIP3    H227477   1.737   4.201  12.714  1.4164 -1.5287  0.6253
 1996TIP3   OH227478   5.732   3.021  13.288 -0.3935  0.3486 -0.3140
 1996TIP3    H127479   5.786   2.957  13.334  0.7820  1.9736  0.6158
 1996TIP3    H227480   5.704   3.082  13.356 -2.3656  0.2540 -1.0085
 1997TIP3   OH227481   4.273   0.727  14.757  0.0811 -0.6007 -0.2368
 1997TIP3    H127482   4.353   0.778  14.751 -0.8791  0.8569 -0.8767
 1997TIP3    H227483   4.203   0.792  14.763 -1.2793 -1.8103 -2.5066
 1998TIP3   OH227484   0.231   0.114   6.769 -0.6030  0.0142 -0.0690
 1998TIP3    H127485   0.166   0.048   6.745  1.3190 -1.8250 -0.3883
 1998TIP3    H227486   0.308   0.092   6.716  1.7110 -0.4170  3.3502
 1999TIP3   OH227487   6.561   6.269   3.599  0.0968 -0.8487  0.3832
 1999TIP3    H127488   6.480   6.237   3.560 -0.3958 -0.1513  0.8079
 1999TIP3    H227489   6.550   6.254   3.693  1.2643 -2.5112  0.2731
 2000TIP3   OH227490   0.486   5.370  13.424  0.2918  0.4847  0.1024
 2000TIP3    H127491   0.508   5.298  13.365 -0.7653 -0.1255  0.4425
 2000TIP3    H227492   0.434   5.430  13.370  0.3136  0.4910  0.0899
 2001TIP3   OH227493   6.012   0.470  14.970 -0.0692 -0.6802  0.0849
 2001TIP3    H127494   6.053   0.498  14.888  0.4349 -2.3216 -0.2597
 2001TIP3    H227495   6.083   0.470  15.034 -0.7628  2.0153  0.9160
 2002TIP3   OH227496   6.129   5.386   5.441  0.0586 -0.3445  0.4507
 2002TIP3    H127497   6.187   5.438   5.497 -0.5946  0.2616  0.5677
 2002TIP3    H227498   6.112   5.443   5.366 -0.5270 -0.4555  0.4995
 2003TIP3   OH227499   3.052   5.320  14.301 -0.5028 -0.1540 -0.0547
 2003TIP3    H127500   3.051   5.291  14.210 -0.1761 -3.4089  0.8976
 2003TIP3    H227501   2.972   5.283  14.338  0.5706 -0.9425  1.5397
 2004TIP3   OH227502   6.183   5.193   4.866 -0.0989 -0.7560  0.0095
 2004TIP3    H127503   6.089   5.174   4.860 -0.1099 -0.8564  0.4964
 2004TIP3    H227504   6.188   5.276   4.913  0.0925 -1.1214  0.6260
 2005TIP3   OH227505   6.514   1.762  14.691 -0.5613  0.0666  0.2992
 2005TIP3    H127506   6.428   1.721  14.694 -1.1223  1.2160  0.3613
 2005TIP3    H227507   6.508   1.824  14.618  0.4801 -0.4219 -0.2142
 2006TIP3   OH227508   1.987   6.097  13.958 -0.5053 -0.2390 -0.2382
 2006TIP3    H127509   1.983   6.135  14.045  3.0808 -1.0093  0.3481
 2006TIP3    H227510   2.058   6.033  13.963 -1.0285 -1.1536 -3.3997
 2007TIP3   OH227511   3.274   3.636   3.273  0.4375  0.2289  0.3740
 2007TIP3    H127512   3.228   3.715   3.244  2.4598  1.6583  1.0011
 2007TIP3    H227513   3.301   3.655   3.363  1.3408 -1.0042  0.3780
 2008TIP3   OH227514   0.113   1.794   0.559  0.3566 -0.1347  0.0467
 2008TIP3    H127515   0.060   1.715   0.566 -0.9608  0.6529 -1.0728
 2008TIP3    H227516   0.114   1.815   0.466  1.2636  0.7969  0.2566
 2009TIP3   OH227517   0.220   4.909   3.388  0.3349  0.6050 -0.0269
 2009TIP3    H127518   0.126   4.907   3.367  0.7302 -1.7059 -1.7005
 2009TIP3    H227519   0.224   4.885   3.481 -0.7080  0.3487 -0.0356
 2010TIP3   OH227520   4.642   4.851  15.627 -0.4905 -0.1202  0.3317
 2010TIP3    H127521   4.721   4.818  15.670 -0.3677 -0.5656 -0.2205
 2010TIP3    H227522   4.570   4.817  15.681 -0.3535 -1.0890 -0.0789
 2011TIP3   OH227523   1.240   3.635  15.476 -0.0469  0.5497 -0.1936
 2011TIP3    H127524   1.232   3.701  15.545 -1.9592  2.5736 -2.2453
 2011TIP3    H227525   1.323   3.655  15.433  0.5690  0.0406  0.7419
 2012TIP3   OH227526   4.707   0.028   6.593  0.1268 -0.4835  0.4607
 2012TIP3    H127527   4.698   0.053   6.501  1.4834  1.3316  0.8062
 2012TIP3    H227528   4.711  -0.068   6.591  1.3504 -0.4175 -1.4600
 2013TIP3   OH227529   1.311   5.327  12.359 -0.1131  0.0576 -0.3145
 2013TIP3    H127530   1.267   5.280  12.430  2.4691 -0.1450  1.1752
 2013TIP3    H227531   1.255   5.312  12.283 -1.7906 -1.5032  1.1823
 2014TIP3   OH227532   3.937   1.609   1.552 -0.4635 -0.0210  0.1780
 2014TIP3    H127533   4.023   1.569   1.540  1.3370  3.6228  0.5132
 2014TIP3    H227534   3.954   1.691   1.598 -3.9702  1.4114 -0.9000
 2015TIP3   OH227535   5.215   5.267   0.061 -0.3677  0.5569  0.4234
 2015TIP3    H127536   5.186   5.177   0.045 -0.5529  0.6831  0.0452
 2015TIP3    H227537   5.309   5.265   0.039  0.1937 -0.1346  2.7762
 2016TIP3   OH227538   0.728   6.144  16.674 -0.3408 -0.6253 -0.1700
 2016TIP3    H127539   0.708   6.226  16.629  0.2608 -1.8767 -2.8157
 2016TIP3    H227540   0.654   6.131  16.733 -0.1281  2.1291  0.7657
 2017TIP3   OH227541   3.863   4.530   0.558  0.0016  0.5723  0.3963
 2017TIP3    H127542   3.935   4.481   0.598  0.1598  1.0586  0.7047
 2017TIP3    H227543   3.877   4.519   0.463 -0.9689 -1.4462  0.4585
 2018TIP3   OH227544   6.185   2.664   6.789  0.7199 -0.2425  0.3050
 2018TIP3    H127545   6.245   2.638   6.719  1.2185  0.5475  0.4318
 2018TIP3    H227546   6.102   2.624   6.766  0.5959  0.9264 -1.3260
 2019TIP3   OH227547   3.307   1.052   0.744  0.0169  0.0954 -0.1456
 2019TIP3    H127548   3.217   1.081   0.756 -0.5594 -1.0466 -1.5007
 2019TIP3    H227549   3.308   1.013   0.656  1.6852 -0.4219  0.0780
 2020TIP3   OH227550   0.843   4.353   2.950 -0.5625 -0.8453  0.0864
 2020TIP3    H127551   0.880   4.415   3.013 -0.8802 -0.1775 -0.3775
 2020TIP3    H227552   0.918   4.325   2.897 -0.8629  1.3621 -1.5803
 2021TIP3   OH227553   5.499   0.625  12.079  0.5195 -0.6751 -0.6675
 2021TIP3    H127554   5.505   0.578  12.162  1.7176 -1.4819 -1.1950
 2021TIP3    H227555   5.482   0.556  12.014  3.0691 -0.5397 -1.5540
 2022TIP3   OH227556   5.542   6.447   1.976  0.0325  0.5317  1.1675
 2022TIP3    H127557   5.592   6.523   2.007  1.0812 -0.0170  0.8406
 2022TIP3    H227558   5.551   6.451   1.881  0.5643 -0.3246  1.1805
 2023TIP3   OH227559   2.593   6.467   2.318  0.0885 -0.0683  0.4712
 2023TIP3    H127560   2.507   6.470   2.276  1.6701  0.3670 -2.8843
 2023TIP3    H227561   2.605   6.375   2.342  0.0536 -0.7870 -2.1087
 2024TIP3   OH227562   1.463   0.798  17.106  0.3498  0.1999  0.4634
 2024TIP3    H127563   1.431   0.722  17.155  0.6619 -0.2335 -0.0013
 2024TIP3    H227564   1.407   0.870  17.135 -2.6907 -1.0021 -2.1321
 2025TIP3   OH227565   2.015   6.807  15.198  0.3545 -0.3077  0.0615
 2025TIP3    H127566   2.028   6.759  15.116  1.1008 -1.3413  0.7711
 2025TIP3    H227567   1.921   6.798  15.217  0.9502 -4.1137  1.7399
 2026TIP3   OH227568   4.700   1.189   1.326 -0.4912  0.3812  0.9817
 2026TIP3    H127569   4.646   1.259   1.289 -0.4782  1.1247  2.3367
 2026TIP3    H227570   4.687   1.196   1.421  0.7829 -0.4011  1.2289
 2027TIP3   OH227571   5.783   2.100  11.438 -0.2215  0.4150  0.2432
 2027TIP3    H127572   5.842   2.116  11.364 -0.2173  0.8904  0.3490
 2027TIP3    H227573   5.696   2.124  11.405 -0.4193 -0.6513 -0.0380
 2028TIP3   OH227574   6.242   5.974  16.034 -0.1628  0.6899  0.1216
 2028TIP3    H127575   6.224   5.917  16.108 -1.1290 -0.2447 -0.8181
 2028TIP3    H227576   6.335   5.959  16.014  0.4314  1.8591  1.8895
 2029TIP3   OH227577   2.718   1.448  15.833  0.0030 -0.1264  0.4073
 2029TIP3    H127578   2.636   1.439  15.880 -0.3931  1.7005  0.1029
 2029TIP3    H227579   2.728   1.365  15.785 -1.4832 -0.4824  0.7002
 2030TIP3   OH227580   0.630   6.379   3.079 -1.0151 -0.1479  0.3180
 2030TIP3    H127581   0.718   6.416   3.073 -0.4960 -1.1193  1.5664
 2030TIP3    H227582   0.575   6.452   3.109 -0.4260  0.1743  0.6157
 2031TIP3   OH227583   4.270   0.690  10.560 -0.3508  0.2731  0.0557
 2031TIP3    H127584   4.216   0.677  10.638 -1.1361 -1.5115 -0.7477
 2031TIP3    H227585   4.238   0.624  10.498  0.4796  1.4505 -1.6544
 2032TIP3   OH227586   3.595   5.674  14.586 -0.1863  0.7133  0.5161
 2032TIP3    H127587   3.513   5.722  14.597  0.1275  1.3228  0.2432
 2032TIP3    H227588   3.633   5.672  14.674 -1.0669 -0.6460  0.8903
 2033TIP3   OH227589   6.492   6.532  16.572  0.4599 -0.4534  0.0235
 2033TIP3    H127590   6.502   6.530  16.667  2.6124 -1.3574 -0.1988
 2033TIP3    H227591   6.403   6.498  16.557 -0.4506  1.0678  1.7564
 2034TIP3   OH227592   3.969   4.389  12.428 -0.4324  0.0315  0.0536
 2034TIP3    H127593   4.028   4.376  12.354 -1.2476 -1.1665 -0.4051
 2034TIP3    H227594   4.007   4.336  12.498 -1.2793 -1.2150 -0.4231
 2035TIP3   OH227595   5.911   2.876   3.861  0.7991  0.8479 -0.1927
 2035TIP3    H127596   5.919   2.966   3.830  0.0207  1.1138  0.3487
 2035TIP3    H227597   5.874   2.885   3.949 -0.1105 -0.0346 -0.4707
 2036TIP3   OH227598   2.919   3.456   0.461 -0.6930  0.1432  0.1478
 2036TIP3    H127599   2.869   3.499   0.391  0.1796  0.1589 -0.4809
 2036TIP3    H227600   2.876   3.484   0.542  0.1305  2.6109 -0.2214
 2037TIP3   OH227601   5.490   1.087  16.895 -0.3367  0.1637 -0.5269
 2037TIP3    H127602   5.499   0.995  16.920 -1.1565  0.0999 -0.4673
 2037TIP3    H227603   5.396   1.103  16.895 -0.2285  0.8054 -1.2739
 2038TIP3   OH227604   3.779   0.881  12.175 -0.8178 -0.6974 -0.1428
 2038TIP3    H127605   3.861   0.928  12.192 -1.3549 -0.3419  1.5442
 2038TIP3    H227606   3.803   0.812  12.113  0.4008  0.5084 -1.0231
 2039TIP3   OH227607   2.436   0.334   1.436  0.0816 -0.5545 -0.5187
 2039TIP3    H127608   2.344   0.327   1.460  0.0961 -1.2216 -0.6475
 2039TIP3    H227609   2.440   0.301   1.347  0.5989 -1.4758 -0.1654
 2040TIP3   OH227610   3.085   2.108   2.565 -0.3632  0.0690  0.8258
 2040TIP3    H127611   3.136   2.149   2.635  1.0309 -0.6256  0.2325
 2040TIP3    H227612   3.066   2.020   2.597  0.8409 -0.4812  0.0902
 2041TIP3   OH227613   0.438   2.742  12.489  0.0860  0.1949 -0.0494
 2041TIP3    H127614   0.355   2.788  12.502  0.0493  0.5667 -1.5052
 2041TIP3    H227615   0.487   2.757  12.571 -0.7644  1.0532  0.3145
 2042TIP3   OH227616   0.722   3.811  12.600 -0.6856 -0.2351 -0.2654
 2042TIP3    H127617   0.689   3.849  12.519 -0.2299  0.5303 -0.1001
 2042TIP3    H227618   0.784   3.744  12.572 -1.4582 -0.8269 -0.5606
 2043TIP3   OH227619   6.258   0.326   4.905  0.0221  0.1657 -0.0623
 2043TIP3    H127620   6.237   0.283   4.988 -2.1156  1.5956  0.1795
 2043TIP3    H227621   6.279   0.254   4.845 -1.2740 -1.0666  0.9273
 2044TIP3   OH227622   1.325   4.916  15.298  0.1383  0.1401  0.4289
 2044TIP3    H127623   1.307   4.895  15.390  0.8456  1.6121  0.9354
 2044TIP3    H227624   1.264   4.988  15.278  0.3193  0.1479 -0.0983
 2045TIP3   OH227625   4.919   2.418  13.200 -0.5813  0.0368 -0.7620
 2045TIP3    H127626   4.905   2.489  13.264  1.1241  0.0960 -0.4239
 2045TIP3    H227627   4.951   2.462  13.122  1.6006 -0.4397 -0.1705
 2046TIP3   OH227628   2.939   5.156   1.200 -0.4034 -0.1201  0.4866
 2046TIP3    H127629   2.923   5.091   1.269 -2.3463 -0.9025 -0.6625
 2046TIP3    H227630   2.887   5.126   1.126  1.5496  0.7899 -1.3041
 2047TIP3   OH227631   5.711   4.597   1.904 -0.2358  0.3496  0.1146
 2047TIP3    H127632   5.796   4.553   1.911  0.9993  2.3788 -1.4730
 2047TIP3    H227633   5.658   4.539   1.849  0.1134 -0.9078  1.0912
 2048TIP3   OH227634   6.401   1.514  10.678  0.6764 -0.4702 -0.4116
 2048TIP3    H127635   6.469   1.462  10.721  1.8617 -0.2621 -1.9815
 2048TIP3    H227636   6.321   1.463  10.691  1.6792 -2.3034 -1.2045
 2049TIP3   OH227637   2.747   5.135   5.134 -0.6421  1.0591  0.0482
 2049TIP3    H127638   2.743   5.227   5.160 -0.9843  0.5249  1.9435
 2049TIP3    H227639   2.818   5.098   5.187  0.5667  0.5667 -1.8543
 2050TIP3   OH227640   1.276   0.300   3.716  0.0756 -0.6687  0.4104
 2050TIP3    H127641   1.368   0.277   3.732 -0.6103 -2.1186  2.5435
 2050TIP3    H227642   1.252   0.356   3.790 -1.4254 -2.3386  1.2242
 2051TIP3   OH227643   5.255   0.846  16.908  0.1735 -0.0355  0.0693
 2051TIP3    H127644   5.309   0.835  16.986 -0.6029 -0.4035  0.5647
 2051TIP3    H227645   5.252   0.940  16.893  1.2622 -0.0334 -0.1916
 2052TIP3   OH227646   4.486   0.104  12.395  0.4229 -0.1305  0.1589
 2052TIP3    H127647   4.579   0.124  12.406  0.4370  0.9133 -1.6255
 2052TIP3    H227648   4.472   0.025  12.448  2.2770 -0.2144  0.5672
 2053TIP3   OH227649   2.840   0.037  16.114  0.7293  0.3049 -0.2552
 2053TIP3    H127650   2.793  -0.045  16.127 -0.6712  0.8654 -1.6895
 2053TIP3    H227651   2.779   0.105  16.145  1.2475  0.9268 -0.5869
 2054TIP3   OH227652   2.062   2.705   3.885  0.2333 -0.0204 -0.5725
 2054TIP3    H127653   2.157   2.696   3.873  0.6139  0.2339  2.0408
 2054TIP3    H227654   2.033   2.751   3.807  2.6174  2.0125 -0.3325
 2055TIP3   OH227655   1.559   2.012  15.605  0.2014  1.0025  0.2616
 2055TIP3    H127656   1.574   1.917  15.605  0.7184  1.0111 -3.7091
 2055TIP3    H227657   1.463   2.020  15.603  0.1524  0.4085 -3.6470
 2056TIP3   OH227658   3.025   1.396  12.751 -0.0090  0.6872 -0.2013
 2056TIP3    H127659   2.950   1.336  12.747  0.2763  0.3324 -0.1674
 2056TIP3    H227660   3.067   1.377  12.834  0.5437  0.3843 -0.5495
 2057TIP3   OH227661   3.631   6.786  14.685 -0.9216 -0.0039  0.1350
 2057TIP3    H127662   3.602   6.861  14.737  1.8150  0.8075  0.5735
 2057TIP3    H227663   3.576   6.714  14.714  0.0429  0.5883  3.7193
 2058TIP3   OH227664   3.979   5.388  16.428 -0.0500 -0.1348 -0.0407
 2058TIP3    H127665   3.910   5.425  16.483  0.8782  0.9795  0.4192
 2058TIP3    H227666   3.985   5.296  16.455 -1.4258 -0.2787 -0.1879
 2059TIP3   OH227667   3.325   4.083  11.819  0.2846  0.1789  0.2546
 2059TIP3    H127668   3.368   4.090  11.905  1.3665 -2.6221 -0.0085
 2059TIP3    H227669   3.385   4.128  11.759 -0.6116  2.3962  0.9645
 2060TIP3   OH227670   3.981   4.779   0.929 -0.2628 -0.1826  0.1158
 2060TIP3    H127671   4.039   4.783   1.004  0.8454  1.5179 -0.8027
 2060TIP3    H227672   3.921   4.853   0.941 -0.1412  0.0389 -0.6088
 2061TIP3   OH227673   4.253   4.831   6.196 -0.3536  0.2806 -0.0632
 2061TIP3    H127674   4.219   4.759   6.142 -0.1232 -0.3808  0.6599
 2061TIP3    H227675   4.176   4.885   6.213 -0.4431  0.4601 -0.9971
 2062TIP3   OH227676   3.632   4.737   1.930 -0.1938  0.0269 -0.1196
 2062TIP3    H127677   3.599   4.668   1.873 -1.2892 -1.6263  2.4403
 2062TIP3    H227678   3.578   4.813   1.909 -0.0809 -0.3318 -1.7985
 2063TIP3   OH227679   1.078   0.108   0.173 -0.1426 -0.2288  0.3417
 2063TIP3    H127680   1.133   0.186   0.172 -2.4779  1.4934  0.8874
 2063TIP3    H227681   1.010   0.125   0.108 -0.7770 -1.7483  0.5647
 2064TIP3   OH227682   1.681   0.709  12.966  0.5992  0.0070 -0.1540
 2064TIP3    H127683   1.603   0.653  12.956  1.1020 -0.2675 -2.9843
 2064TIP3    H227684   1.748   0.650  13.001  0.2940 -0.4237 -0.2888
 2065TIP3   OH227685   1.862   6.778  12.623  0.0219  0.1857  0.3248
 2065TIP3    H127686   1.917   6.854  12.605  0.2257  0.1496  0.7669
 2065TIP3    H227687   1.797   6.777  12.553 -0.3205  1.0840  0.6147
 2066TIP3   OH227688   0.105   0.946  15.378  0.0066  0.1606  0.4978
 2066TIP3    H127689   0.074   0.912  15.294  1.7355 -1.8793  0.6531
 2066TIP3    H227690   0.200   0.954  15.367 -0.0319  2.1738  1.4728
 2067TIP3   OH227691   6.299   0.130  15.004 -0.2537 -0.5778  0.0077
 2067TIP3    H127692   6.346   0.138  15.087 -0.7816  0.0865  0.2436
 2067TIP3    H227693   6.364   0.092  14.944  1.1000  1.8082 -0.1088
 2068TIP3   OH227694   2.075   4.738   5.428 -0.3897  0.2769  0.3424
 2068TIP3    H127695   2.058   4.739   5.522 -2.2169  1.9800  0.0374
 2068TIP3    H227696   2.142   4.805   5.415  0.5743 -0.6371  0.5319
 2069TIP3   OH227697   0.527   2.492  14.072  0.1238 -0.3004 -0.1934
 2069TIP3    H127698   0.443   2.446  14.073 -0.1349  0.1134 -1.7287
 2069TIP3    H227699   0.554   2.491  13.980  1.3489  0.3823  0.1482
 2070TIP3   OH227700   2.740   0.072  12.801  0.1863 -0.7912  0.6166
 2070TIP3    H127701   2.828   0.036  12.813 -0.5639 -2.4905  1.1753
 2070TIP3    H227702   2.723   0.064  12.707  0.6789 -0.3417  0.4878
 2071TIP3   OH227703   5.735   5.646  11.528  0.7870  0.3411  0.0104
 2071TIP3    H127704   5.824   5.668  11.501  0.8328  1.5193  1.0521
 2071TIP3    H227705   5.746   5.581  11.597  1.0342  2.7887  2.3882
 2072TIP3   OH227706   2.890   1.162  11.921 -0.2031 -0.4497  1.0361
 2072TIP3    H127707   2.812   1.128  11.876 -0.3098  2.8924 -1.5325
 2072TIP3    H227708   2.962   1.144  11.860  0.2688  0.6791  1.2446
 2073TIP3   OH227709   5.192   4.875   5.237  0.0071 -0.2638  0.2316
 2073TIP3    H127710   5.149   4.955   5.267  1.6704 -0.1160  2.3596
 2073TIP3    H227711   5.124   4.828   5.190 -1.2669  1.9586 -0.2295
 2074TIP3   OH227712   5.050   5.472  11.348  0.5308 -0.7460 -0.2177
 2074TIP3    H127713   5.126   5.516  11.309  1.7030  0.2382  3.0552
 2074TIP3    H227714   5.016   5.535  11.411 -0.4911 -2.8012  1.3393
 2075TIP3   OH227715   3.149   0.442   0.812 -0.5248 -0.4512 -0.2555
 2075TIP3    H127716   3.140   0.386   0.735 -1.1378 -1.4102  0.5007
 2075TIP3    H227717   3.069   0.426   0.862  0.2909 -0.5563  1.0456
 2076TIP3   OH227718   6.334   0.579   4.327  0.3242 -0.2543 -0.2994
 2076TIP3    H127719   6.346   0.503   4.384  1.5739 -0.2549 -0.5410
 2076TIP3    H227720   6.384   0.649   4.369 -2.0592  0.8836  0.7300
 2077TIP3   OH227721   5.219   6.623   5.240 -0.3113  0.6833 -0.2103
 2077TIP3    H127722   5.253   6.534   5.238 -2.5447 -0.1850 -0.4815
 2077TIP3    H227723   5.283   6.672   5.291  0.4857 -1.2535  0.6876
 2078TIP3   OH227724   4.035   0.544  11.058 -0.2974  0.5244  0.4483
 2078TIP3    H127725   4.122   0.553  11.097  0.4884 -1.8328 -0.6490
 2078TIP3    H227726   4.042   0.588  10.973  0.0330 -0.2417  0.0751
 2079TIP3   OH227727   0.806   2.855  13.468  0.3187  0.1995 -0.3645
 2079TIP3    H127728   0.742   2.807  13.521  0.6892  0.4325  0.2934
 2079TIP3    H227729   0.811   2.942  13.510  1.8445 -0.1621  0.2128
 2080TIP3   OH227730   5.823   2.549   2.835 -0.1871 -0.2846 -0.4331
 2080TIP3    H127731   5.829   2.627   2.779 -1.5374  0.3932  0.3493
 2080TIP3    H227732   5.913   2.515   2.837 -0.4192 -1.4265 -4.5021
 2081TIP3   OH227733   6.336   3.355   4.951  0.0921 -0.5477 -0.0672
 2081TIP3    H127734   6.304   3.431   5.000 -0.0377 -0.1618 -0.7416
 2081TIP3    H227735   6.432   3.366   4.950 -0.0808  1.1430 -2.5914
 2082TIP3   OH227736   5.140   2.570   1.979  0.2765 -0.1385 -0.2977
 2082TIP3    H127737   5.099   2.631   2.040  0.2080  0.2299 -0.7114
 2082TIP3    H227738   5.222   2.614   1.955  1.2040 -1.1240  0.9716
 2083TIP3   OH227739   5.136   0.678   3.216 -0.0315  0.1267 -0.0299
 2083TIP3    H127740   5.166   0.600   3.169 -0.6451  1.1137 -2.1273
 2083TIP3    H227741   5.183   0.750   3.174 -1.4265  1.1443  0.1503
 2084TIP3   OH227742   1.671   5.862   6.576  0.0660 -0.0947  0.0934
 2084TIP3    H127743   1.661   5.771   6.550  0.0872 -0.0750  0.0183
 2084TIP3    H227744   1.764   5.881   6.564  0.3070 -0.4519  1.3546
 2085TIP3   OH227745   4.737   3.007   1.998 -0.2882  0.3417 -0.2941
 2085TIP3    H127746   4.778   3.050   1.922 -0.7242  0.6035 -0.3843
 2085TIP3    H227747   4.644   3.002   1.975 -0.3261 -0.1630 -0.0496
 2086TIP3   OH227748   2.334   5.059   5.980  0.3371 -0.3052 -0.7835
 2086TIP3    H127749   2.309   5.151   5.981 -0.8887 -0.6388 -0.1758
 2086TIP3    H227750   2.260   5.014   5.940  0.0884 -1.2547  0.7174
 2087TIP3   OH227751   0.603   0.889   3.675 -0.1137 -0.4736 -0.0632
 2087TIP3    H127752   0.652   0.891   3.758  0.6287 -1.3905 -0.4653
 2087TIP3    H227753   0.523   0.841   3.696 -1.1887  1.6495  0.7713
 2088TIP3   OH227754   4.795   4.860  12.890 -0.5517  0.3773  0.6735
 2088TIP3    H127755   4.834   4.938  12.930  1.7598 -0.3115 -0.1880
 2088TIP3    H227756   4.868   4.800  12.877 -1.9349 -1.0406 -0.7948
 2089TIP3   OH227757   5.516   0.322  16.522 -0.0152 -0.1801 -0.6923
 2089TIP3    H127758   5.436   0.270  16.517 -1.1047  1.5790 -2.2042
 2089TIP3    H227759   5.534   0.348  16.432  0.4876  2.0321  0.0181
 2090TIP3   OH227760   6.373   6.514   1.260  0.2314  0.0122 -0.0832
 2090TIP3    H127761   6.347   6.606   1.258 -3.2008 -0.8798  0.5490
 2090TIP3    H227762   6.443   6.510   1.326  1.2762  2.3414 -1.0114
 2091TIP3   OH227763   1.835   2.448  14.608 -0.1300  0.0344  0.0997
 2091TIP3    H127764   1.875   2.495  14.681 -0.5168 -0.7437  0.8312
 2091TIP3    H227765   1.740   2.455  14.624 -0.2173 -0.0404 -0.3856
 2092TIP3   OH227766   3.406   1.065  16.974  0.6640 -0.2341  0.3232
 2092TIP3    H127767   3.414   1.159  16.990  0.6950 -0.3319  0.9190
 2092TIP3    H227768   3.357   1.032  17.050  0.6713 -0.6963  0.1336
 2093TIP3   OH227769   5.883   1.496  16.755 -0.0079 -0.4239  0.2231
 2093TIP3    H127770   5.816   1.442  16.796  0.6958 -2.0529 -0.7417
 2093TIP3    H227771   5.836   1.545  16.687 -0.6898  0.3766  1.2669
 2094TIP3   OH227772   1.613   5.963  11.943 -0.1478  0.4601 -0.4344
 2094TIP3    H127773   1.640   6.013  11.866 -1.2565 -0.2326 -1.2712
 2094TIP3    H227774   1.526   5.931  11.922  0.3043 -1.3335  0.3413
 2095TIP3   OH227775   1.450   3.183   0.434 -0.0327 -0.4169 -0.1697
 2095TIP3    H127776   1.371   3.196   0.382  1.4678 -1.6991 -2.8842
 2095TIP3    H227777   1.521   3.216   0.379  1.5298 -1.1554  1.3603
 2096TIP3   OH227778   4.746   5.687  13.665  0.2069  0.3497 -0.9311
 2096TIP3    H127779   4.676   5.626  13.641  1.4890 -1.2704 -0.6676
 2096TIP3    H227780   4.713   5.732  13.743 -0.8649  0.1889 -1.2760
 2097TIP3   OH227781   5.971   3.464  14.498  0.4719 -0.4700  0.0771
 2097TIP3    H127782   5.883   3.466  14.537  0.6073 -0.0128  0.3634
 2097TIP3    H227783   6.020   3.404  14.554  0.0119 -1.6959 -0.8048
 2098TIP3   OH227784   2.770   2.273  17.117  0.4333  0.4608  0.0734
 2098TIP3    H127785   2.675   2.269  17.124  0.4872 -0.0213  0.5255
 2098TIP3    H227786   2.802   2.201  17.171  1.0337  0.1917 -0.6271
 2099TIP3   OH227787   2.654   4.081  13.363 -0.4255  0.2610  0.0685
 2099TIP3    H127788   2.673   4.105  13.453 -0.8481 -0.8909  0.4796
 2099TIP3    H227789   2.612   3.995  13.369 -1.4547  0.6500 -1.1325
 2100TIP3   OH227790   1.117   6.105  15.335  0.5132  0.2526  0.1441
 2100TIP3    H127791   1.156   6.072  15.253 -0.2335 -0.6096  0.1229
 2100TIP3    H227792   1.139   6.038  15.400 -0.4774  0.0069  0.2395
 2101TIP3   OH227793   3.673   0.565  16.957 -0.5978 -0.1273  0.1950
 2101TIP3    H127794   3.632   0.501  16.900  0.2011  0.4101 -1.0153
 2101TIP3    H227795   3.617   0.569  17.034 -0.8648 -1.9783  0.1116
 2102TIP3   OH227796   3.579   4.457  14.248 -0.3201 -0.3154  0.1659
 2102TIP3    H127797   3.625   4.412  14.176 -1.6088  0.2340 -1.0287
 2102TIP3    H227798   3.649   4.501  14.296  0.7608 -2.0618  0.2608
 2103TIP3   OH227799   4.554   6.174   3.466  0.3020  0.2183 -0.2435
 2103TIP3    H127800   4.592   6.088   3.451  0.4754  0.4652 -1.2621
 2103TIP3    H227801   4.616   6.218   3.524  1.1153  0.2933 -1.1649
 2104TIP3   OH227802   4.829   1.302  12.482 -0.0175 -0.1534  0.4678
 2104TIP3    H127803   4.765   1.272  12.546  0.4001 -0.4813  0.7368
 2104TIP3    H227804   4.864   1.383  12.520  0.9424 -0.8636  1.1465
 2105TIP3   OH227805   1.320   0.279  15.234 -0.3733  0.1574 -0.0952
 2105TIP3    H127806   1.265   0.325  15.171 -1.4578  0.0914  0.8014
 2105TIP3    H227807   1.401   0.260  15.186  0.7079  4.2370 -0.0864
 2106TIP3   OH227808   2.751   0.759  11.019  0.2607  0.1205  0.3584
 2106TIP3    H127809   2.825   0.721  11.067  0.1526 -0.9604 -0.3125
 2106TIP3    H227810   2.694   0.795  11.087  1.7593  1.6501  0.8469
 2107TIP3   OH227811   3.373   1.732   0.822 -0.0325 -0.3562  0.5054
 2107TIP3    H127812   3.425   1.676   0.879  1.5405  1.6797  1.1408
 2107TIP3    H227813   3.435   1.763   0.756 -0.7175  1.0755  0.5111
 2108TIP3   OH227814   1.200   2.003  12.271  0.0250 -0.0784  0.0457
 2108TIP3    H127815   1.152   2.022  12.351 -0.0434 -1.3091  0.3136
 2108TIP3    H227816   1.242   1.919  12.288  1.4467  0.4934 -0.5564
 2109TIP3   OH227817   1.361   6.268  11.715  0.1266 -0.3419 -0.7892
 2109TIP3    H127818   1.446   6.225  11.715  0.3773  0.1466 -0.1862
 2109TIP3    H227819   1.327   6.254  11.803  0.9249  2.0802 -0.0583
 2110TIP3   OH227820   2.242   5.017  12.249  0.1900  0.5882  0.3771
 2110TIP3    H127821   2.171   4.976  12.299 -0.7237  0.9994 -0.5638
 2110TIP3    H227822   2.232   5.111  12.267  0.7836  0.6111  0.6017
 2111TIP3   OH227823   3.572   0.164   4.002 -0.7861  0.7218  0.0407
 2111TIP3    H127824   3.569   0.169   3.906  0.0374  1.8359  0.0636
 2111TIP3    H227825   3.618   0.082   4.020 -1.8221  0.0119 -0.5038
 2112TIP3   OH227826   4.446   4.334  16.373 -0.4559  0.1858  0.0163
 2112TIP3    H127827   4.391   4.257  16.387 -0.6922  0.5027  0.8489
 2112TIP3    H227828   4.385   4.408  16.376 -0.4867  0.2853 -2.5042
 2113TIP3   OH227829   3.000   6.508   1.573 -0.9565 -0.2733  0.1151
 2113TIP3    H127830   2.932   6.498   1.640 -1.1518 -1.5099 -0.2557
 2113TIP3    H227831   3.018   6.418   1.544  0.2803  0.1155 -0.3446
 2114TIP3   OH227832   2.716   1.272  13.095  0.1728  0.2406 -0.0694
 2114TIP3    H127833   2.688   1.214  13.167  1.5701  0.5207  0.7140
 2114TIP3    H227834   2.765   1.341  13.138  1.6707  0.0033 -1.3758
 2115TIP3   OH227835   2.269   6.032  11.733  0.0756 -0.0935  0.0768
 2115TIP3    H127836   2.274   6.075  11.648  1.1711  0.7872  0.5735
 2115TIP3    H227837   2.203   6.082  11.782 -1.0234 -0.9947 -0.4655
 2116TIP3   OH227838   4.138   1.885   0.799  0.5356 -0.3704 -0.4295
 2116TIP3    H127839   4.068   1.888   0.864  0.7655 -0.2069 -0.1884
 2116TIP3    H227840   4.094   1.898   0.715  0.2925 -0.1471 -0.2684
 2117TIP3   OH227841   6.818   6.696   1.272  0.2204 -0.0063 -0.3864
 2117TIP3    H127842   6.857   6.692   1.185 -0.2697 -4.4668 -0.5431
 2117TIP3    H227843   6.817   6.789   1.294  4.1990  0.8959 -3.3722
 2118TIP3   OH227844   2.587   4.513   0.264  0.1390 -0.1833 -0.4529
 2118TIP3    H127845   2.637   4.587   0.300 -0.4471 -0.2455  0.5101
 2118TIP3    H227846   2.577   4.453   0.338  0.4294 -1.1368 -1.1805
 2119TIP3   OH227847   2.778   5.118   2.591 -0.2131 -0.2882  0.4682
 2119TIP3    H127848   2.853   5.060   2.608  0.8074  0.8324 -0.1938
 2119TIP3    H227849   2.748   5.144   2.678  0.6604 -0.1173  0.7261
 2120TIP3   OH227850   2.982   5.913  12.907  1.2769 -0.3315  0.1935
 2120TIP3    H127851   2.945   5.830  12.937  0.5107  0.2767  0.9547
 2120TIP3    H227852   3.064   5.922  12.956  1.7462 -0.9842 -0.4423
 2121TIP3   OH227853   5.067   3.327  13.420 -0.8170 -0.0196 -0.1664
 2121TIP3    H127854   5.135   3.261  13.406 -0.9070 -0.1432 -0.0118
 2121TIP3    H227855   5.002   3.309  13.352 -0.3879  0.5029 -0.7226
 2122TIP3   OH227856   2.028   0.199   1.176  0.3620 -0.4010  0.3192
 2122TIP3    H127857   1.961   0.207   1.109 -0.9040 -1.3606  1.4427
 2122TIP3    H227858   2.081   0.124   1.149 -0.2715 -0.9160  0.4783
 2123TIP3   OH227859   3.207   5.729  12.730  0.2232 -0.5934  0.8083
 2123TIP3    H127860   3.161   5.710  12.812 -0.7142 -1.5439  0.0737
 2123TIP3    H227861   3.197   5.649  12.678 -2.9678  1.4923 -1.9952
 2124TIP3   OH227862   4.046   1.135   1.573 -0.0462 -0.1108  0.1242
 2124TIP3    H127863   3.999   1.211   1.608 -0.7419 -1.8318  3.0675
 2124TIP3    H227864   4.071   1.161   1.484 -1.9138  2.8312  0.4051
 2125TIP3   OH227865   5.161   3.878  12.609 -0.4799  0.0145  0.1249
 2125TIP3    H127866   5.137   3.906  12.521  0.2679  1.7988  0.4785
 2125TIP3    H227867   5.245   3.920  12.626  0.4192 -2.0205  0.8931
 2126TIP3   OH227868   3.788   5.633  12.033  0.1320 -0.5196  0.1295
 2126TIP3    H127869   3.769   5.717  12.075 -1.1480 -2.1388  2.9307
 2126TIP3    H227870   3.883   5.622  12.043  0.5935  1.3380 -1.8048
 2127TIP3   OH227871   3.337   1.336  17.049  0.1809  0.3444 -0.7224
 2127TIP3    H127872   3.274   1.382  17.104  2.8428  0.0542  2.7471
 2127TIP3    H227873   3.388   1.406  17.008  1.0412  0.5553  0.6814
 2128TIP3   OH227874   1.881   4.889  12.014  0.8176 -0.0785  0.2206
 2128TIP3    H127875   1.935   4.967  12.024  0.9631 -0.4695  2.9571
 2128TIP3    H227876   1.938   4.825  11.972  1.4378  0.5420  0.1108
 2129TIP3   OH227877   0.581   4.666   2.667 -0.9000 -0.2108  0.0926
 2129TIP3    H127878   0.609   4.698   2.753  0.4683 -2.0875  0.3617
 2129TIP3    H227879   0.626   4.724   2.604  3.0357 -2.5931  0.5362
 2130TIP3   OH227880   4.902   2.427   4.172 -0.4101  0.0961 -0.0687
 2130TIP3    H127881   4.868   2.512   4.201  0.2903  0.0500  0.9444
 2130TIP3    H227882   4.958   2.398   4.245 -1.3870 -1.6731  0.0095
 2131TIP3   OH227883   6.011   2.681  15.228  0.5905  0.1657 -0.2580
 2131TIP3    H127884   5.984   2.768  15.202  0.5928  0.2036 -0.1317
 2131TIP3    H227885   6.050   2.643  15.148 -0.0331  0.0255 -0.5007
 2132TIP3   OH227886   6.152   3.415  11.280  0.0828  0.1015 -0.0416
 2132TIP3    H127887   6.215   3.369  11.336  1.3248 -0.6688 -2.0192
 2132TIP3    H227888   6.185   3.402  11.191 -0.9972  2.5946 -0.8621
 2133TIP3   OH227889   2.091   3.152   0.113 -0.0491 -0.2360 -0.9880
 2133TIP3    H127890   2.001   3.138   0.083  0.0547 -2.5498 -0.2825
 2133TIP3    H227891   2.106   3.084   0.178  2.9924 -1.3943 -2.7858
 2134TIP3   OH227892   5.762   6.280   5.871 -0.2143 -0.2910  0.7597
 2134TIP3    H127893   5.842   6.229   5.861 -1.2646 -1.5227 -1.7348
 2134TIP3    H227894   5.792   6.370   5.885  1.5863 -0.8978  0.8739
 2135TIP3   OH227895   4.301   2.885  15.566  0.5321 -0.0765 -0.1073
 2135TIP3    H127896   4.364   2.830  15.612  0.9365  0.4273 -0.0539
 2135TIP3    H227897   4.343   2.971  15.561 -1.2121  0.9570  2.1984
 2136TIP3   OH227898   0.611   6.487   1.659 -0.1344 -0.4465  0.3591
 2136TIP3    H127899   0.626   6.556   1.595  0.1542  1.3276  2.2775
 2136TIP3    H227900   0.522   6.457   1.642  0.1698 -0.4618 -1.2767
 2137TIP3   OH227901   0.454   1.584   1.454 -0.3385  0.2113  0.0126
 2137TIP3    H127902   0.500   1.584   1.370  1.1493 -1.5767  0.8045
 2137TIP3    H227903   0.486   1.663   1.498 -0.8256  0.9452 -0.9250
 2138TIP3   OH227904   2.401   1.515   1.293 -0.1838 -0.0305  0.0154
 2138TIP3    H127905   2.367   1.553   1.374 -0.2620 -0.0975  0.0140
 2138TIP3    H227906   2.455   1.441   1.322 -0.8415 -0.5391 -0.0298
 2139TIP3   OH227907   0.503   0.215   6.325 -0.5674 -0.0909  0.3439
 2139TIP3    H127908   0.588   0.183   6.355 -1.2832 -0.4804  2.0265
 2139TIP3    H227909   0.520   0.303   6.294  0.8545 -0.9535 -1.4168
 2140TIP3   OH227910   1.561   1.126   1.197  0.0622 -0.2216  0.2000
 2140TIP3    H127911   1.543   1.185   1.270  1.9064 -0.8052  1.1611
 2140TIP3    H227912   1.610   1.179   1.134  2.4937 -0.8971  1.4525
 2141TIP3   OH227913   4.310   2.625   5.302  0.5257 -0.1243 -0.2603
 2141TIP3    H127914   4.235   2.630   5.361  2.6907  1.2349  2.4572
 2141TIP3    H227915   4.310   2.534   5.270 -1.0769 -0.6809  1.2746
 2142TIP3   OH227916   3.029   2.500   0.729  0.1518 -0.2945 -0.1353
 2142TIP3    H127917   3.065   2.559   0.663 -0.4527  1.0783  0.7385
 2142TIP3    H227918   2.963   2.449   0.682 -1.4632  1.8384 -0.2543
 2143TIP3   OH227919   2.537   1.068   1.038  0.5380  0.7085 -0.1640
 2143TIP3    H127920   2.579   1.057   1.123 -0.4028  0.0878  0.2260
 2143TIP3    H227921   2.489   0.986   1.024  0.5224  0.8876 -1.1952
 2144TIP3   OH227922   2.900   6.162   5.799 -0.2947  0.0728  0.4873
 2144TIP3    H127923   2.813   6.159   5.761 -1.0661  0.3094  2.1700
 2144TIP3    H227924   2.905   6.248   5.842 -0.1757 -0.8985  2.5018
 2145TIP3   OH227925   4.953   4.641  11.164 -0.0861  0.2448  0.6551
 2145TIP3    H127926   4.912   4.692  11.234 -0.5951 -0.2189  0.7000
 2145TIP3    H227927   4.915   4.553  11.172  1.4995 -0.4146  1.1956
 2146TIP3   OH227928   6.468   5.444  11.377 -0.7120 -0.1419  0.1267
 2146TIP3    H127929   6.539   5.396  11.418  0.0268  0.3230 -0.5952
 2146TIP3    H227930   6.392   5.385  11.383 -0.4429 -0.3563  1.5061
 2147TIP3   OH227931   0.389   6.425  11.129 -0.3630 -0.0616 -0.2662
 2147TIP3    H127932   0.447   6.383  11.193  2.0974  0.8384 -1.8390
 2147TIP3    H227933   0.379   6.360  11.059 -1.2435 -0.2027 -0.0135
 2148TIP3   OH227934   4.873   2.980   2.224 -0.0258  0.1498  0.3893
 2148TIP3    H127935   4.814   3.023   2.286 -0.5936  0.0284 -0.0516
 2148TIP3    H227936   4.824   2.980   2.141  0.8142  0.5307 -0.1150
 2149TIP3   OH227937   3.043   1.840  12.399  0.2757 -0.2404  0.0604
 2149TIP3    H127938   3.064   1.859  12.490  1.2818 -0.2990 -0.1531
 2149TIP3    H227939   3.117   1.788  12.367  0.9631  1.5258 -1.3744
 2150TIP3   OH227940   6.642   1.883   5.084  0.0544  0.3989 -0.9154
 2150TIP3    H127941   6.656   1.973   5.055  2.2751  0.4515  0.2300
 2150TIP3    H227942   6.584   1.890   5.159 -1.8475  0.6409 -2.3719
 2151TIP3   OH227943   0.738   5.424  12.630 -0.0557  0.1175  0.1215
 2151TIP3    H127944   0.690   5.347  12.599  0.6084  0.3291 -1.4661
 2151TIP3    H227945   0.685   5.457  12.703 -0.1152 -2.0949  1.1270
 2152TIP3   OH227946   1.382   5.679  11.090  0.0131  0.0505  0.5630
 2152TIP3    H127947   1.463   5.720  11.061 -0.0705  0.4026  0.8278
 2152TIP3    H227948   1.356   5.622  11.017  0.8208 -0.5310  0.7202
 2153TIP3   OH227949   0.835   6.484  15.198  0.0529  0.3408 -0.7827
 2153TIP3    H127950   0.813   6.421  15.130 -2.7520  0.1148  0.2630
 2153TIP3    H227951   0.875   6.432  15.267  1.1145  0.2842 -1.4254
 2154TIP3   OH227952   2.951   3.202  14.353 -0.7489  0.7532  0.3058
 2154TIP3    H127953   2.918   3.281  14.310  1.6511  1.0814 -1.0004
 2154TIP3    H227954   2.979   3.145  14.281 -1.1244 -0.7015  1.2881
 2155TIP3   OH227955   6.610   6.195  15.962 -0.0849 -0.2226 -0.5016
 2155TIP3    H127956   6.651   6.163  16.043 -0.2379  1.0444  0.0868
 2155TIP3    H227957   6.521   6.216  15.987  0.1688  1.1864 -0.7424
 2156TIP3   OH227958   4.111   1.236   2.059 -0.5801 -0.8668  0.1221
 2156TIP3    H127959   4.075   1.156   2.096  1.1702 -1.5184  0.4529
 2156TIP3    H227960   4.187   1.208   2.009  1.2525  0.7856  1.8892
 2157TIP3   OH227961   5.243   0.144   5.649  0.4781  0.5231 -0.3772
 2157TIP3    H127962   5.224   0.227   5.695  1.6009  1.1278 -0.9835
 2157TIP3    H227963   5.191   0.079   5.696 -0.9711  1.6774 -0.3092
 2158TIP3   OH227964   4.744   1.928  14.470 -0.0438 -0.3087  0.1698
 2158TIP3    H127965   4.671   1.909  14.410 -0.6947  0.5919  0.6710
 2158TIP3    H227966   4.797   1.992  14.422 -0.2009 -0.1003  0.2719
 2159TIP3   OH227967   3.849   3.841   2.083  1.0762  0.6372  0.0370
 2159TIP3    H127968   3.760   3.808   2.092  0.3582  2.4259 -0.3801
 2159TIP3    H227969   3.901   3.764   2.059 -0.5095 -0.2355 -0.6107
 2160TIP3   OH227970   2.012   3.219   4.550  0.1395  0.0164  0.0793
 2160TIP3    H127971   1.942   3.189   4.491  0.2728  1.5366 -0.8648
 2160TIP3    H227972   1.973   3.292   4.598  0.7575  0.2282  0.2552
 2161TIP3   OH227973   2.580   5.484  15.144 -0.2347  0.2441 -0.0866
 2161TIP3    H127974   2.570   5.547  15.073  0.0229  1.8879  1.3285
 2161TIP3    H227975   2.545   5.527  15.221  1.3614 -0.7335  1.2191
 2162TIP3   OH227976   0.754   4.293   0.414 -0.5158 -0.3826 -0.3414
 2162TIP3    H127977   0.746   4.221   0.476 -2.9711  1.0506  1.0663
 2162TIP3    H227978   0.840   4.280   0.373 -0.1022 -2.9866  1.2637
 2163TIP3   OH227979   3.482   6.368   6.169  0.0480  0.4221  0.4555
 2163TIP3    H127980   3.456   6.352   6.259 -1.6202 -0.3624 -0.1401
 2163TIP3    H227981   3.427   6.440   6.140 -0.7648 -0.5591 -0.4962
 2164TIP3   OH227982   3.813   3.638  11.524 -0.2350  0.4877 -0.7613
 2164TIP3    H127983   3.792   3.563  11.468  0.1290  0.6096 -1.0642
 2164TIP3    H227984   3.906   3.627  11.544 -0.3041  0.5827 -0.3896
 2165TIP3   OH227985   3.244   6.193   5.963 -0.1563  0.2833  0.2719
 2165TIP3    H127986   3.165   6.173   6.012 -1.3265  1.4405 -1.1116
 2165TIP3    H227987   3.304   6.121   5.983 -1.1302 -0.0027  2.2269
 2166TIP3   OH227988   4.418   5.311   1.421  0.3423  0.6401  0.0833
 2166TIP3    H127989   4.435   5.380   1.485  1.8924  1.8800 -1.6139
 2166TIP3    H227990   4.382   5.357   1.345  0.1036 -0.5935 -0.5649
 2167TIP3   OH227991   5.144   6.804   6.101 -0.2215  0.1630  0.6971
 2167TIP3    H127992   5.088   6.809   6.178 -0.1374 -0.0875  0.7731
 2167TIP3    H227993   5.232   6.817   6.134 -0.1050 -0.7742  0.7500
 2168TIP3   OH227994   4.003   3.470  16.302 -0.3405 -0.6313 -0.0932
 2168TIP3    H127995   4.032   3.498  16.215  1.3337  0.0871  0.6665
 2168TIP3    H227996   3.913   3.440  16.289  0.6869 -2.8942 -2.5752
 2169TIP3   OH227997   0.159   3.828  10.372 -0.4433 -1.2070  0.7762
 2169TIP3    H127998   0.159   3.876  10.455 -0.3683  2.1513 -1.0559
 2169TIP3    H227999   0.067   3.810  10.354 -0.8834  1.7459 -0.3205
 2170TIP3   OH228000   0.378   6.357   1.600 -0.3564  0.3459  0.0112
 2170TIP3    H128001   0.396   6.322   1.512  1.4603  1.0265  0.0951
 2170TIP3    H228002   0.290   6.326   1.620 -0.8526  0.3053 -2.1156
 2171TIP3   OH228003   2.131   4.228   6.732  0.3388 -0.1378  0.2601
 2171TIP3    H128004   2.103   4.290   6.665 -2.5920 -1.7858 -0.1476
 2171TIP3    H228005   2.121   4.275   6.815 -2.0086 -0.0458 -0.0253
 2172TIP3   OH228006   3.750   4.717   3.608  0.0627 -0.7185  0.2639
 2172TIP3    H128007   3.710   4.732   3.522 -2.5018  0.1842  1.5572
 2172TIP3    H228008   3.751   4.803   3.650  1.3016 -1.1453  1.1512
 2173TIP3   OH228009   5.834   5.223   6.563  0.1996 -0.0769 -0.3979
 2173TIP3    H128010   5.776   5.200   6.636 -0.7719 -0.3487 -1.2399
 2173TIP3    H228011   5.905   5.160   6.567  0.2303  0.0068  0.4076
 2174TIP3   OH228012   1.808   5.906  15.808  0.3916 -0.1042 -0.4579
 2174TIP3    H128013   1.836   5.980  15.754 -1.0109  0.1781 -0.8425
 2174TIP3    H228014   1.723   5.881  15.771  0.7365 -1.7474 -0.1663
 2175TIP3   OH228015   4.767   6.365  13.813  0.3344 -0.1058 -0.3517
 2175TIP3    H128016   4.699   6.430  13.798 -0.1313 -0.8543 -1.5586
 2175TIP3    H228017   4.780   6.364  13.908 -1.3481  0.0172 -0.1190
 2176TIP3   OH228018   0.912   0.917   3.219 -0.0447  0.1179 -0.5086
 2176TIP3    H128019   0.959   0.996   3.247  0.6137 -0.5712  0.3795
 2176TIP3    H228020   0.850   0.899   3.290  3.3739 -3.0841  1.8781
 2177TIP3   OH228021   1.111   5.800   4.569  0.8294  0.7333 -0.6799
 2177TIP3    H128022   1.141   5.755   4.490  0.6932  0.6096 -0.6617
 2177TIP3    H228023   1.191   5.828   4.613  1.0039 -1.3118  0.3823
 2178TIP3   OH228024   5.409   5.775   3.858 -0.3955  0.1515  0.0495
 2178TIP3    H128025   5.467   5.734   3.793  1.4602  0.7095  1.3282
 2178TIP3    H228026   5.458   5.771   3.940 -1.9545  1.1393  1.0532
 2179TIP3   OH228027   0.258   1.168  12.162 -0.2235 -0.0356  0.1781
 2179TIP3    H128028   0.195   1.200  12.227 -2.1036 -0.0496 -1.5828
 2179TIP3    H228029   0.273   1.077  12.186 -1.6284 -0.3062  0.0692
 2180TIP3   OH228030   0.836   6.295  13.612  0.1167 -0.3277  0.9153
 2180TIP3    H128031   0.817   6.201  13.621  0.1589 -0.5130 -0.7375
 2180TIP3    H228032   0.921   6.298  13.570 -0.3709  0.4481 -0.0323
 2181TIP3   OH228033   3.902   1.975  12.066 -0.1304  0.3853  0.5330
 2181TIP3    H128034   3.823   1.962  12.117 -0.1025  1.3686  0.8464
 2181TIP3    H228035   3.873   2.025  11.989 -0.2115 -1.2748 -0.5404
 2182TIP3   OH228036   2.512   0.572   3.862 -0.2385 -0.1009 -0.4208
 2182TIP3    H128037   2.473   0.494   3.902 -0.0403  1.5957  3.3242
 2182TIP3    H228038   2.595   0.543   3.827 -0.6253 -1.7999  0.0356
 2183TIP3   OH228039   2.206   6.691   6.236  0.1173  0.0710  0.0222
 2183TIP3    H128040   2.149   6.664   6.308 -0.1227 -0.1824 -0.2632
 2183TIP3    H228041   2.201   6.619   6.173 -0.1124  0.5419 -0.5039
 2184TIP3   OH228042   3.826   2.227  16.014 -0.1350  0.2630 -0.2583
 2184TIP3    H128043   3.754   2.286  15.993 -0.2278  0.2948  0.1341
 2184TIP3    H228044   3.876   2.219  15.933  0.6325  1.9439  0.0317
 2185TIP3   OH228045   5.878   6.028  13.421 -0.2173 -0.0296  0.4348
 2185TIP3    H128046   5.849   6.063  13.337  0.3437  1.8162  0.9782
 2185TIP3    H228047   5.799   6.023  13.474 -0.7455 -2.1398 -0.4864
 2186TIP3   OH228048   5.110   2.666  14.018 -0.0885  0.1243  0.3750
 2186TIP3    H128049   5.097   2.571  14.018 -2.0632  0.3764  0.4954
 2186TIP3    H228050   5.058   2.698  13.944  1.4546  1.0100 -0.3399
 2187TIP3   OH228051   2.929   0.746   5.620  0.2457  0.1308 -0.0978
 2187TIP3    H128052   2.954   0.730   5.711 -1.9205  0.8964  0.6808
 2187TIP3    H228053   2.889   0.665   5.591 -3.4071  1.3529  1.2354
 2188TIP3   OH228054   3.682   5.735   4.286  0.1813  0.0089  0.1113
 2188TIP3    H128055   3.750   5.727   4.353  2.4608  1.4869 -1.9332
 2188TIP3    H228056   3.620   5.798   4.321 -0.5254 -1.8013  2.2658
 2189TIP3   OH228057   5.937   2.438   3.633 -0.1532  0.1793  0.6906
 2189TIP3    H128058   5.948   2.414   3.541  1.0102  0.4639  0.7533
 2189TIP3    H228059   5.910   2.530   3.631  0.8318  0.4669  0.6739
 2190TIP3   OH228060   0.009   0.348  11.581 -0.2226 -0.2425  0.4244
 2190TIP3    H128061  -0.038   0.342  11.498  0.9051 -0.3238 -0.2222
 2190TIP3    H228062   0.101   0.338  11.557  0.2210  0.9879  1.5417
 2191TIP3   OH228063   5.526   2.722  11.726  0.1136  0.3011  0.1758
 2191TIP3    H128064   5.525   2.695  11.817 -0.5288 -2.0968 -0.5225
 2191TIP3    H228065   5.616   2.704  11.697  0.5162  1.7146  0.5024
 2192TIP3   OH228066   5.024   4.844  14.433  0.1332  0.6305 -0.2097
 2192TIP3    H128067   4.965   4.894  14.376  2.5959  0.8199 -2.6855
 2192TIP3    H228068   5.022   4.755  14.397  0.3853  0.3388  0.4844
 2193TIP3   OH228069   3.901   4.514  15.535 -0.4425 -0.1516  0.2165
 2193TIP3    H128070   3.949   4.440  15.498  0.7731  0.4354  0.5856
 2193TIP3    H228071   3.914   4.586  15.472  0.8337  0.5765  1.2905
 2194TIP3   OH228072   0.115   5.033   0.523 -0.1048 -0.2425 -0.2477
 2194TIP3    H128073   0.145   4.942   0.515  2.2127  0.3295  1.5363
 2194TIP3    H228074   0.154   5.064   0.605 -0.1969  2.6443 -1.2513
 2195TIP3   OH228075   3.525   0.553  13.800 -0.0539 -0.0258 -0.4494
 2195TIP3    H128076   3.506   0.634  13.846 -1.5600 -0.8842  0.4988
 2195TIP3    H228077   3.492   0.566  13.712 -1.3591 -0.0113  0.0320
 2196TIP3   OH228078   4.871   3.039   0.500 -0.2225  0.0382 -0.3625
 2196TIP3    H128079   4.878   2.950   0.535  1.4738  0.3767  0.1947
 2196TIP3    H228080   4.824   3.088   0.568 -2.0773 -0.6604 -1.1205
 2197TIP3   OH228081   0.461   2.682  14.763  0.1601 -0.3585  0.4693
 2197TIP3    H128082   0.448   2.724  14.848  1.0752 -1.7381  1.2910
 2197TIP3    H228083   0.535   2.623  14.775  0.3828 -0.4752 -1.3199
 2198TIP3   OH228084   3.761   1.107  16.330  0.1005 -0.0613  0.3778
 2198TIP3    H128085   3.774   1.012  16.331  0.2233 -0.0556 -0.4112
 2198TIP3    H228086   3.823   1.141  16.394  1.1296 -0.3862 -0.4418
 2199TIP3   OH228087   2.765   1.758   4.828  0.1733 -0.2511  0.5193
 2199TIP3    H128088   2.751   1.702   4.752  0.7932  0.8596 -0.4162
 2199TIP3    H228089   2.701   1.828   4.818  1.3608  0.7820  0.1605
 2200TIP3   OH228090   4.345   1.467  13.411 -0.1804 -0.1081 -0.3781
 2200TIP3    H128091   4.378   1.529  13.346 -0.4969 -0.1976 -0.6249
 2200TIP3    H228092   4.402   1.479  13.487 -0.6343  0.9314 -0.1961
 2201TIP3   OH228093   3.341   0.815   6.309  0.5423  0.3702 -0.2819
 2201TIP3    H128094   3.362   0.745   6.371 -0.0726 -1.0416 -1.6424
 2201TIP3    H228095   3.416   0.875   6.314  1.5856 -0.9454  0.0855
 2202TIP3   OH228096   0.303   1.345  13.155  0.2627  0.1960  0.3221
 2202TIP3    H128097   0.352   1.303  13.083  0.7433 -1.4368  1.5607
 2202TIP3    H228098   0.357   1.329  13.232 -0.5601  1.3910  1.1531
 2203TIP3   OH228099   2.683   5.797   6.539 -0.6461 -0.3017  0.2264
 2203TIP3    H128100   2.596   5.759   6.529 -0.8825 -0.7400  3.4899
 2203TIP3    H228101   2.670   5.873   6.596  0.7343  1.2180 -1.4203
 2204TIP3   OH228102   3.405   3.515   3.766 -0.1418  0.2780  0.0303
 2204TIP3    H128103   3.445   3.450   3.824  1.9387 -0.6340 -2.3143
 2204TIP3    H228104   3.331   3.468   3.726 -0.0957  0.1230  0.1253
 2205TIP3   OH228105   0.135   1.192  12.608 -0.2172  0.2030 -0.0395
 2205TIP3    H128106   0.144   1.101  12.578  0.6211  0.2181  0.1380
 2205TIP3    H228107   0.055   1.192  12.660 -1.4107  0.0596 -1.8419
 2206TIP3   OH228108   6.434   4.029  14.298 -0.1354 -0.1514  0.2056
 2206TIP3    H128109   6.480   4.013  14.380 -1.0499  0.4654  0.8536
 2206TIP3    H228110   6.454   4.120  14.276  1.6671 -0.8826 -1.2736
 2207TIP3   OH228111   3.209   2.537   0.214 -0.4159  0.7586  0.7136
 2207TIP3    H128112   3.144   2.478   0.252 -0.6903  0.8199  0.3400
 2207TIP3    H228113   3.161   2.619   0.199 -0.0727  1.0359  1.1028
 2208TIP3   OH228114   6.475   5.415   1.511 -0.1076  0.8834  0.2468
 2208TIP3    H128115   6.461   5.391   1.602 -2.4718  0.6882 -0.1444
 2208TIP3    H228116   6.507   5.335   1.469 -1.1610  0.3597  0.4349
 2209TIP3   OH228117   1.594   3.617  14.320  0.0267  0.0066 -0.0162
 2209TIP3    H128118   1.538   3.577  14.253 -0.0002 -1.7091  1.0063
 2209TIP3    H228119   1.640   3.687  14.273  0.0928 -1.2263 -1.8657
 2210TIP3   OH228120   2.054   4.583  13.622 -0.2865 -0.7713 -0.5276
 2210TIP3    H128121   1.995   4.510  13.638 -1.5608  0.0008 -1.5616
 2210TIP3    H228122   2.023   4.621  13.539  1.9134 -0.5996 -1.2900
 2211TIP3   OH228123   1.473   4.656  13.837  0.5350 -0.0016  0.0937
 2211TIP3    H128124   1.479   4.640  13.931 -0.9187  0.1147  0.2154
 2211TIP3    H228125   1.469   4.751  13.829 -0.1754 -0.0350 -0.0214
 2212TIP3   OH228126   0.402   4.314  13.035 -0.2182  0.2416 -0.0903
 2212TIP3    H128127   0.332   4.249  13.031  0.3598 -0.3714 -0.4088
 2212TIP3    H228128   0.463   4.288  12.965  1.6362 -0.7817  1.8638
 2213TIP3   OH228129   2.971   2.318   3.200 -0.0088 -0.3945 -0.2560
 2213TIP3    H128130   2.988   2.254   3.269 -0.0897  0.0208  0.1493
 2213TIP3    H228131   3.055   2.361   3.186  0.2938 -1.2774 -1.2347
 2214TIP3   OH228132   0.127   2.891  11.201 -0.1047  0.4843  0.2417
 2214TIP3    H128133   0.100   2.961  11.142 -3.0434 -2.2471 -1.8529
 2214TIP3    H228134   0.067   2.898  11.276 -0.7989 -0.1181 -0.2484
 2215TIP3   OH228135   1.509   4.124   1.806 -0.9174  0.3543  0.3492
 2215TIP3    H128136   1.516   4.043   1.755 -3.0421  1.7741 -2.3143
 2215TIP3    H228137   1.421   4.121   1.844 -1.0573  1.4748  0.1231
 2216TIP3   OH228138   5.247   3.537  11.449 -0.3462 -0.1300 -0.3407
 2216TIP3    H128139   5.253   3.577  11.536  1.1270 -0.3094 -0.3460
 2216TIP3    H228140   5.302   3.459  11.455 -1.1047 -0.7308 -1.1252
 2217TIP3   OH228141   2.835   4.588   3.803  0.2725 -0.3813  0.3999
 2217TIP3    H128142   2.913   4.641   3.817  0.3114 -0.3919  0.2146
 2217TIP3    H228143   2.864   4.499   3.824  0.0451 -0.2444  1.3080
 2218TIP3   OH228144   6.118   4.321  13.662 -0.0947 -0.0006 -0.1592
 2218TIP3    H128145   6.073   4.310  13.578 -0.5403  1.1910 -0.0895
 2218TIP3    H228146   6.123   4.232  13.699 -2.3079 -0.1878 -0.2149
 2219TIP3   OH228147   0.864   4.227  16.760 -0.4487  0.2479  0.2175
 2219TIP3    H128148   0.855   4.152  16.819  0.2279  0.8208  1.0755
 2219TIP3    H228149   0.933   4.202  16.699  0.5963  0.6182  1.2299
 2220TIP3   OH228150   5.842   6.667   5.938 -0.0419 -0.5684  0.5087
 2220TIP3    H128151   5.845   6.662   6.033 -0.0605  0.7051  0.5859
 2220TIP3    H228152   5.923   6.625   5.909 -1.3648 -3.5286  0.9530
 2221TIP3   OH228153   2.325   0.312   3.670  0.0905  0.3796  0.3494
 2221TIP3    H128154   2.264   0.281   3.603  0.4972  1.5758 -0.5967
 2221TIP3    H228155   2.271   0.327   3.747 -0.6797  0.6680 -0.2456
 2222TIP3   OH228156   3.906   6.415   4.793 -0.0674  0.5754  0.7766
 2222TIP3    H128157   3.965   6.455   4.857  1.0813  1.3895 -0.7767
 2222TIP3    H228158   3.840   6.482   4.775 -0.6593  0.1828  1.4171
 2223TIP3   OH228159   0.335   4.589  16.740 -0.1900  0.1762  0.0386
 2223TIP3    H128160   0.353   4.524  16.808 -1.0125 -0.2406 -0.1421
 2223TIP3    H228161   0.277   4.652  16.782 -0.0704  0.3439 -0.0470
 2224TIP3   OH228162   4.655   5.602  12.095 -0.5391 -0.5321  0.3686
 2224TIP3    H128163   4.700   5.518  12.106 -0.3241 -0.3879  0.6078
 2224TIP3    H228164   4.574   5.580  12.049 -0.7992 -0.9611  1.0308
 2225TIP3   OH228165   6.160   2.832   1.347  0.1567  0.8948  0.2859
 2225TIP3    H128166   6.209   2.763   1.391  0.7303  1.9218  1.2748
 2225TIP3    H228167   6.200   2.838   1.260 -0.1238 -0.2360  0.0664
 2226TIP3   OH228168   4.360   6.631  16.827 -0.3979  0.3528 -0.2632
 2226TIP3    H128169   4.384   6.544  16.795 -2.5141  0.5129 -2.3882
 2226TIP3    H228170   4.283   6.617  16.882  0.9844  0.5633  1.7996
 2227TIP3   OH228171   6.583   5.837  16.930 -0.4171  0.1452 -0.3097
 2227TIP3    H128172   6.524   5.825  17.005 -1.4709  0.7810 -1.0354
 2227TIP3    H228173   6.660   5.879  16.968  0.0641 -1.6989  0.8494
 2228TIP3   OH228174   1.945   6.229  11.673  0.3114  0.6582  0.0093
 2228TIP3    H128175   1.980   6.239  11.762 -0.6425 -1.1599  0.6121
 2228TIP3    H228176   1.897   6.146  11.676  1.3400 -0.0649 -2.5391
 2229TIP3   OH228177   1.318   2.554  12.704  0.3143 -0.1137  0.7041
 2229TIP3    H128178   1.253   2.580  12.769 -0.1630 -0.4802  0.3761
 2229TIP3    H228179   1.367   2.635  12.685 -1.8250  0.8315 -1.0559
 2230TIP3   OH228180   1.190   6.152   3.650 -0.1524  0.5226  0.0748
 2230TIP3    H128181   1.216   6.063   3.675  0.1957  0.1678 -1.5127
 2230TIP3    H228182   1.138   6.140   3.571 -0.6461  1.6873  0.2192
 2231TIP3   OH228183   5.672   1.023  12.855 -0.3435 -0.2149 -0.3875
 2231TIP3    H128184   5.653   0.935  12.821 -0.7104 -0.3254  0.0840
 2231TIP3    H228185   5.645   1.082  12.785 -2.1799 -0.3877  0.1386
 2232TIP3   OH228186   4.909   5.524   4.808 -0.3428 -0.2197  0.1903
 2232TIP3    H128187   4.917   5.580   4.885 -1.8169  0.8096 -0.3723
 2232TIP3    H228188   4.980   5.460   4.816 -1.0589 -0.7350  2.9106
 2233TIP3   OH228189   3.202   4.167   3.425 -0.0695 -0.4970  0.8486
 2233TIP3    H128190   3.125   4.215   3.456  0.5973  1.9787 -1.1832
 2233TIP3    H228191   3.169   4.113   3.353  0.0589  0.4361  0.0887
 2234TIP3   OH228192   1.752   0.888   5.639  0.3404  0.3804  0.1108
 2234TIP3    H128193   1.840   0.867   5.672 -0.4808 -0.9615  1.5323
 2234TIP3    H228194   1.767   0.925   5.552  2.3694  1.0643  0.7226
 2235TIP3   OH228195   4.969   2.753   2.970  0.0771  0.0177  0.8081
 2235TIP3    H128196   4.970   2.714   3.057 -0.4909 -0.1212  0.7513
 2235TIP3    H228197   4.972   2.848   2.987 -0.1485 -0.0054  0.9829
 2236TIP3   OH228198   6.647   5.099   5.636  1.0084 -1.0281  0.1204
 2236TIP3    H128199   6.600   5.034   5.688 -0.1439 -0.3182 -0.0262
 2236TIP3    H228200   6.649   5.063   5.547  1.4525 -1.4342  0.2970
 2237TIP3   OH228201   0.152   0.621   0.279 -0.0767 -0.6016 -0.2455
 2237TIP3    H128202   0.091   0.613   0.206  0.3691 -0.6766 -0.6115
 2237TIP3    H228203   0.179   0.532   0.298  1.0203 -0.4572 -1.0311
 2238TIP3   OH228204   4.793   3.726  11.450 -0.1885  0.4862  0.4347
 2238TIP3    H128205   4.770   3.633  11.446 -1.3806  0.7567  0.8135
 2238TIP3    H228206   4.751   3.764  11.373  1.0604  0.5616 -0.2271
 2239TIP3   OH228207   3.539   6.586  15.531 -1.0570 -0.0189  0.1776
 2239TIP3    H128208   3.601   6.659  15.532 -1.1212  0.0338  0.2694
 2239TIP3    H228209   3.468   6.613  15.589 -0.9228 -0.2948  0.4701
 2240TIP3   OH228210   2.828   4.730   4.760  0.2659 -0.4848 -0.2997
 2240TIP3    H128211   2.780   4.731   4.677 -0.4415 -1.0068  0.0989
 2240TIP3    H228212   2.854   4.639   4.772 -2.2087 -1.0017  1.5037
 2241TIP3   OH228213   4.083   2.555  12.483 -0.5498 -0.7758  0.4280
 2241TIP3    H128214   4.103   2.470  12.522 -2.4702 -1.0652  0.8452
 2241TIP3    H228215   4.109   2.546  12.392 -1.3096 -2.0311  0.3223
 2242TIP3   OH228216   2.887   2.344  14.404 -0.3184 -0.0452  0.1205
 2242TIP3    H128217   2.905   2.280  14.473  0.7103  0.6207  0.4584
 2242TIP3    H228218   2.865   2.424  14.450 -2.6467 -0.3954 -0.2903
 2243TIP3   OH228219   6.570   3.190   1.833  0.8224  0.0281  0.7934
 2243TIP3    H128220   6.638   3.236   1.784 -1.2626  2.1035 -0.2042
 2243TIP3    H228221   6.506   3.163   1.768  0.1411 -1.0033  1.8536
 2244TIP3   OH228222   5.549   5.032  14.615  0.0847 -0.1041 -0.5347
 2244TIP3    H128223   5.587   5.115  14.587 -0.9659  0.1689 -1.2272
 2244TIP3    H228224   5.616   4.966  14.595  0.0839  0.3200 -2.0466
 2245TIP3   OH228225   1.471   5.759  10.670 -0.7733  0.1125  0.4713
 2245TIP3    H128226   1.508   5.839  10.706 -1.4956 -0.1283  1.7864
 2245TIP3    H228227   1.382   5.784  10.644 -0.3591  0.2085 -0.8829
 2246TIP3   OH228228   0.142   3.868  13.291 -0.0108  0.5588  0.8599
 2246TIP3    H128229   0.205   3.805  13.256  0.1324  1.5302 -0.6961
 2246TIP3    H228230   0.173   3.953  13.260 -1.0728  1.2349  1.6158
 2247TIP3   OH228231   6.132   4.005  13.687 -0.2047 -0.0483 -0.2874
 2247TIP3    H128232   6.187   4.013  13.609  0.5627  2.3986  0.4636
 2247TIP3    H228233   6.194   4.006  13.760 -0.9686 -1.5947  0.4238
 2248TIP3   OH228234   3.385   5.379   4.485 -0.0637  0.3308  0.6466
 2248TIP3    H128235   3.474   5.354   4.462  0.0064  0.6522  0.5592
 2248TIP3    H228236   3.369   5.460   4.435 -0.3604  0.3405  0.7523
 2249TIP3   OH228237   0.147   6.665   0.288  0.2327 -0.7967  0.2855
 2249TIP3    H128238   0.070   6.652   0.233  0.8713 -1.2665 -0.5024
 2249TIP3    H228239   0.181   6.751   0.261 -0.5632 -0.1377  1.3204
 2250TIP3   OH228240   4.983   4.018   4.079 -0.5796 -0.6140 -0.2137
 2250TIP3    H128241   4.932   4.013   4.160 -3.0628  0.5009 -1.6503
 2250TIP3    H228242   4.976   3.930   4.042 -3.3881  0.0507 -1.4546
 2251TIP3   OH228243   1.323   1.243  10.719  0.2643  0.7429 -0.2249
 2251TIP3    H128244   1.273   1.207  10.645  1.2277  2.4989 -1.7509
 2251TIP3    H228245   1.391   1.177  10.735 -1.5368 -0.9188  0.8608
 2252TIP3   OH228246   2.759   6.358  11.652 -0.4959 -0.1445  0.4332
 2252TIP3    H128247   2.668   6.388  11.647  0.1515  1.7272 -0.3551
 2252TIP3    H228248   2.785   6.346  11.561 -0.8091 -3.4321  0.7075
 2253TIP3   OH228249   0.678   5.335  11.743 -0.0512  0.1107  0.1264
 2253TIP3    H128250   0.760   5.378  11.767 -0.8393  1.1634  0.9790
 2253TIP3    H228251   0.610   5.387  11.785 -1.0906 -1.5622  0.5822
 2254TIP3   OH228252   3.911   0.458   0.032 -0.3961  0.1255 -0.1728
 2254TIP3    H128253   3.933   0.459   0.125  0.5317 -0.8939 -0.3757
 2254TIP3    H228254   3.825   0.416   0.028 -0.6210  0.5449  0.2623
 2255TIP3   OH228255   0.668   3.375  15.039  0.2276 -0.7660 -0.6734
 2255TIP3    H128256   0.589   3.366  15.093 -0.5118  1.6192 -1.2808
 2255TIP3    H228257   0.672   3.294  14.988 -0.3284 -2.0618  1.2942
 2256TIP3   OH228258   2.190   5.393   6.335  0.0042 -0.3476 -0.4649
 2256TIP3    H128259   2.128   5.454   6.294 -0.1711  0.4241  0.9220
 2256TIP3    H228260   2.276   5.431   6.318 -0.1348  0.6046  0.8709
 2257TIP3   OH228261   2.557   4.620  16.339 -1.0673  0.2048 -0.3820
 2257TIP3    H128262   2.548   4.640  16.432 -1.6564 -1.8905  0.0321
 2257TIP3    H228263   2.608   4.693  16.304 -0.5838  0.8674  1.6270
 2258TIP3   OH228264   6.693   4.228  12.738  0.4110 -0.4295 -0.0882
 2258TIP3    H128265   6.733   4.279  12.808 -1.6160  1.2223 -0.0785
 2258TIP3    H228266   6.737   4.257  12.658  0.0825  0.4606  0.0589
 2259TIP3   OH228267   2.704   5.100  17.039  0.3586 -0.5926 -0.6379
 2259TIP3    H128268   2.797   5.122  17.043  0.5000 -1.0869 -1.0888
 2259TIP3    H228269   2.660   5.183  17.023  0.8047 -0.4844 -1.3315
 2260TIP3   OH228270   1.038   4.442   0.829  1.0977  0.7090  0.3055
 2260TIP3    H128271   1.077   4.485   0.753 -0.0782 -0.0786 -0.7653
 2260TIP3    H228272   1.008   4.358   0.795  1.7987 -0.2344  1.9693
 2261TIP3   OH228273   3.498   1.009  11.977  0.0235 -0.0107 -0.1101
 2261TIP3    H128274   3.551   1.089  11.974 -0.0876  0.0272 -1.2208
 2261TIP3    H228275   3.535   0.959  12.049  1.6074 -0.0069 -0.9071
 2262TIP3   OH228276   2.150   2.181  11.598 -0.2752  0.0643 -0.1198
 2262TIP3    H128277   2.179   2.114  11.659  2.3493  1.9212  0.7394
 2262TIP3    H228278   2.157   2.263  11.646  3.4605  1.8123 -3.2752
 2263TIP3   OH228279   1.546   4.932  14.521  0.3334 -0.1633  1.2454
 2263TIP3    H128280   1.512   5.021  14.526 -0.7086 -0.6238  2.6793
 2263TIP3    H228281   1.513   4.889  14.600  0.8194 -1.8239  0.5737
 2264TIP3   OH228282   2.224   3.252   4.375 -0.6675 -0.6647  0.3854
 2264TIP3    H128283   2.298   3.239   4.435  0.1269 -3.0944 -1.0436
 2264TIP3    H228284   2.147   3.232   4.427 -0.1132 -1.0499  1.0663
 2265TIP3   OH228285   1.519   0.587  16.419  0.3025 -0.3268  0.5381
 2265TIP3    H128286   1.572   0.628  16.351 -0.2456  0.5503  0.6306
 2265TIP3    H228287   1.554   0.622  16.501  0.9332 -1.3457  0.7054
 2266TIP3   OH228288   0.819   4.466  16.403  0.2556 -0.7998  0.0110
 2266TIP3    H128289   0.757   4.393  16.402 -2.0155  1.0474 -1.4723
 2266TIP3    H228290   0.838   4.480  16.496 -0.5430 -2.2234  0.4126
 2267TIP3   OH228291   4.157   0.406   6.612  0.4634  0.5531 -0.4108
 2267TIP3    H128292   4.250   0.418   6.630  0.2235 -1.3767  2.5427
 2267TIP3    H228293   4.118   0.492   6.625  1.7387  1.2584 -1.1655
 2268TIP3   OH228294   3.956   5.339   2.245 -0.0207 -0.0966  0.2857
 2268TIP3    H128295   3.955   5.401   2.318  0.8834  1.0413 -0.6510
 2268TIP3    H228296   4.045   5.343   2.212 -0.5352 -0.3087 -1.1382
 2269TIP3   OH228297   5.977   1.879  12.872  1.5274 -0.6839 -0.2721
 2269TIP3    H128298   6.019   1.847  12.793  0.8530 -0.1045 -0.8773
 2269TIP3    H228299   5.912   1.942  12.841 -0.9950 -2.8179  0.4968
 2270TIP3   OH228300   3.409   5.886  14.437 -0.1937 -0.3089 -0.4443
 2270TIP3    H128301   3.450   5.972  14.431 -1.3638  0.3807  1.2747
 2270TIP3    H228302   3.381   5.878  14.528 -0.7793 -2.1980 -0.7597
 2271TIP3   OH228303   2.441   1.361  13.034 -0.0546  0.8035  0.2252
 2271TIP3    H128304   2.530   1.326  13.041 -0.9683 -1.4747  0.6551
 2271TIP3    H228305   2.452   1.440  12.981  2.3469  1.0537  1.0082
 2272TIP3   OH228306   1.766   3.304  11.796  0.1568 -0.2150  0.1764
 2272TIP3    H128307   1.851   3.345  11.779  1.1127 -1.0549  2.6665
 2272TIP3    H228308   1.706   3.378  11.804  1.3478  0.6147  1.9386
 2273TIP3   OH228309   4.632   4.364  13.175  0.5142 -0.4182  0.0091
 2273TIP3    H128310   4.676   4.295  13.225  1.0256 -0.1819 -0.1158
 2273TIP3    H228311   4.657   4.445  13.218 -0.3951 -0.3339  0.3871
 2274TIP3   OH228312   2.754   6.067  14.320 -0.3552  0.3485  1.0520
 2274TIP3    H128313   2.810   6.016  14.262  1.0546  0.9000  1.8956
 2274TIP3    H228314   2.739   6.149  14.273  1.0176  0.9088  1.5601
 2275TIP3   OH228315   0.471   6.778   0.452  0.4613 -0.7231 -0.7456
 2275TIP3    H128316   0.567   6.784   0.452  0.3965  0.6501  2.0746
 2275TIP3    H228317   0.441   6.864   0.424  0.0237 -0.6347 -0.0130
 2276TIP3   OH228318   4.363   4.329  12.751  0.1781 -0.4656 -0.4961
 2276TIP3    H128319   4.405   4.315  12.836  0.3059 -0.6311 -0.5848
 2276TIP3    H228320   4.399   4.412  12.720  2.0364 -1.6117 -1.5141
 2277TIP3   OH228321   6.429   0.528   0.503  0.4207 -0.2545  0.4391
 2277TIP3    H128322   6.356   0.586   0.524  0.2575 -0.0025 -0.7591
 2277TIP3    H228323   6.450   0.485   0.585 -0.4032  0.4382  1.0247
 2278TIP3   OH228324   6.807   5.728  10.968  0.4611 -0.2740  0.2910
 2278TIP3    H128325   6.725   5.679  10.975  0.6823 -0.8498 -1.0406
 2278TIP3    H228326   6.780   5.814  10.934  0.4545 -0.5867 -0.4895
 2279TIP3   OH228327   3.758   4.437   3.919  0.4923  0.3571 -0.2373
 2279TIP3    H128328   3.668   4.464   3.902  0.4370  0.9564  0.9730
 2279TIP3    H228329   3.811   4.507   3.879  0.4233  0.2237 -0.5687
 2280TIP3   OH228330   3.553   1.416   0.750 -0.3857 -0.1523  0.5846
 2280TIP3    H128331   3.472   1.393   0.795 -1.6026  1.8575 -0.4978
 2280TIP3    H228332   3.580   1.335   0.707 -2.5844 -0.5198 -0.1738
 2281TIP3   OH228333   1.877   2.324  16.688  0.2639  0.3456  0.5646
 2281TIP3    H128334   1.865   2.285  16.775 -0.1604 -0.3154  0.2116
 2281TIP3    H228335   1.845   2.257  16.627 -0.4289  1.2229 -0.0525
 2282TIP3   OH228336   3.352   6.259  17.060  0.3623 -0.4845  0.0309
 2282TIP3    H128337   3.326   6.247  17.152  0.0576  2.1040  0.3223
 2282TIP3    H228338   3.346   6.171  17.022 -1.9682 -1.1721  1.8432
 2283TIP3   OH228339   0.956   1.194  12.768  0.2350 -0.0021 -0.1885
 2283TIP3    H128340   0.940   1.281  12.732 -1.1480 -0.4314 -0.6311
 2283TIP3    H228341   0.951   1.135  12.692 -0.4321 -0.6488  0.3504
 2284TIP3   OH228342   4.243   2.598   2.881  0.1295 -0.0057  0.1244
 2284TIP3    H128343   4.314   2.655   2.908  0.6508 -0.8639  0.5789
 2284TIP3    H228344   4.177   2.658   2.846  0.4333  0.9212  1.0931
 2285TIP3   OH228345   3.182   5.039   3.838 -0.0552  0.3684  0.5605
 2285TIP3    H128346   3.163   5.068   3.927 -0.0416  1.2885  0.2666
 2285TIP3    H228347   3.278   5.043   3.832 -0.1709  2.1923 -0.1267
 2286TIP3   OH228348   4.854   4.523  13.896 -0.6580  0.5378  0.2766
 2286TIP3    H128349   4.940   4.560  13.917 -0.2805  0.2503 -0.7354
 2286TIP3    H228350   4.863   4.430  13.914 -0.3493  0.2970 -1.0411
 2287TIP3   OH228351   0.765   5.885  14.639 -0.2549 -0.8398 -0.2114
 2287TIP3    H128352   0.761   5.977  14.610  2.6284 -0.2062  1.2553
 2287TIP3    H228353   0.801   5.838  14.564  0.7787 -0.3202 -0.0501
 2288TIP3   OH228354   2.233   4.056  12.919 -0.2959 -0.7142 -0.4347
 2288TIP3    H128355   2.156   3.999  12.919 -0.0102 -1.1030 -1.6612
 2288TIP3    H228356   2.296   4.012  12.862  0.2155  0.4325 -0.7707
 2289TIP3   OH228357   0.750   4.411   4.649  0.1455  0.3217  0.7778
 2289TIP3    H128358   0.762   4.321   4.617 -1.3192  1.4303 -3.1205
 2289TIP3    H228359   0.839   4.440   4.670  0.6635 -1.9160  1.9142
 2290TIP3   OH228360   2.866   4.994  13.487  0.6677 -0.2444  0.1417
 2290TIP3    H128361   2.789   5.001  13.430  0.5696 -1.7591  0.0663
 2290TIP3    H228362   2.938   5.030  13.435  0.3259 -0.3852 -0.4330
 2291TIP3   OH228363   1.618   2.535   2.241  0.6332 -0.5527 -0.0231
 2291TIP3    H128364   1.581   2.446   2.240 -0.2370 -0.1895 -0.2184
 2291TIP3    H228365   1.553   2.587   2.287  2.0557 -0.4007  1.9013
 2292TIP3   OH228366   0.885   6.721   2.522  0.3715 -0.2310 -0.8730
 2292TIP3    H128367   0.916   6.789   2.462  3.2186 -0.7033  0.0085
 2292TIP3    H228368   0.888   6.761   2.609  0.6992 -1.0241 -0.5109
 2293TIP3   OH228369   0.994   3.287   5.523  0.1318 -0.6071 -0.1264
 2293TIP3    H128370   0.975   3.350   5.454  0.5819 -0.1407  0.1794
 2293TIP3    H228371   1.088   3.293   5.538  0.0374 -0.6771  0.5552
 2294TIP3   OH228372   5.302   3.048  13.161  0.0301 -0.1438  0.1600
 2294TIP3    H128373   5.294   2.967  13.212 -0.0013  0.2771  0.8354
 2294TIP3    H228374   5.395   3.071  13.168  0.0096 -0.0441  0.0860
 2295TIP3   OH228375   5.044   0.742  13.443  0.5103  0.1764 -0.1571
 2295TIP3    H128376   5.023   0.829  13.410 -0.7713 -0.0107  0.1376
 2295TIP3    H228377   4.989   0.732  13.521  0.7681 -0.8253 -0.1000
 2296TIP3   OH228378   3.148   1.730  12.820 -0.3759  0.6205  0.1277
 2296TIP3    H128379   3.137   1.649  12.770  0.7669  0.3610  0.2718
 2296TIP3    H228380   3.187   1.701  12.903  1.4680  1.4638 -0.4192
 2297TIP3   OH228381   5.072   0.141   2.073  0.4803 -0.4643 -0.4715
 2297TIP3    H128382   5.018   0.218   2.092  1.5257  0.4554 -1.1975
 2297TIP3    H228383   5.136   0.138   2.143 -1.9730 -2.9925  1.8066
 2298TIP3   OH228384   3.372   4.835  13.950 -0.0496  0.1509  0.2609
 2298TIP3    H128385   3.416   4.830  13.866  0.5890  0.3876  0.5797
 2298TIP3    H228386   3.301   4.898  13.936 -1.4986 -1.6641 -0.7811
 2299TIP3   OH228387   2.799   3.520  14.298 -0.3578  0.3912  0.0908
 2299TIP3    H128388   2.846   3.551  14.376 -1.0237  0.5052  0.4503
 2299TIP3    H228389   2.863   3.527  14.227 -0.1786  1.6231  0.3625
 2300TIP3   OH228390   0.236   4.858   1.582 -0.2960  0.0364 -0.1344
 2300TIP3    H128391   0.276   4.891   1.502  0.7278 -2.2076 -0.5839
 2300TIP3    H228392   0.267   4.918   1.650 -0.0928  1.1726 -1.2054
 2301TIP3   OH228393   3.819   4.272  15.117  0.7578 -0.1425 -0.0556
 2301TIP3    H128394   3.749   4.335  15.135 -0.7257 -1.9340  0.7198
 2301TIP3    H228395   3.802   4.200  15.178  3.2346 -0.6817  0.0650
 2302TIP3   OH228396   5.233   3.615  13.475 -0.1060  0.1345 -0.0016
 2302TIP3    H128397   5.292   3.541  13.490 -0.6520 -0.4126 -0.5498
 2302TIP3    H228398   5.277   3.689  13.516  0.8440 -0.3255 -0.1814
 2303TIP3   OH228399   2.238   2.590   2.366  0.1570  0.0693 -0.1767
 2303TIP3    H128400   2.188   2.521   2.323  0.9869  0.0295 -1.0994
 2303TIP3    H228401   2.173   2.659   2.382 -0.2087  0.0079 -1.3358
 2304TIP3   OH228402   6.687   4.069   4.265 -0.5542  0.3880 -0.2385
 2304TIP3    H128403   6.764   4.126   4.268 -1.0198  0.9574  2.0128
 2304TIP3    H228404   6.677   4.047   4.173  0.7234  2.4823 -0.9165
 2305TIP3   OH228405   4.545   5.200  15.989 -0.2430 -0.5906 -0.0196
 2305TIP3    H128406   4.514   5.288  15.970 -0.0453 -0.3860  0.6071
 2305TIP3    H228407   4.498   5.175  16.069  0.0963 -0.8491  0.1023
 2306TIP3   OH228408   3.945   5.599   3.113 -0.1335  0.0504  1.2851
 2306TIP3    H128409   4.004   5.675   3.109  0.5546 -0.3777  2.8964
 2306TIP3    H228410   3.862   5.636   3.142 -0.8328  0.7288 -1.4218
 2307TIP3   OH228411   1.399   0.183  16.304  0.1997  0.1164 -0.4645
 2307TIP3    H128412   1.372   0.222  16.221 -2.1915 -0.7965 -0.1642
 2307TIP3    H228413   1.484   0.145  16.285  0.3280  1.1518 -2.1127
 2308TIP3   OH228414   0.935   2.720  14.876 -0.2619 -0.1373  0.0630
 2308TIP3    H128415   0.943   2.684  14.788 -0.5887 -0.0736  0.0080
 2308TIP3    H228416   1.014   2.690  14.922  1.1800  1.8932 -0.9981
 2309TIP3   OH228417   0.136   6.354   3.211 -0.0189  0.2878  0.2765
 2309TIP3    H128418   0.111   6.395   3.295 -1.2760  1.6871 -0.7524
 2309TIP3    H228419   0.206   6.410   3.178  0.6442 -0.4072  0.5032
 2310TIP3   OH228420   2.254   6.774   5.016 -0.2190 -0.0877  0.7868
 2310TIP3    H128421   2.170   6.806   5.047  0.1846  0.4733  1.3240
 2310TIP3    H228422   2.286   6.717   5.086 -0.3414 -0.6286  0.4039
 2311TIP3   OH228423   1.229   2.119  14.425  0.6470 -0.1362  0.3172
 2311TIP3    H128424   1.135   2.123  14.409  0.8506  0.5173 -0.7820
 2311TIP3    H228425   1.266   2.182  14.363  1.4808  2.5529  3.4107
 2312TIP3   OH228426   4.568   5.817  11.051 -0.6769  0.1980  0.2150
 2312TIP3    H128427   4.579   5.856  10.964 -0.7080 -0.5766 -0.1390
 2312TIP3    H228428   4.476   5.835  11.074 -0.9989 -0.6036 -0.4159
 2313TIP3   OH228429   5.548   0.659  15.290 -0.1555 -0.2475 -0.5774
 2313TIP3    H128430   5.619   0.697  15.342  0.0605  0.1022 -1.1331
 2313TIP3    H228431   5.588   0.641  15.205 -0.8337  0.3031 -1.0110
 2314TIP3   OH228432   2.088   2.997  13.763  0.0699  0.0429  1.1656
 2314TIP3    H128433   2.019   2.970  13.824  1.1007 -2.0759  1.4347
 2314TIP3    H228434   2.064   2.957  13.680  1.4140 -1.4838  1.4792
 2315TIP3   OH228435   6.108   0.056   5.753  0.2605 -0.6946  0.1519
 2315TIP3    H128436   6.185  -0.001   5.759  0.2530 -0.7218  0.0039
 2315TIP3    H228437   6.134   0.126   5.693  0.4053 -0.3209  0.6511
 2316TIP3   OH228438   2.879   5.762  16.404  0.3895  0.1926 -0.3665
 2316TIP3    H128439   2.972   5.769  16.428  0.9931 -0.7898 -2.3750
 2316TIP3    H228440   2.834   5.751  16.488  2.1670 -0.0937  0.5749
 2317TIP3   OH228441   6.433   2.863  15.262 -0.7577  0.1698 -0.4386
 2317TIP3    H128442   6.344   2.896  15.274 -0.5474  0.2635  0.8578
 2317TIP3    H228443   6.486   2.942  15.248 -0.6133  0.2230  0.4245
 2318TIP3   OH228444   0.005   2.935  16.588  0.3120 -0.3716  0.3451
 2318TIP3    H128445   0.018   2.991  16.664  1.1635  0.5693 -0.4697
 2318TIP3    H228446   0.086   2.944  16.538 -0.1492 -1.1451 -0.5677
 2319TIP3   OH228447   0.539   6.734   2.501  0.1587  0.3115  0.3765
 2319TIP3    H128448   0.450   6.770   2.499  0.0581  0.0382 -0.1856
 2319TIP3    H228449   0.557   6.710   2.410  0.5496 -0.2614  0.6027
 2320TIP3   OH228450   2.136   4.362  12.210 -0.9030 -0.2664 -0.2176
 2320TIP3    H128451   2.168   4.451  12.196 -0.9467 -0.3026 -0.5651
 2320TIP3    H228452   2.126   4.354  12.305 -0.0005 -0.2211 -0.1195
 2321TIP3   OH228453   4.459   5.291   1.864 -0.0030 -0.1406  0.0077
 2321TIP3    H128454   4.503   5.245   1.794  1.8956 -0.6939  1.5186
 2321TIP3    H228455   4.389   5.232   1.892  0.7646 -0.9885  0.1754
 2322TIP3   OH228456   2.714   5.115  16.437  0.2884 -0.5437 -0.6796
 2322TIP3    H128457   2.667   5.087  16.359  0.9174 -1.7674 -0.6414
 2322TIP3    H228458   2.647   5.152  16.494 -0.4382 -1.2021 -1.0975
 2323TIP3   OH228459   5.801   5.582  14.318 -0.6934  0.0818 -0.0262
 2323TIP3    H128460   5.879   5.548  14.273 -0.9267 -1.3623  0.6427
 2323TIP3    H228461   5.810   5.677  14.312  0.5266 -0.0769 -0.9792
 2324TIP3   OH228462   5.032   0.446  14.884 -0.2774 -0.6147  0.0341
 2324TIP3    H128463   5.017   0.525  14.831 -0.1787 -0.8604 -0.3653
 2324TIP3    H228464   5.111   0.407  14.847  0.2988 -0.3145  0.9441
 2325TIP3   OH228465   3.982   3.064   6.924 -0.7902  0.1248  0.0781
 2325TIP3    H128466   3.888   3.082   6.930 -0.8044 -0.0035  0.2534
 2325TIP3    H228467   4.022   3.149   6.905 -1.0136  0.0534 -0.7546
 2326TIP3   OH228468   3.203   3.242  15.201 -0.1329  0.2804  0.3592
 2326TIP3    H128469   3.264   3.270  15.133  0.3610  0.6223  0.9365
 2326TIP3    H228470   3.255   3.240  15.281 -0.1940 -2.1264  0.3792
 2327TIP3   OH228471   1.949   3.849   0.268 -0.6204 -0.0014 -0.1779
 2327TIP3    H128472   1.932   3.942   0.284 -0.3314  0.0651 -0.2644
 2327TIP3    H228473   1.863   3.814   0.242 -0.7975  0.1718  0.1730
 2328TIP3   OH228474   0.542   2.838  12.750  0.5126 -0.4503 -0.5962
 2328TIP3    H128475   0.589   2.814  12.829 -0.4151  1.1359  0.4850
 2328TIP3    H228476   0.454   2.861  12.781 -0.4383 -1.6468 -2.3325
 2329TIP3   OH228477   1.576   0.044  13.761  0.2179  0.4294 -0.0818
 2329TIP3    H128478   1.614  -0.031  13.808  0.4508 -0.7254 -2.0930
 2329TIP3    H228479   1.535   0.006  13.684 -0.9836  2.2254 -0.3441
 2330TIP3   OH228480   3.055   5.704   1.937  0.0520  0.3550 -0.0743
 2330TIP3    H128481   3.134   5.720   1.989  1.3888  0.7179 -2.1341
 2330TIP3    H228482   3.034   5.789   1.899 -0.3754 -0.0822 -0.8287
 2331TIP3   OH228483   5.661   2.759   1.962 -0.4373 -0.6168 -0.2215
 2331TIP3    H128484   5.613   2.760   1.879 -1.4660  1.7939  0.3663
 2331TIP3    H228485   5.601   2.797   2.025  1.1258 -0.4521  1.1973
 2332TIP3   OH228486   2.972   3.335  12.918  0.3689  0.1649  0.2764
 2332TIP3    H128487   3.005   3.303  12.834 -0.6138  1.3992 -0.6110
 2332TIP3    H228488   2.877   3.340  12.905  0.4224  2.5557  0.6753
 2333TIP3   OH228489   0.611   2.245  12.558  0.4043 -0.0271  0.0449
 2333TIP3    H128490   0.628   2.333  12.525  1.3329 -0.2663 -0.1042
 2333TIP3    H228491   0.686   2.225  12.614 -0.4829 -0.1663  1.2160
 2334TIP3   OH228492   5.287   6.062   2.575  0.1377 -0.0881 -0.0932
 2334TIP3    H128493   5.307   6.106   2.658  1.8661  1.1780 -1.1441
 2334TIP3    H228494   5.372   6.050   2.533 -0.7712 -0.1863 -1.9618
 2335TIP3   OH228495   4.527   0.420  12.280  0.0953 -0.1127  0.6521
 2335TIP3    H128496   4.577   0.414  12.198 -0.1223 -2.2687  0.6395
 2335TIP3    H228497   4.594   0.416  12.349  0.4065  3.1792  0.6167
 2336TIP3   OH228498   1.324   3.535   5.855 -0.5339  0.2364  0.4355
 2336TIP3    H128499   1.235   3.571   5.861 -0.4855  0.2488  1.1499
 2336TIP3    H228500   1.361   3.574   5.776 -1.3001 -0.0737 -0.0806
 2337TIP3   OH228501   0.318   5.935   3.003 -0.9550 -1.0376 -0.3689
 2337TIP3    H128502   0.338   6.025   3.025  1.9655 -1.4429 -1.1296
 2337TIP3    H228503   0.357   5.883   3.074  1.2920 -1.8813 -2.1425
 2338TIP3   OH228504   6.698   3.598  13.670 -0.4343 -0.0793 -0.3657
 2338TIP3    H128505   6.678   3.638  13.754 -0.6680  2.0492 -1.3820
 2338TIP3    H228506   6.765   3.655  13.632  0.4548 -1.6249 -1.1647
 2339TIP3   OH228507   0.535   5.333  13.713 -0.2053  0.1073  0.4087
 2339TIP3    H128508   0.476   5.282  13.769 -0.5458  0.0581  0.0062
 2339TIP3    H228509   0.477   5.380  13.653  0.1723 -0.1093 -0.1317
 2340TIP3   OH228510   3.659   5.116  16.697  0.2169 -0.4065 -0.6422
 2340TIP3    H128511   3.753   5.103  16.711  0.9249  0.4072 -4.0505
 2340TIP3    H228512   3.618   5.040  16.738  2.4122 -1.0857  0.3914
 2341TIP3   OH228513   2.995   2.904  15.900  0.3891 -0.2213 -0.3387
 2341TIP3    H128514   2.912   2.877  15.940  0.4463  0.2438  0.0959
 2341TIP3    H228515   3.026   2.826  15.855 -0.1495 -0.4800 -0.2693
 2342TIP3   OH228516   2.328   5.372   1.902  0.3595  0.4149 -0.3817
 2342TIP3    H128517   2.278   5.395   1.981  0.3958  2.0285 -0.8118
 2342TIP3    H228518   2.275   5.405   1.830  1.9650  1.9959 -0.8492
 2343TIP3   OH228519   6.452   0.624  14.113  0.6709  0.0817 -0.0004
 2343TIP3    H128520   6.456   0.583  14.199 -0.0886  0.3124  0.1395
 2343TIP3    H228521   6.402   0.562  14.059  0.6970  0.1874 -0.1478
 2344TIP3   OH228522   5.249   2.806  14.946 -0.5138  0.2048  0.0489
 2344TIP3    H128523   5.282   2.896  14.941 -2.4580  0.8516 -2.4730
 2344TIP3    H228524   5.190   2.799  14.871 -0.0139 -3.3503 -0.0853
 2345TIP3   OH228525   0.541   2.709   3.745  0.0290 -0.2711 -0.5317
 2345TIP3    H128526   0.612   2.716   3.682 -1.3940  0.0609 -2.1354
 2345TIP3    H228527   0.528   2.798   3.777  0.5973 -0.3993  0.0549
 2346TIP3   OH228528   1.753   1.583  14.084 -0.9215  0.3122 -0.5135
 2346TIP3    H128529   1.747   1.488  14.082  2.2568  0.0448  0.3736
 2346TIP3    H228530   1.705   1.609  14.163  0.6943 -0.8062  0.8542
 2347TIP3   OH228531   0.992   5.194   5.141 -0.2111 -1.0529  0.2694
 2347TIP3    H128532   1.015   5.190   5.048 -0.6372 -0.0110  0.1140
 2347TIP3    H228533   0.956   5.282   5.153  0.0840 -1.0850  1.4784
 2348TIP3   OH228534   3.166   0.828  13.010  0.0204 -0.0109 -0.5471
 2348TIP3    H128535   3.128   0.881  12.940  0.9402 -1.8017 -2.4832
 2348TIP3    H228536   3.095   0.769  13.035 -1.3748  2.7978  2.4156
 2349TIP3   OH228537   1.996   1.373   0.713 -0.0185  0.4585  0.0689
 2349TIP3    H128538   1.903   1.354   0.700  0.0687 -0.4987  0.8075
 2349TIP3    H228539   2.010   1.363   0.807  1.5439 -2.7362 -0.4421
 2350TIP3   OH228540   5.270   4.217  13.332  0.3985  0.1778 -0.4677
 2350TIP3    H128541   5.233   4.140  13.289  2.0240  0.0137 -1.6008
 2350TIP3    H228542   5.218   4.290  13.298 -1.4416 -0.4241  0.9502
 2351TIP3   OH228543   3.233   5.950  15.627 -0.4694  0.2671 -0.0336
 2351TIP3    H128544   3.166   6.002  15.582 -0.2246  0.1997 -0.4811
 2351TIP3    H228545   3.266   6.007  15.696  0.9602  1.2978 -1.5601
 2352TIP3   OH228546   3.055   1.570  14.574  0.3974 -0.1609 -0.3160
 2352TIP3    H128547   3.012   1.542  14.655  0.4708  0.1446 -0.1676
 2352TIP3    H228548   3.001   1.533  14.504 -0.4893  0.7668 -0.1375
 2353TIP3   OH228549   3.640   6.358  15.650  0.3318  0.3298 -0.7793
 2353TIP3    H128550   3.640   6.383  15.558  0.1130 -1.3926 -1.2523
 2353TIP3    H228551   3.575   6.288  15.656  2.6355 -1.7673  0.0819
 2354TIP3   OH228552   1.406   4.282   4.165  0.4989 -0.0321  0.5408
 2354TIP3    H128553   1.449   4.337   4.232  0.1612 -0.1568  0.8627
 2354TIP3    H228554   1.389   4.342   4.093  0.5265  0.1938  0.7186
 2355TIP3   OH228555   3.615   4.024   4.622  0.1714 -0.2002  0.3851
 2355TIP3    H128556   3.626   4.105   4.573 -0.8607 -0.4208 -0.2329
 2355TIP3    H228557   3.570   4.050   4.703 -0.0990 -0.1381  0.2165
 2356TIP3   OH228558   1.521   2.493  12.914 -0.0896 -1.0604 -0.0550
 2356TIP3    H128559   1.482   2.513  12.999 -0.4564  1.1629 -0.7185
 2356TIP3    H228560   1.446   2.474  12.857 -0.0499  0.2117 -0.5584
 2357TIP3   OH228561   1.432   6.134   1.772  0.3708  0.2083 -0.2609
 2357TIP3    H128562   1.452   6.225   1.751  0.0818  0.2820 -0.2135
 2357TIP3    H228563   1.444   6.087   1.689  1.9163  0.0550  0.0369
 2358TIP3   OH228564   3.733   1.943   3.755 -0.4954  0.0428 -1.0395
 2358TIP3    H128565   3.763   1.985   3.835 -0.8556  1.2704 -1.5345
 2358TIP3    H228566   3.696   2.014   3.703 -0.3039 -0.7427 -2.2759
 2359TIP3   OH228567   2.503   5.555   5.216  0.8201  0.0417 -0.1049
 2359TIP3    H128568   2.508   5.594   5.129  0.8960  0.8879  0.2793
 2359TIP3    H228569   2.534   5.465   5.203  0.1663 -0.0545 -1.0771
 2360TIP3   OH228570   0.198   2.913   4.039  0.5336 -0.6802 -0.2439
 2360TIP3    H128571   0.276   2.863   4.065 -0.3113 -1.0787  1.6211
 2360TIP3    H228572   0.232   2.983   3.983  2.3700 -0.3148  1.2562
 2361TIP3   OH228573   4.104   2.246   2.240  0.6791  0.0498 -0.0372
 2361TIP3    H128574   4.012   2.246   2.216  1.1090 -1.0052 -1.8417
 2361TIP3    H228575   4.106   2.220   2.332 -0.8497  0.6132  0.1597
 2362TIP3   OH228576   4.971   5.653   2.605 -0.3443 -0.3072  0.2547
 2362TIP3    H128577   5.024   5.720   2.648  1.6644 -1.5744 -0.1670
 2362TIP3    H228578   4.967   5.682   2.513 -1.8754  0.6885  0.6173
 2363TIP3   OH228579   1.636   4.100   4.524  0.4018 -0.3175  0.6539
 2363TIP3    H128580   1.688   4.043   4.580 -1.6603 -3.0431 -0.0736
 2363TIP3    H228581   1.604   4.168   4.583  2.7971  0.0652  1.5776
 2364TIP3   OH228582   0.961   3.242   3.137  0.4795 -0.0345 -0.0037
 2364TIP3    H128583   0.889   3.301   3.115  0.7004 -0.2322 -1.3141
 2364TIP3    H228584   0.923   3.178   3.197  0.1997  1.3444  1.3035
 2365TIP3   OH228585   1.230   3.706  14.771  0.2676 -0.4155  0.5600
 2365TIP3    H128586   1.279   3.787  14.785  2.5333 -2.0598  2.4779
 2365TIP3    H228587   1.274   3.663  14.698  0.1605 -0.7627  0.6962
 2366TIP3   OH228588   4.963   3.934   3.196 -0.0544  0.4949 -0.3235
 2366TIP3    H128589   4.992   3.933   3.287 -0.0184 -2.2476 -0.3299
 2366TIP3    H228590   4.884   3.987   3.197  1.0268  2.1226  0.9462
 2367TIP3   OH228591   1.879   1.235  16.664 -0.4013  0.1143 -0.0994
 2367TIP3    H128592   1.823   1.291  16.610  0.2809  0.8177 -0.0780
 2367TIP3    H228593   1.918   1.294  16.728  1.4744 -0.1253 -0.9937
 2368TIP3   OH228594   5.557   1.982   5.161  0.1899 -0.2772 -0.4585
 2368TIP3    H128595   5.548   2.010   5.252  0.9907 -2.9422  0.4886
 2368TIP3    H228596   5.636   2.026   5.129 -0.1801  0.7844  0.0791
 2369TIP3   OH228597   4.774   2.368  12.601 -0.1543  0.5167 -0.4297
 2369TIP3    H128598   4.716   2.412  12.539 -0.0616  0.0718 -0.8274
 2369TIP3    H228599   4.721   2.361  12.681  0.1853  2.2817 -0.0293
 2370TIP3   OH228600   2.535   1.947   1.423 -0.0062 -0.1101  0.3486
 2370TIP3    H128601   2.451   1.982   1.453 -0.6401 -0.1229 -1.3915
 2370TIP3    H228602   2.545   1.980   1.334  1.2518 -1.1345  0.0937
 2371TIP3   OH228603   4.196   0.010  14.530 -0.1925  0.3478  0.3052
 2371TIP3    H128604   4.172   0.035  14.619  0.1023  0.3913  0.3719
 2371TIP3    H228605   4.112  -0.005  14.486 -0.3867  1.6718  0.2042
 2372TIP3   OH228606   0.879   5.882  14.369  0.3384  0.0363  0.4922
 2372TIP3    H128607   0.853   5.920  14.285  0.3030  0.0830  0.5245
 2372TIP3    H228608   0.957   5.932  14.395 -1.5404  2.2252  2.0957
 2373TIP3   OH228609   0.301   6.215  15.357  0.0553 -0.3198  0.1358
 2373TIP3    H128610   0.349   6.253  15.283 -1.0918 -0.7250 -0.8445
 2373TIP3    H228611   0.352   6.137  15.381  1.0352  0.4306  0.4971
 2374TIP3   OH228612   4.825   0.819   2.728 -0.1384  0.0854  0.4645
 2374TIP3    H128613   4.819   0.909   2.695  0.5265  0.0703  0.3090
 2374TIP3    H228614   4.914   0.811   2.761  0.3808 -1.0639 -1.1461
 2375TIP3   OH228615   3.029   3.207  16.522  0.9180 -0.1513  0.8552
 2375TIP3    H128616   3.111   3.254  16.538 -0.4418  2.6882 -0.1920
 2375TIP3    H228617   3.041   3.165  16.437  0.8765  1.2712  0.1299
 2376TIP3   OH228618   5.646   1.737  13.525 -0.1155 -0.7279 -0.0818
 2376TIP3    H128619   5.603   1.702  13.447 -1.1354 -0.8762  0.5367
 2376TIP3    H228620   5.732   1.695  13.526 -1.0782 -2.7506  0.3031
 2377TIP3   OH228621   1.711   0.217   0.313 -0.1831 -0.1301 -0.4125
 2377TIP3    H128622   1.651   0.164   0.260  0.5320 -2.3579  0.9706
 2377TIP3    H228623   1.777   0.155   0.345  0.4063  1.4894  1.6250
 2378TIP3   OH228624   5.326   3.808   4.257 -0.0939 -0.4100  1.0580
 2378TIP3    H128625   5.344   3.829   4.349  2.0123 -0.6637  0.7211
 2378TIP3    H228626   5.279   3.724   4.261  0.7394 -0.8460  1.8623
 2379TIP3   OH228627   5.463   6.445   6.000  0.6799 -0.5034 -0.0898
 2379TIP3    H128628   5.521   6.410   6.067  0.2844 -0.6578  0.1754
 2379TIP3    H228629   5.388   6.479   6.048  0.2211 -0.9600 -0.4765
 2380TIP3   OH228630   2.611   3.556   0.151  0.2896  0.3690  0.0018
 2380TIP3    H128631   2.536   3.607   0.118 -0.1320 -0.1704  0.1096
 2380TIP3    H228632   2.678   3.622   0.169  0.6181  0.6678 -2.1542
 2381TIP3   OH228633   2.109   2.286   1.836 -0.2658 -0.3835 -0.2429
 2381TIP3    H128634   2.069   2.208   1.875  2.0593 -1.5244 -0.0779
 2381TIP3    H228635   2.187   2.254   1.792 -0.2756  1.5952 -1.7951
 2382TIP3   OH228636   3.020   4.461   3.290 -0.0271  0.3125  0.0505
 2382TIP3    H128637   2.938   4.482   3.246 -0.5723  1.8967  1.7732
 2382TIP3    H228638   3.080   4.532   3.266  0.3164  0.0701  0.1875
 2383TIP3   OH228639   2.193   3.719   5.175  0.7609 -0.4157 -0.2312
 2383TIP3    H128640   2.165   3.662   5.104  0.7934 -0.1015 -0.4944
 2383TIP3    H228641   2.276   3.681   5.205 -0.9503 -2.5934  1.9490
 2384TIP3   OH228642   4.431   4.293  12.198  0.6896 -0.4378 -0.1507
 2384TIP3    H128643   4.425   4.327  12.287 -1.2884  0.0443 -0.4522
 2384TIP3    H228644   4.370   4.219  12.196  2.3060 -1.8167 -0.5247
 2385TIP3   OH228645   4.908   6.426   3.973  0.0384  0.0530 -0.4176
 2385TIP3    H128646   4.956   6.501   4.007 -0.5150  0.5536 -0.7363
 2385TIP3    H228647   4.976   6.370   3.935  0.3418  0.9163 -1.1651
 2386TIP3   OH228648   2.634   3.148   5.389  0.4359 -0.2431 -0.0522
 2386TIP3    H128649   2.590   3.195   5.460  1.1069 -1.0067  0.8871
 2386TIP3    H228650   2.631   3.056   5.416  0.0519 -0.6263 -1.3728
 2387TIP3   OH228651   4.033   3.178  14.832 -0.0609 -0.0602 -0.2237
 2387TIP3    H128652   4.115   3.183  14.881  0.0298  0.0116 -0.3830
 2387TIP3    H228653   3.967   3.156  14.898  0.2923 -1.4183 -0.3113
 2388TIP3   OH228654   4.613   5.801  15.092 -0.2624  0.7825  0.2209
 2388TIP3    H128655   4.689   5.777  15.039 -0.8811 -0.1051 -0.2748
 2388TIP3    H228656   4.575   5.876  15.045 -0.9308 -0.1309 -0.7189
 2389TIP3   OH228657   2.642   0.260   6.717  0.1323  0.2927 -0.1764
 2389TIP3    H128658   2.709   0.329   6.712  0.2855  0.0829 -1.0443
 2389TIP3    H228659   2.589   0.284   6.794 -0.4316  1.9346 -1.0535
 2390TIP3   OH228660   3.823   6.074  16.018  0.1721  0.0916  0.4963
 2390TIP3    H128661   3.897   6.013  16.017 -0.7109 -0.9907 -1.5506
 2390TIP3    H228662   3.833   6.126  15.938 -1.2920 -0.0936  0.1731
 2391TIP3   OH228663   0.163   2.774  13.102  0.2137  0.1159  0.5250
 2391TIP3    H128664   0.115   2.764  13.020  1.5965 -0.7130 -0.2001
 2391TIP3    H228665   0.192   2.686  13.124  1.4563  0.6020  0.9075
 2392TIP3   OH228666   3.545   5.738   1.862  0.6577 -0.7062 -0.0187
 2392TIP3    H128667   3.555   5.825   1.899  2.2928 -0.8228 -0.1405
 2392TIP3    H228668   3.534   5.680   1.938  2.7034 -0.7781  0.2539
 2393TIP3   OH228669   0.814   0.618  14.930 -0.2337 -0.2299  0.0940
 2393TIP3    H128670   0.842   0.639  14.841 -0.3767  3.1259  0.7468
 2393TIP3    H228671   0.896   0.604  14.978 -0.1003 -0.7446 -0.2839
 2394TIP3   OH228672   5.014   6.415   4.658  0.1278  0.6315  0.4831
 2394TIP3    H128673   5.053   6.443   4.741  0.5849  1.0277  0.1323
 2394TIP3    H228674   4.961   6.489   4.630 -1.2487 -0.0607  1.1740
 2395TIP3   OH228675   0.829   0.221  16.922 -0.6223 -0.2700 -0.6101
 2395TIP3    H128676   0.869   0.149  16.875  0.1838 -0.7675  0.8071
 2395TIP3    H228677   0.735   0.208  16.912 -0.4604 -0.6847 -1.5782
 2396TIP3   OH228678   5.898   0.344  10.686  0.7387  0.0064  0.4272
 2396TIP3    H128679   5.980   0.366  10.731  0.8759 -2.0247  1.2099
 2396TIP3    H228680   5.847   0.296  10.752 -2.4489  3.9226  1.0272
 2397TIP3   OH228681   5.171   1.119   6.040  0.0607 -0.2353  0.0817
 2397TIP3    H128682   5.154   1.157   6.126  0.1242 -0.8595  0.3748
 2397TIP3    H228683   5.132   1.181   5.978 -0.4874 -0.0669  0.5904
 2398TIP3   OH228684   3.384   0.833   5.195 -0.1624  0.6832 -0.4042
 2398TIP3    H128685   3.457   0.894   5.200  0.2992  0.1007  0.0600
 2398TIP3    H228686   3.388   0.783   5.277 -0.1211 -0.4285 -1.0655
 2399TIP3   OH228687   0.404   4.568  10.927 -0.4376 -0.2122 -0.3381
 2399TIP3    H128688   0.378   4.493  10.873  0.3756 -1.1424  0.5369
 2399TIP3    H228689   0.414   4.532  11.015 -0.6133  1.0554  0.2198
 2400TIP3   OH228690   1.133   6.488  15.794  0.1696  0.1601  0.4356
 2400TIP3    H128691   1.164   6.510  15.882  3.3150  0.2775 -0.6327
 2400TIP3    H228692   1.130   6.572  15.749  0.2302 -0.1012 -0.0529
 2401TIP3   OH228693   4.247   2.117  13.227  0.8808 -0.5580 -0.2337
 2401TIP3    H128694   4.171   2.126  13.169  0.5547 -0.0314  0.2657
 2401TIP3    H228695   4.214   2.141  13.313  1.5929 -0.4195  0.0048
 2402TIP3   OH228696   2.859   1.517   2.483 -0.4349 -1.2125 -0.0496
 2402TIP3    H128697   2.939   1.519   2.534 -0.2242 -1.3590 -0.3725
 2402TIP3    H228698   2.799   1.576   2.529 -0.0315 -0.8469  0.0069
 2403TIP3   OH228699   4.019   2.224   5.934  0.4387 -0.3808  0.0986
 2403TIP3    H128700   3.984   2.274   5.861  0.7313 -0.9244 -0.4152
 2403TIP3    H228701   3.977   2.138   5.928 -0.5663  0.0092  1.3722
 2404TIP3   OH228702   1.852   3.593  13.395 -0.1215 -0.4224 -0.2577
 2404TIP3    H128703   1.791   3.633  13.458 -1.5605 -0.2350 -1.7344
 2404TIP3    H228704   1.824   3.502  13.389 -0.1204 -0.3909 -0.7808
 2405TIP3   OH228705   5.660   3.334  15.166  0.6323  0.2373 -0.0115
 2405TIP3    H128706   5.631   3.274  15.235  0.4314 -0.4436 -0.6731
 2405TIP3    H228707   5.655   3.421  15.206  0.9005 -0.1804  0.9589
 2406TIP3   OH228708   5.636   4.667  15.777 -0.0812 -0.0776 -0.0830
 2406TIP3    H128709   5.683   4.645  15.696  1.2767 -0.8217  0.8904
 2406TIP3    H228710   5.607   4.582  15.812 -0.9047  0.2625  0.0788
 2407TIP3   OH228711   4.103   3.866   3.335 -0.3998  0.0868 -0.3404
 2407TIP3    H128712   4.079   3.881   3.426 -0.1780  0.9330 -0.4155
 2407TIP3    H228713   4.077   3.946   3.289 -1.7647 -0.8761 -1.2756
 2408TIP3   OH228714   1.936   4.328  13.704  0.1037  0.3808  0.0418
 2408TIP3    H128715   1.882   4.302  13.779 -0.0086 -0.0997 -0.2010
 2408TIP3    H228716   2.019   4.282  13.717 -1.1252 -2.5722 -1.9441
 2409TIP3   OH228717   1.733   5.409  12.194  0.4617 -0.4419  0.0138
 2409TIP3    H128718   1.693   5.483  12.149  0.7148 -1.4666 -1.9306
 2409TIP3    H228719   1.752   5.345  12.125  0.7899 -2.0827  1.5652
 2410TIP3   OH228720   4.348   5.522  12.354 -0.0276  0.6212 -0.2099
 2410TIP3    H128721   4.268   5.470  12.344  0.7525 -0.4195 -1.1677
 2410TIP3    H228722   4.384   5.495  12.438  0.0520  0.0549 -0.4233
 2411TIP3   OH228723   0.196   2.177  16.515 -0.1824 -0.3612 -0.2842
 2411TIP3    H128724   0.186   2.090  16.554 -0.2311 -0.4896 -0.5799
 2411TIP3    H228725   0.290   2.195  16.519 -0.0776 -0.7421 -0.8867
 2412TIP3   OH228726   2.701   1.824  11.759 -0.3125 -0.4783 -0.0620
 2412TIP3    H128727   2.722   1.740  11.798  0.5513 -0.0434  0.4304
 2412TIP3    H228728   2.773   1.842  11.700 -1.0356 -0.5876 -0.9879
 2413TIP3   OH228729   5.435   5.918  10.628 -0.1556 -0.4560 -0.2470
 2413TIP3    H128730   5.433   6.004  10.587  1.3230 -0.4362 -0.3034
 2413TIP3    H228731   5.399   5.859  10.562 -3.0672  0.3783  0.5133
 2414TIP3   OH228732   2.351   5.934   6.059 -0.3116  0.0348 -0.2411
 2414TIP3    H128733   2.270   5.886   6.078 -1.1570  0.9024 -1.5976
 2414TIP3    H228734   2.418   5.891   6.113 -1.9392  0.1991  1.9795
 2415TIP3   OH228735   4.790   4.788  12.298 -0.2556 -0.5763  0.8578
 2415TIP3    H128736   4.823   4.835  12.374 -0.9640 -0.5353  1.1459
 2415TIP3    H228737   4.809   4.696  12.315 -0.7444 -0.6038  1.2558
 2416TIP3   OH228738   3.628   0.645   0.727  0.5979 -0.2361 -0.3405
 2416TIP3    H128739   3.585   0.722   0.764  0.1719 -1.0451  0.8695
 2416TIP3    H228740   3.721   0.659   0.745  0.5077 -0.0488 -0.0161
 2417TIP3   OH228741   1.221   1.888  15.457 -0.0880  0.0261 -0.3705
 2417TIP3    H128742   1.126   1.880  15.448 -0.0770  0.3597 -0.7754
 2417TIP3    H228743   1.233   1.959  15.519 -0.1411 -1.5461  1.4905
 2418TIP3   OH228744   6.494   0.772   2.935  0.3023  0.3364  0.2765
 2418TIP3    H128745   6.410   0.736   2.908  0.8163  0.1843 -1.1325
 2418TIP3    H228746   6.473   0.861   2.965 -0.4278  0.1109  0.4622
 2419TIP3   OH228747   3.499   5.590  15.316  0.3165  0.1208  0.4492
 2419TIP3    H128748   3.460   5.569  15.232  0.2315  0.7446  0.3310
 2419TIP3    H228749   3.506   5.505  15.361 -0.8028 -0.0477  0.3202
 2420TIP3   OH228750   5.949   5.607  16.514 -0.2563 -0.0364  0.1231
 2420TIP3    H128751   5.920   5.570  16.597  0.4412  1.8142  1.2085
 2420TIP3    H228752   6.043   5.590  16.511 -0.3691 -0.5376 -0.5067
 2421TIP3   OH228753   4.588   0.429   1.177  0.0777  0.4778 -0.1137
 2421TIP3    H128754   4.499   0.419   1.144 -0.6197  2.2237  1.1690
 2421TIP3    H228755   4.584   0.400   1.268  0.6341  1.3719  0.2014
 2422TIP3   OH228756   5.832   0.634   0.564  0.0059 -0.2572  0.2951
 2422TIP3    H128757   5.864   0.708   0.615  2.9458 -1.9753  1.0948
 2422TIP3    H228758   5.911   0.596   0.525 -1.6044 -2.0464 -1.3280
 2423TIP3   OH228759   4.714   2.920  15.779  0.5707  0.6369 -0.0167
 2423TIP3    H128760   4.667   2.999  15.804 -0.2470  0.4916 -1.0514
 2423TIP3    H228761   4.733   2.933  15.686 -0.7110 -0.9493 -0.5159
 2424TIP3   OH228762   4.337   6.434  13.724  0.8258  0.2462  0.0299
 2424TIP3    H128763   4.394   6.396  13.657  0.9778  0.5003  0.0143
 2424TIP3    H228764   4.396   6.466  13.791  0.7170  0.7699 -0.1223
 2425TIP3   OH228765   5.785   6.086  11.809  0.4627 -0.2436  0.3294
 2425TIP3    H128766   5.706   6.086  11.864 -0.3107 -1.8476 -0.7198
 2425TIP3    H228767   5.850   6.132  11.861 -0.7870 -0.0781  1.8062
 2426TIP3   OH228768   5.444   0.625   0.370 -0.4776 -0.1893  0.3862
 2426TIP3    H128769   5.434   0.568   0.446  1.1144 -1.4033 -0.2817
 2426TIP3    H228770   5.461   0.566   0.297  1.6740  1.1557 -0.2460
 2427TIP3   OH228771   1.486   3.489   4.693 -0.0189 -0.3456 -0.6124
 2427TIP3    H128772   1.519   3.467   4.780 -1.5836 -1.0365 -0.1754
 2427TIP3    H228773   1.393   3.468   4.697  0.4049 -2.9532 -3.3118
 2428TIP3   OH228774   2.185   0.403   0.676 -0.1894 -0.2536 -0.0588
 2428TIP3    H128775   2.104   0.393   0.725 -0.2301 -0.9651 -0.2606
 2428TIP3    H228776   2.194   0.497   0.662 -1.5448 -0.2611 -0.9914
 2429TIP3   OH228777   5.938   3.414   0.005 -0.2806  0.3982  0.3027
 2429TIP3    H128778   5.868   3.475   0.026 -0.8822 -0.4844  0.9011
 2429TIP3    H228779   5.961   3.434  -0.086  1.3493  3.2674  1.2873
 2430TIP3   OH228780   4.923   4.866   1.298  0.2653  0.0255 -0.1949
 2430TIP3    H128781   4.849   4.833   1.348 -0.1190  2.0373  0.5988
 2430TIP3    H228782   5.000   4.826   1.339 -0.2146 -0.1955  0.4954
 2431TIP3   OH228783   5.132   5.146  13.045  0.1610 -0.2685  0.1720
 2431TIP3    H128784   5.140   5.241  13.043 -0.1434 -0.2183  1.3016
 2431TIP3    H228785   5.087   5.124  12.963 -1.2593  0.6947  0.6778
 2432TIP3   OH228786   5.864   6.621   5.099 -0.1950 -0.0804  0.0056
 2432TIP3    H128787   5.824   6.559   5.038 -0.9133  0.4194 -0.0429
 2432TIP3    H228788   5.936   6.573   5.139 -1.2863 -1.2365  0.6337
 2433TIP3   OH228789   1.232   0.493   2.223  0.3976 -0.3409 -0.5252
 2433TIP3    H128790   1.189   0.409   2.204  0.2987 -0.4944  0.3603
 2433TIP3    H228791   1.221   0.504   2.317 -2.0053  2.0008 -1.0183
 2434TIP3   OH228792   0.657   6.798  11.121  0.5800 -0.0495 -0.5469
 2434TIP3    H128793   0.665   6.736  11.194  0.9061 -0.0058 -0.5446
 2434TIP3    H228794   0.609   6.750  11.054  1.0063 -0.3762 -0.6204
 2435TIP3   OH228795   2.049   4.579  15.095  0.1980  0.3909  0.4392
 2435TIP3    H128796   2.089   4.627  15.167 -1.7307 -0.5298  2.1432
 2435TIP3    H228797   1.955   4.582  15.112 -0.0977 -2.3087 -0.4780
 2436TIP3   OH228798   1.000   5.289  11.380 -0.2764  0.6788  0.0142
 2436TIP3    H128799   1.054   5.210  11.374  0.1252  1.0519 -1.8327
 2436TIP3    H228800   1.061   5.360  11.357 -0.8280  1.4337  0.8678
 2437TIP3   OH228801   1.746   6.425  12.451  0.1515 -0.6648 -0.0587
 2437TIP3    H128802   1.768   6.501  12.506  0.8036 -0.3832 -0.7103
 2437TIP3    H228803   1.825   6.409  12.400 -0.9195 -0.0615 -1.9352
 2438TIP3   OH228804   2.608   0.684   5.646 -0.0294  0.7100  0.2268
 2438TIP3    H128805   2.521   0.649   5.663  0.0278  0.3101 -0.2818
 2438TIP3    H228806   2.650   0.617   5.593  1.2885 -0.0511  2.1458
 2439TIP3   OH228807   1.782   4.841  15.989 -0.1972 -1.0052  0.4929
 2439TIP3    H128808   1.875   4.820  15.998 -0.1019 -1.0247 -0.4497
 2439TIP3    H228809   1.764   4.827  15.896 -1.2096 -1.2619  0.7315
 2440TIP3   OH228810   0.790   2.390  14.131  0.1042  0.2026 -0.0268
 2440TIP3    H128811   0.823   2.386  14.041  0.5368  2.3352  0.0266
 2440TIP3    H228812   0.700   2.420  14.122  0.1884  0.5442  0.2558
 2441TIP3   OH228813   3.624   0.005   5.865 -0.0824  0.3522  0.5314
 2441TIP3    H128814   3.573  -0.076   5.858 -0.6908  0.8259 -0.6308
 2441TIP3    H228815   3.584   0.064   5.801  0.5423  1.4742  1.1681
 2442TIP3   OH228816   6.096   5.325  10.373 -0.4654  0.1278  0.2801
 2442TIP3    H128817   6.183   5.287  10.370 -0.5903 -0.6662  4.2936
 2442TIP3    H228818   6.106   5.405  10.424 -2.2462 -0.5595  1.7636
 2443TIP3   OH228819   2.559   1.535  11.811 -0.2711  0.6553  0.3616
 2443TIP3    H128820   2.480   1.483  11.826 -0.6841  1.2895  0.3916
 2443TIP3    H228821   2.596   1.499  11.730 -0.6123  0.3832  0.3259
 2444TIP3   OH228822   0.925   1.018   2.072  0.1917 -0.0033  0.2939
 2444TIP3    H128823   0.983   1.087   2.038  1.2041  0.4651  2.8617
 2444TIP3    H228824   0.922   1.034   2.166 -1.2645 -2.2212  0.6507
 2445TIP3   OH228825   1.107   4.092   3.453  0.0753 -0.0091  0.4300
 2445TIP3    H128826   1.188   4.137   3.432 -0.0850 -0.0829 -0.3760
 2445TIP3    H228827   1.115   4.069   3.546  2.0242 -2.1305 -0.2005
 2446TIP3   OH228828   3.596   4.936   2.990 -0.4869  0.4885  0.0942
 2446TIP3    H128829   3.562   5.011   2.941  2.8306  1.2302 -1.2087
 2446TIP3    H228830   3.647   4.975   3.061 -0.9031 -0.5629  0.9759
 2447TIP3   OH228831   4.277   2.316   1.791 -0.3120  0.4144 -0.1903
 2447TIP3    H128832   4.216   2.314   1.717  1.5532  3.6556 -1.9237
 2447TIP3    H228833   4.335   2.241   1.775  1.1039  2.0162 -3.0168
 2448TIP3   OH228834   2.209   5.764  16.090 -0.2121 -0.4494 -0.1128
 2448TIP3    H128835   2.262   5.836  16.056 -0.0583 -0.8753 -0.7893
 2448TIP3    H228836   2.228   5.691  16.031 -1.0595 -0.7881  0.0323
 2449TIP3   OH228837   2.068   1.965   4.353 -0.1139 -0.7450  0.2045
 2449TIP3    H128838   2.102   2.047   4.316  2.8057 -0.5820  3.0098
 2449TIP3    H228839   1.996   1.994   4.411  0.4340 -0.2149  0.6331
 2450TIP3   OH228840   5.364   0.981  15.998  0.3544  0.3206 -0.1899
 2450TIP3    H128841   5.305   0.906  16.009  0.2339  0.2860 -1.0650
 2450TIP3    H228842   5.427   0.972  16.069 -0.1379 -0.1658  0.1903
 2451TIP3   OH228843   1.181   1.101  10.518 -0.3833  0.1836 -0.5137
 2451TIP3    H128844   1.207   1.009  10.516  1.2309  0.5806  0.8743
 2451TIP3    H228845   1.088   1.100  10.537 -0.5320 -1.1755 -1.2531
 2452TIP3   OH228846   5.313   1.000  11.583 -0.4024 -0.2136 -0.1561
 2452TIP3    H128847   5.403   0.975  11.562 -0.4352  0.9042 -1.6771
 2452TIP3    H228848   5.286   0.937  11.650  1.7601 -0.1023  0.8817
 2453TIP3   OH228849   6.780   4.660   0.062  0.1268 -0.2262  0.8646
 2453TIP3    H128850   6.749   4.750   0.052 -0.5015 -0.5412 -0.0114
 2453TIP3    H228851   6.863   4.669   0.110  1.5025  1.0548 -1.6793
 2454TIP3   OH228852   5.264   6.298   0.381  0.2331  0.2221 -0.3975
 2454TIP3    H128853   5.204   6.284   0.453 -1.0933 -0.5880 -1.6250
 2454TIP3    H228854   5.209   6.294   0.302  1.8043 -0.1091 -1.5137
 2455TIP3   OH228855   1.320   6.334   2.153 -0.7810 -0.0408 -0.0048
 2455TIP3    H128856   1.282   6.384   2.080 -1.4589 -0.4293  0.0715
 2455TIP3    H228857   1.332   6.246   2.118 -1.2884 -0.2781  0.4074
 2456TIP3   OH228858   5.956   4.864   1.478 -0.3417  0.0318 -0.1494
 2456TIP3    H128859   5.922   4.949   1.450 -1.6272 -0.6806 -0.7842
 2456TIP3    H228860   5.919   4.851   1.565  0.3950  0.4188  0.2243
 2457TIP3   OH228861   2.920   5.264  12.520  0.2100 -0.0886  0.4581
 2457TIP3    H128862   2.833   5.263  12.559 -1.3860  1.2361 -2.8691
 2457TIP3    H228863   2.907   5.302  12.433  4.1035  0.0394 -0.1555
 2458TIP3   OH228864   5.861   2.495   4.623  0.0678 -0.5232  0.1835
 2458TIP3    H128865   5.945   2.541   4.611 -0.3537 -0.1058 -1.2026
 2458TIP3    H228866   5.837   2.515   4.714  0.5567  0.9046  0.0247
 2459TIP3   OH228867   1.345   3.666   2.688  0.4268  0.1561  0.1494
 2459TIP3    H128868   1.256   3.630   2.684  1.1278 -1.9466  2.4080
 2459TIP3    H228869   1.399   3.602   2.641  0.8005  1.3052 -1.0095
 2460TIP3   OH228870   1.036   2.287  13.116  0.1044 -0.6814 -0.2570
 2460TIP3    H128871   0.944   2.295  13.140 -0.3497  0.9184 -2.3862
 2460TIP3    H228872   1.037   2.218  13.050  0.0062  1.1079 -2.1805
 2461TIP3   OH228873   6.184   6.034   0.438  0.1313  0.2134 -0.1113
 2461TIP3    H128874   6.188   6.094   0.512 -1.0169  0.5237 -0.2922
 2461TIP3    H228875   6.208   5.948   0.475  0.6503  0.5654  0.3773
 2462TIP3   OH228876   4.256   4.349   2.388  0.0662  0.7561  0.5847
 2462TIP3    H128877   4.274   4.311   2.301 -3.6855  0.3361 -0.1002
 2462TIP3    H228878   4.246   4.443   2.371 -0.9304  0.6396  0.4848
 2463TIP3   OH228879   3.954   1.392   3.719  0.0974  0.5505 -0.0953
 2463TIP3    H128880   3.949   1.302   3.751  1.0828  0.5794  0.1507
 2463TIP3    H228881   3.909   1.443   3.786  0.1524  0.3280  0.1143
 2464TIP3   OH228882   1.326   6.129   4.538  0.0378 -0.1866  0.0371
 2464TIP3    H128883   1.412   6.109   4.575  0.1429 -0.6682 -0.4596
 2464TIP3    H228884   1.268   6.135   4.614  0.0307 -2.2761  0.2237
 2465TIP3   OH228885   2.565   0.897   4.140  0.1899  0.0801  0.0904
 2465TIP3    H128886   2.640   0.930   4.189  1.3911 -2.0764 -0.2505
 2465TIP3    H228887   2.585   0.918   4.048  1.6839 -2.8242 -0.3044
 2466TIP3   OH228888   5.921   5.944   4.999 -0.4071 -0.4938 -0.0299
 2466TIP3    H128889   5.953   6.027   5.033  0.5094 -0.9015  0.0999
 2466TIP3    H228890   5.944   5.880   5.067 -0.8711 -0.8985 -0.2520
 2467TIP3   OH228891   3.911   1.477   1.154  0.6976 -0.6036 -0.3032
 2467TIP3    H128892   3.936   1.438   1.070  0.9685 -2.7142  0.7416
 2467TIP3    H228893   3.825   1.441   1.173 -0.0536  1.0881 -0.4023
 2468TIP3   OH228894   2.630   0.469   2.267  0.0432 -0.0098  0.4305
 2468TIP3    H128895   2.669   0.391   2.306  1.0096  0.0070 -0.4805
 2468TIP3    H228896   2.536   0.460   2.284 -0.1717 -2.6686 -1.8558
 2469TIP3   OH228897   0.233   5.269   1.874  0.3925  0.2373 -0.2708
 2469TIP3    H128898   0.290   5.258   1.951  0.8780  0.4468 -0.6008
 2469TIP3    H228899   0.254   5.194   1.818  0.9015  0.7398 -0.7493
 2470TIP3   OH228900   2.656   3.642  12.247  0.0210  0.2282 -0.0302
 2470TIP3    H128901   2.742   3.636  12.204  0.3070 -0.8993  0.6866
 2470TIP3    H228902   2.595   3.653  12.174  0.8988  2.5385 -0.4601
 2471TIP3   OH228903   2.426   1.496  12.380 -0.0838  0.2748 -0.1343
 2471TIP3    H128904   2.358   1.483  12.446  0.9788  0.5363  1.0199
 2471TIP3    H228905   2.463   1.582  12.399  1.1618 -0.2342 -0.2050
 2472TIP3   OH228906   4.384   3.445   2.162 -0.2499  0.8513  0.3404
 2472TIP3    H128907   4.445   3.439   2.089 -0.0284  1.2605  0.4911
 2472TIP3    H228908   4.300   3.417   2.125 -0.3607  2.0240 -0.3478
 2473TIP3   OH228909   2.448   1.078   2.278  0.6798  0.3030 -0.6498
 2473TIP3    H128910   2.386   1.011   2.248 -0.5647  1.5084 -0.8120
 2473TIP3    H228911   2.534   1.039   2.263 -0.0359 -1.5562 -0.0451
 2474TIP3   OH228912   1.285   3.873   5.837 -0.3305 -0.4989 -0.1185
 2474TIP3    H128913   1.352   3.834   5.893 -0.7649 -0.9342  0.1043
 2474TIP3    H228914   1.287   3.821   5.757  1.4747  1.1875 -1.2190
 2475TIP3   OH228915   5.803   1.152   0.847 -0.8537  0.1829 -0.0531
 2475TIP3    H128916   5.741   1.112   0.908 -0.7671  0.0055 -0.0817
 2475TIP3    H228917   5.875   1.182   0.902  0.8938 -3.1543 -0.4666
 2476TIP3   OH228918   2.758   5.256  16.742 -0.2670  0.1237  0.0543
 2476TIP3    H128919   2.808   5.301  16.673 -0.2406  0.0234  0.0068
 2476TIP3    H228920   2.819   5.250  16.815 -0.8374  1.7507  0.6922
 2477TIP3   OH228921   3.881   0.775   1.074  0.1821  0.0634 -0.2608
 2477TIP3    H128922   3.859   0.689   1.109  0.4261  0.6701  1.4463
 2477TIP3    H228923   3.846   0.836   1.139 -0.8997  1.2846 -1.9526
 2478TIP3   OH228924   1.326   3.425  16.760 -0.1196 -0.2785  0.0425
 2478TIP3    H128925   1.396   3.490  16.771  1.5536 -2.0720  0.2098
 2478TIP3    H228926   1.265   3.443  16.831  1.1970  0.0139  1.1006
 2479TIP3   OH228927   6.462   1.892   0.992  0.1718 -0.1646 -0.1640
 2479TIP3    H128928   6.516   1.814   0.980 -0.9936 -0.8781 -0.8446
 2479TIP3    H228929   6.441   1.921   0.903 -1.9676 -0.8828  0.0952
 2480TIP3   OH228930   2.539   5.648   4.978  0.1259  0.1492 -0.7167
 2480TIP3    H128931   2.506   5.652   4.888 -0.1678  0.1805 -0.6083
 2480TIP3    H228932   2.573   5.736   4.995  0.0503  0.1835 -0.7452
 2481TIP3   OH228933   2.818   5.849  11.677  0.3909 -0.0078 -0.1293
 2481TIP3    H128934   2.791   5.769  11.633  2.0188  0.5893 -2.2639
 2481TIP3    H228935   2.784   5.920  11.621 -0.3567  0.8050  1.3163
 2482TIP3   OH228936   5.835   4.302   3.986 -0.4835 -0.3781  0.3952
 2482TIP3    H128937   5.917   4.278   4.028 -0.9320  0.0909  1.5667
 2482TIP3    H228938   5.776   4.229   4.005 -0.1540 -1.0456 -1.0428
 2483TIP3   OH228939   3.582   2.243  12.057 -0.4012 -0.0530 -0.5594
 2483TIP3    H128940   3.589   2.226  12.151  2.8420  0.9151 -0.5655
 2483TIP3    H228941   3.549   2.333  12.052  2.0024  0.9046 -0.2380
 2484TIP3   OH228942   3.449   5.565   1.273  0.1583  0.2214  0.6246
 2484TIP3    H128943   3.485   5.600   1.191 -0.3758 -0.8515 -0.0743
 2484TIP3    H228944   3.477   5.474   1.274  0.9153  0.4627  2.0837
 2485TIP3   OH228945   3.588   1.041   0.007  0.0093  0.1278 -0.2252
 2485TIP3    H128946   3.531   1.115   0.027  0.2284  0.4855 -0.8820
 2485TIP3    H228947   3.675   1.069   0.035 -0.0595 -0.2471  0.3762
 2486TIP3   OH228948   1.949   5.677   0.436  0.1105 -0.1727 -0.0067
 2486TIP3    H128949   1.878   5.615   0.421  0.2126 -1.0751  2.7899
 2486TIP3    H228950   1.911   5.744   0.494  0.6852  1.0501 -1.0238
 2487TIP3   OH228951   5.638   0.662   4.032 -0.1153 -0.1155  0.0750
 2487TIP3    H128952   5.620   0.659   3.938 -2.3367 -0.1485  0.4784
 2487TIP3    H228953   5.635   0.755   4.054 -1.6200 -0.2346  0.4559
 2488TIP3   OH228954   0.626   0.454  13.459  0.4522 -0.3382  0.0456
 2488TIP3    H128955   0.641   0.422  13.370  0.1421 -1.2534  0.3178
 2488TIP3    H228956   0.714   0.467  13.495  0.5772 -0.2695 -0.2832
 2489TIP3   OH228957   1.218   0.767   4.731 -0.4499  0.1791 -0.0043
 2489TIP3    H128958   1.224   0.805   4.819 -0.0433  2.1319 -0.8701
 2489TIP3    H228959   1.292   0.706   4.727 -0.0999  0.5388  0.7955
 2490TIP3   OH228960   5.782   6.178  15.952 -0.3909 -0.0398 -0.0873
 2490TIP3    H128961   5.836   6.220  15.885 -1.2223  1.2950  0.0447
 2490TIP3    H228962   5.844   6.140  16.014  0.3801 -0.5159 -1.1473
 2491TIP3   OH228963   4.267   4.470   3.126  0.2394 -0.4499  0.2185
 2491TIP3    H128964   4.267   4.538   3.058  0.9269  1.2442  1.8511
 2491TIP3    H228965   4.177   4.440   3.131  0.0642 -0.1624 -1.0121
 2492TIP3   OH228966   4.762   1.759   2.495 -0.1261 -0.2666 -0.4318
 2492TIP3    H128967   4.800   1.672   2.511  0.4242  0.1777  0.7085
 2492TIP3    H228968   4.737   1.757   2.402  0.8101 -1.2817 -0.6766
 2493TIP3   OH228969   2.376   3.760  11.060 -0.9645  0.0285  0.2024
 2493TIP3    H128970   2.425   3.692  11.107  2.4314  2.4480  0.4052
 2493TIP3    H228971   2.375   3.730  10.969  0.7003 -0.2487  0.2462
 2494TIP3   OH228972   2.348   1.033   2.978  0.1455  0.0344  0.4371
 2494TIP3    H128973   2.319   0.953   2.934 -0.0531  0.3998 -0.1005
 2494TIP3    H228974   2.363   1.095   2.907 -2.1811  1.2781  0.9913
 2495TIP3   OH228975   2.570   0.105   0.645 -0.4706  0.3239 -0.2138
 2495TIP3    H128976   2.593   0.173   0.708 -1.1495  1.1849 -0.8923
 2495TIP3    H228977   2.653   0.085   0.601 -0.0137 -0.2111  0.8720
 2496TIP3   OH228978   1.147   5.870   3.831 -0.9299 -0.2362 -0.3066
 2496TIP3    H128979   1.191   5.908   3.907  0.0387  0.3667 -1.1477
 2496TIP3    H228980   1.056   5.902   3.837 -0.4971  1.0073 -0.1890
 2497TIP3   OH228981   5.475   0.991  14.949 -0.1250  0.2719  0.1326
 2497TIP3    H128982   5.544   1.037  14.996  1.1395 -0.1159 -1.2964
 2497TIP3    H228983   5.402   1.053  14.946  0.2688  0.8077  1.3751
 2498TIP3   OH228984   0.050   3.966   0.007 -0.1634  0.2812 -0.0893
 2498TIP3    H128985   0.014   3.878   0.020 -0.5529  0.3180 -0.8749
 2498TIP3    H228986   0.094   3.962  -0.077 -1.6402  1.2938 -0.9449
 2499TIP3   OH228987   3.374   4.258   4.567  0.1731 -0.6610  0.7621
 2499TIP3    H128988   3.289   4.225   4.537  0.1048 -1.0056  1.3297
 2499TIP3    H228989   3.368   4.255   4.662  0.9353 -0.9816  0.8014
 2500TIP3   OH228990   6.111   2.434  11.567 -0.0561  0.1496 -0.0266
 2500TIP3    H128991   6.019   2.413  11.551 -0.2428  0.1684  1.0258
 2500TIP3    H228992   6.140   2.370  11.631 -0.3624  2.4050  2.4589
 2501TIP3   OH228993   4.151   6.457   0.949 -0.3413  0.1053 -0.4903
 2501TIP3    H128994   4.159   6.534   0.894 -1.6149 -0.3476 -1.3160
 2501TIP3    H228995   4.168   6.383   0.891  0.7055 -0.2655  0.2559
 2502TIP3   OH228996   3.249   3.184   3.887 -0.1887  0.5178 -0.0174
 2502TIP3    H128997   3.180   3.192   3.821 -2.7613 -0.8027  2.3505
 2502TIP3    H228998   3.251   3.269   3.930  0.2854  0.8386 -0.6753
 2503TIP3   OH228999   1.163   2.281   2.015 -0.2564  0.2937  0.1790
 2503TIP3    H129000   1.093   2.327   2.062 -2.0236 -0.8211 -1.3226
 2503TIP3    H229001   1.223   2.351   1.988  0.4228  1.0508  3.3477
 2504TIP3   OH229002   1.628   0.263   6.224 -0.0072  0.2001 -0.1228
 2504TIP3    H129003   1.701   0.262   6.163  0.6947  0.1974  0.7117
 2504TIP3    H229004   1.551   0.243   6.170  0.4291  1.4057 -1.2208
 2505TIP3   OH229005   4.061   0.648   6.727 -0.9001  0.5424 -0.1774
 2505TIP3    H129006   4.067   0.724   6.669 -2.6219  0.1429 -0.8986
 2505TIP3    H229007   3.968   0.641   6.749 -0.4144  0.1009  1.8633
 2506TIP3   OH229008   4.917   5.924  14.206  0.2730  0.0638 -0.1204
 2506TIP3    H129009   4.928   5.965  14.120  1.0571 -2.1373 -1.1214
 2506TIP3    H229010   4.897   5.832  14.186  0.0945 -0.4038  2.0569
 2507TIP3   OH229011   2.017   2.446  13.964  0.1968  0.1813 -0.1054
 2507TIP3    H129012   1.990   2.368  14.012 -2.2104  0.3156 -1.2092
 2507TIP3    H229013   2.110   2.456  13.985 -0.0011 -1.7170  1.7802
 2508TIP3   OH229014   5.387   1.196  13.992  0.2886 -0.1732 -0.0049
 2508TIP3    H129015   5.431   1.254  14.055  0.7607  0.0490 -0.5383
 2508TIP3    H229016   5.302   1.179  14.032 -0.0881  1.3789 -0.1241
 2509TIP3   OH229017   6.704   0.034   3.065 -0.1407  0.2872 -0.1906
 2509TIP3    H129018   6.705   0.129   3.057 -0.3062  0.4419  1.3552
 2509TIP3    H229019   6.742   0.017   3.152 -0.9480 -0.9986 -0.0769
 2510TIP3   OH229020   4.982   4.547  15.569  0.7128 -0.0452 -0.3594
 2510TIP3    H129021   5.072   4.527  15.594  0.0396  0.2745  2.4816
 2510TIP3    H229022   4.974   4.514  15.479  3.4059 -0.7732 -0.3761
 2511TIP3   OH229023   2.895   2.042   0.562 -0.0242  0.0657 -0.3687
 2511TIP3    H129024   2.935   2.081   0.485  1.4403 -1.1100 -0.2314
 2511TIP3    H229025   2.816   2.000   0.528  0.1890  0.2375 -1.0980
 2512TIP3   OH229026   5.308   6.201   2.809  0.0728  0.0501  0.3148
 2512TIP3    H129027   5.269   6.286   2.787  0.1677  0.1422  0.5021
 2512TIP3    H229028   5.238   6.156   2.857  0.2761  0.3085  0.8598
 2513TIP3   OH229029   1.197   2.403  12.387 -0.1262  0.0195  0.6464
 2513TIP3    H129030   1.273   2.354  12.355 -0.8211 -1.0660  0.6443
 2513TIP3    H229031   1.204   2.488  12.344 -0.0342 -0.7799 -0.9431
 2514TIP3   OH229032   1.102   5.542  12.244  0.2283 -0.0547 -0.5010
 2514TIP3    H129033   1.029   5.576  12.192 -0.0203 -0.7156 -0.5924
 2514TIP3    H229034   1.181   5.575  12.200  0.0036  4.9727  2.4487
 2515TIP3   OH229035   2.026   5.231   2.955 -0.8715 -0.3383  0.2231
 2515TIP3    H129036   1.999   5.198   3.040 -1.4549  1.6432  0.8424
 2515TIP3    H229037   2.004   5.325   2.957 -2.7680 -0.6304 -2.8175
 2516TIP3   OH229038   5.187   3.575   0.150  0.4447 -0.3163  0.9240
 2516TIP3    H129039   5.199   3.601   0.058  0.0566 -0.4330  0.8402
 2516TIP3    H229040   5.111   3.517   0.149  0.1248  0.0934  1.3979
 2517TIP3   OH229041   3.139   4.197   1.322 -0.2745 -0.2872 -0.7395
 2517TIP3    H129042   3.206   4.227   1.261  0.9234 -2.2600 -0.4345
 2517TIP3    H229043   3.093   4.127   1.275 -1.4049  0.2834 -0.5191
 2518TIP3   OH229044   0.020   2.659   0.398 -0.1753 -0.1980 -0.3363
 2518TIP3    H129045   0.070   2.703   0.329 -1.3548 -0.3651 -1.3048
 2518TIP3    H229046   0.049   2.568   0.394 -0.3713 -0.2405 -0.7103
 2519TIP3   OH229047   5.641   3.559  12.545  0.9196  0.0343 -0.0753
 2519TIP3    H129048   5.617   3.606  12.465 -0.9374 -1.0674 -0.1937
 2519TIP3    H229049   5.690   3.623  12.596  1.7242  0.9037 -1.8836
 2520TIP3   OH229050   1.182   4.558  10.338  0.2128  0.6113 -0.0703
 2520TIP3    H129051   1.215   4.621  10.403 -0.4438  1.0346 -0.1465
 2520TIP3    H229052   1.088   4.576  10.333 -0.2057 -1.2219  0.8501
 2521TIP3   OH229053   6.294   5.225  15.396 -0.4930 -0.0666 -0.6151
 2521TIP3    H129054   6.339   5.141  15.406  0.1791  0.0638 -2.3860
 2521TIP3    H229055   6.364   5.288  15.381 -1.1649  0.3622 -1.9868
 2522TIP3   OH229056   1.259   3.884   0.583  0.0126 -0.6509 -0.5396
 2522TIP3    H129057   1.302   3.815   0.633  1.0108 -0.4144 -1.0666
 2522TIP3    H229058   1.179   3.842   0.549 -1.6223 -0.3099  2.7095
 2523TIP3   OH229059   6.503   5.971   4.041 -0.5656  0.3091 -0.3268
 2523TIP3    H129060   6.477   6.028   4.113  2.4956  0.4531  0.7377
 2523TIP3    H229061   6.525   6.031   3.970  1.6582  0.4588  0.4531
 2524TIP3   OH229062   2.739   3.590  13.100  0.2610 -0.3656 -0.1210
 2524TIP3    H129063   2.669   3.532  13.071 -1.6876  0.9854  1.6521
 2524TIP3    H229064   2.727   3.670  13.049  1.3580 -0.5996 -0.7567
 2525TIP3   OH229065   1.583   4.320   4.708 -0.1548 -0.3546  1.4329
 2525TIP3    H129066   1.539   4.395   4.748  2.5513  1.4729  1.1632
 2525TIP3    H229067   1.669   4.354   4.683 -0.1446 -2.5960 -1.9540
 2526TIP3   OH229068   5.103   4.727  16.971  0.1574  0.3828 -0.0911
 2526TIP3    H129069   5.115   4.821  16.964  1.2805  0.3594  1.2623
 2526TIP3    H229070   5.013   4.716  17.004 -0.3875  0.9190 -1.3688
 2527TIP3   OH229071   1.261   3.355   3.761 -0.1960  0.8019  0.5431
 2527TIP3    H129072   1.238   3.402   3.681 -2.1620 -0.3646  0.3627
 2527TIP3    H229073   1.328   3.293   3.734 -3.0479 -1.7847 -1.0193
 2528TIP3   OH229074   2.082   4.689   2.937  0.6826 -0.1619  0.1528
 2528TIP3    H129075   2.077   4.728   3.024 -0.0085 -0.6996  0.3638
 2528TIP3    H229076   2.154   4.626   2.943 -0.5044 -1.4767  0.8707
 2529TIP3   OH229077   3.205   2.407  14.339 -0.9084 -0.3353  0.5815
 2529TIP3    H129078   3.202   2.361  14.423  0.5258 -0.2905  0.6843
 2529TIP3    H229079   3.290   2.381  14.302 -1.0992  0.4301 -0.3911
 2530TIP3   OH229080   5.455   2.586  13.547  0.2533 -0.4937 -0.0633
 2530TIP3    H129081   5.385   2.638  13.587 -0.1889  0.2520 -1.7688
 2530TIP3    H229082   5.436   2.496  13.573 -0.8344 -0.1853  0.2351
 2531TIP3   OH229083   4.568   1.027   4.464 -0.4150 -0.0064 -0.3678
 2531TIP3    H129084   4.644   1.085   4.469  0.1047 -0.4721 -2.1556
 2531TIP3    H229085   4.499   1.081   4.426 -1.7413  1.1014  3.4578
 2532TIP3   OH229086   3.223   1.559   2.012  0.2166  0.0350 -0.2600
 2532TIP3    H129087   3.253   1.561   2.103  0.8132 -0.3401 -0.4507
 2532TIP3    H229088   3.128   1.564   2.019  0.3245  1.7041  0.3243
 2533TIP3   OH229089   2.391   1.882   4.986 -0.0687 -0.2643 -0.5289
 2533TIP3    H129090   2.472   1.932   4.975 -0.7351  1.4598  1.8884
 2533TIP3    H229091   2.323   1.949   4.988 -1.0176 -1.2314  2.5786
 2534TIP3   OH229092   5.524   0.743  14.616 -0.0946  0.1070 -0.0049
 2534TIP3    H129093   5.577   0.747  14.696  0.9164  1.9016 -0.7274
 2534TIP3    H229094   5.586   0.763  14.546 -1.5083  1.1427 -0.9778
 2535TIP3   OH229095   1.148   3.109   4.419 -0.5794 -0.1676 -0.2439
 2535TIP3    H129096   1.121   3.157   4.340 -0.6586 -0.1687 -0.2182
 2535TIP3    H229097   1.232   3.148   4.443 -0.6855  0.0196 -0.1721
 2536TIP3   OH229098   0.024   3.234  16.329  0.3001  0.3303  0.1936
 2536TIP3    H129099   0.020   3.141  16.308 -1.8598  0.7145 -1.3105
 2536TIP3    H229100   0.115   3.259  16.314  0.3434 -1.0035 -1.9194
 2537TIP3   OH229101   2.488   3.726   1.263  0.6241 -0.2485 -0.0546
 2537TIP3    H129102   2.516   3.775   1.340 -3.8043  2.6544 -0.1255
 2537TIP3    H229103   2.562   3.733   1.202  1.6065  3.1946  1.3906
 2538TIP3   OH229104   5.237   6.078  15.309 -0.1741 -0.5338 -0.5412
 2538TIP3    H129105   5.201   6.091  15.397 -1.7077  0.4228 -1.2985
 2538TIP3    H229106   5.167   6.036  15.260  0.6405 -0.9640 -1.3541
 2539TIP3   OH229107   1.183   1.724  14.574  0.1023  0.3162  0.1980
 2539TIP3    H129108   1.110   1.694  14.520 -0.5034 -2.3536  2.4093
 2539TIP3    H229109   1.154   1.807  14.611 -0.6546  0.6710 -1.1579
 2540TIP3   OH229110   1.511   3.190  16.869  0.0821 -0.2865 -0.0848
 2540TIP3    H129111   1.604   3.173  16.857 -0.0598 -1.6872  0.7523
 2540TIP3    H229112   1.498   3.278  16.834  1.7584  0.0017 -0.0059
 2541TIP3   OH229113   6.720   2.955  14.570 -0.7389 -0.7197 -0.2996
 2541TIP3    H129114   6.648   2.981  14.513 -2.8002 -1.3310  1.9198
 2541TIP3    H229115   6.750   2.871  14.535 -0.7124 -0.1880 -1.5693
 2542TIP3   OH229116   3.021   4.980   2.664 -0.0773 -0.3219  0.2475
 2542TIP3    H129117   3.108   4.997   2.700 -0.0016  0.5183 -0.3283
 2542TIP3    H229118   2.978   4.925   2.730  0.6328 -0.1410  0.8631
 2543TIP3   OH229119   0.860   0.410   6.516  0.3563 -0.1306 -0.0442
 2543TIP3    H129120   0.943   0.379   6.552  0.4213 -0.2393 -0.2869
 2543TIP3    H229121   0.805   0.332   6.511  1.2294 -0.6209 -2.6264
 2544TIP3   OH229122   4.295   3.716   6.391  0.1186 -0.2278  0.6556
 2544TIP3    H129123   4.325   3.791   6.442  1.7388  0.3937 -1.1621
 2544TIP3    H229124   4.200   3.718   6.400  0.0282  2.8579 -0.4353
 2545TIP3   OH229125   2.367   1.169  15.738 -0.3630  0.1561  0.7215
 2545TIP3    H129126   2.357   1.081  15.702 -0.1235 -0.1340  1.3579
 2545TIP3    H229127   2.278   1.201  15.747 -0.4387  0.0940  0.2008
 2546TIP3   OH229128   1.360   2.451  11.921  0.5901 -0.0922 -0.4638
 2546TIP3    H129129   1.330   2.520  11.862 -0.5893 -0.8076 -0.7199
 2546TIP3    H229130   1.445   2.482  11.953  1.4219  0.1581 -2.8127
 2547TIP3   OH229131   1.012   3.699   5.076 -0.1419 -0.1755 -0.5691
 2547TIP3    H129132   1.010   3.794   5.077  0.7751 -0.1372 -1.9743
 2547TIP3    H229133   0.985   3.675   4.988 -2.8362 -1.3088  0.4846
 2548TIP3   OH229134   0.208   5.746   5.500 -0.5752 -0.4055  0.0010
 2548TIP3    H129135   0.195   5.796   5.580 -1.9005 -0.5421 -0.1141
 2548TIP3    H229136   0.219   5.656   5.530  1.4117 -0.1203  0.1822
 2549TIP3   OH229137   5.607   6.237   3.690  0.4321  0.5767 -0.3740
 2549TIP3    H129138   5.580   6.329   3.691 -1.2419  0.0939  0.1148
 2549TIP3    H229139   5.605   6.210   3.782 -1.6405 -0.6504 -0.7475
 2550TIP3   OH229140   2.656   0.592   2.948 -0.4501  0.5916 -0.4594
 2550TIP3    H129141   2.744   0.616   2.919 -1.3033  0.3867 -3.4387
 2550TIP3    H229142   2.611   0.675   2.959 -0.2331  0.6608 -0.0776
 2551TIP3   OH229143   5.551   1.196  16.398  0.1294  0.1971 -0.7411
 2551TIP3    H129144   5.535   1.288  16.421 -4.3978 -0.5158 -0.5366
 2551TIP3    H229145   5.599   1.160  16.473  3.8235  2.7989 -1.7247
 2552TIP3   OH229146   4.675   4.364   3.909  0.2735 -0.2061  0.2341
 2552TIP3    H129147   4.689   4.393   3.819 -0.0332 -2.7014 -0.6692
 2552TIP3    H229148   4.580   4.362   3.919  0.3190  0.5679  0.7716
 2553TIP3   OH229149   3.223   3.332   0.231 -0.0785  0.7177  0.1948
 2553TIP3    H129150   3.210   3.268   0.161  0.5875  2.1594 -1.2644
 2553TIP3    H229151   3.301   3.302   0.276 -1.2938 -0.9939  1.2140
 2554TIP3   OH229152   3.787   4.222   4.339 -0.1362 -0.2919 -0.4414
 2554TIP3    H129153   3.868   4.202   4.385  0.7260  1.5584 -1.1336
 2554TIP3    H229154   3.749   4.295   4.387 -1.2277 -0.8968 -0.3548
 2555TIP3   OH229155   3.300   4.814   4.687  0.2203 -0.3086  0.0839
 2555TIP3    H129156   3.320   4.729   4.647 -1.6056 -1.2956  1.2351
 2555TIP3    H229157   3.229   4.796   4.748 -0.4141  2.1212  0.1057
 2556TIP3   OH229158   4.553   1.665  13.978 -0.3289 -0.1661 -0.3577
 2556TIP3    H129159   4.562   1.727  14.051 -0.7021  0.3491 -0.7413
 2556TIP3    H229160   4.458   1.651  13.971 -0.5771  2.2499 -2.7618
 2557TIP3   OH229161   6.576   2.129   5.647 -0.1530  0.8093 -0.2647
 2557TIP3    H129162   6.554   2.185   5.722  0.7443 -0.9804  1.3652
 2557TIP3    H229163   6.493   2.117   5.601 -1.1840  0.0136  1.7650
 2558TIP3   OH229164   0.582   5.062  16.551 -0.3015 -0.0446 -0.1641
 2558TIP3    H129165   0.554   4.975  16.581 -1.7649  0.3778 -0.2608
 2558TIP3    H229166   0.503   5.100  16.512  0.0176  1.7873  0.9267
 2559TIP3   OH229167   2.326   0.756   5.116  0.1786  0.4048 -0.5959
 2559TIP3    H129168   2.336   0.848   5.090  1.0144  0.0297 -1.6883
 2559TIP3    H229169   2.414   0.719   5.107 -0.3817 -0.7881 -1.3489
 2560TIP3   OH229170   2.707   1.339  14.122 -0.2194  0.0272 -0.5083
 2560TIP3    H129171   2.716   1.434  14.125  0.4266 -0.0651  1.9538
 2560TIP3    H229172   2.615   1.322  14.142 -1.0287  0.1931 -3.8134
 2561TIP3   OH229173   0.015   4.711   5.297 -0.1029  0.4700 -0.2662
 2561TIP3    H129174   0.083   4.698   5.363 -0.1829  2.2141  0.2017
 2561TIP3    H229175   0.058   4.695   5.214 -0.3253 -3.0075  0.2467
 2562TIP3   OH229176   2.291   0.569   3.025 -0.2814 -0.1502  0.4955
 2562TIP3    H129177   2.383   0.547   3.042 -0.3943  0.0949  1.4577
 2562TIP3    H229178   2.242   0.522   3.092 -0.7214  1.0442  1.0209
 2563TIP3   OH229179   0.980   4.253   3.843  0.5214  0.1957  0.3740
 2563TIP3    H129180   0.964   4.196   3.918  0.7675 -0.3808  0.0003
 2563TIP3    H229181   0.893   4.269   3.806  0.4743 -0.1867  0.3108
 2564TIP3   OH229182   5.905   1.811  16.799 -0.1004  0.0088 -0.1352
 2564TIP3    H129183   5.957   1.748  16.749  0.8700  0.2925  0.4921
 2564TIP3    H229184   5.832   1.834  16.741  0.3037 -0.6301 -0.9097
 2565TIP3   OH229185   0.589   5.763   4.076 -0.4719  0.8261 -0.4287
 2565TIP3    H129186   0.541   5.746   4.157  1.2021  1.1719  0.6667
 2565TIP3    H229187   0.641   5.842   4.095 -0.9356  1.5917 -2.2287
 2566TIP3   OH229188   0.688   1.351   2.551  0.0210  0.1759 -0.1733
 2566TIP3    H129189   0.725   1.422   2.498  2.5399 -0.7274  0.3093
 2566TIP3    H229190   0.737   1.355   2.633  0.3668 -2.2661 -0.2329
 2567TIP3   OH229191   0.307   2.020  14.322  0.4054  0.2280  0.2298
 2567TIP3    H129192   0.290   2.112  14.340 -1.0416  0.2022 -0.8794
 2567TIP3    H229193   0.283   1.974  14.403 -1.0842  0.6112  0.0282
 2568TIP3   OH229194   6.610   0.602   5.527  0.4670 -0.1108  0.3763
 2568TIP3    H129195   6.632   0.642   5.443 -1.3466  2.7154  1.1887
 2568TIP3    H229196   6.531   0.647   5.555  1.3535 -0.5843  3.8788
 2569TIP3   OH229197   3.393   0.703   1.812 -0.2361 -0.2606  0.4079
 2569TIP3    H129198   3.461   0.645   1.845  1.6395  1.4652 -0.3281
 2569TIP3    H229199   3.396   0.779   1.869 -0.8155  0.2764 -0.2652
 2570TIP3   OH229200   3.513   5.818  12.923  0.1349  0.5144  0.4335
 2570TIP3    H129201   3.418   5.820  12.925  0.1045  0.4630 -0.7624
 2570TIP3    H229202   3.537   5.752  12.989 -0.7079 -0.7013 -0.4517
 2571TIP3   OH229203   2.487   6.451  16.448  0.4242  0.0233 -0.3907
 2571TIP3    H129204   2.405   6.445  16.399 -0.8849  0.3387  1.6818
 2571TIP3    H229205   2.539   6.514  16.399 -0.4750 -0.3241 -1.8544
 2572TIP3   OH229206   1.296   0.882  12.046 -0.2406 -0.2751 -0.2057
 2572TIP3    H129207   1.308   0.831  11.966  1.3489  0.3389 -0.3900
 2572TIP3    H229208   1.287   0.973  12.016 -0.9108 -0.1929  0.2376
 2573TIP3   OH229209   1.535   1.021  11.686 -0.8248 -0.2906 -0.5155
 2573TIP3    H129210   1.582   1.003  11.605 -0.4377 -2.3295  0.1423
 2573TIP3    H229211   1.462   1.078  11.660 -1.0364 -1.3912 -2.3861
 2574TIP3   OH229212   4.318   3.303  14.426 -0.0158 -0.5876 -0.5160
 2574TIP3    H129213   4.227   3.280  14.406 -0.3938  0.2442  0.2157
 2574TIP3    H229214   4.315   3.398  14.441  0.6730 -0.8324  1.1761
 2575TIP3   OH229215   1.941   5.748  13.842 -0.3679  0.0124 -0.3833
 2575TIP3    H129216   1.985   5.688  13.782 -1.0345  0.1295 -0.9985
 2575TIP3    H229217   1.953   5.834  13.803  0.5324  0.2879  0.4675
 2576TIP3   OH229218   3.153   1.676  15.485  0.3064  0.3125 -0.5719
 2576TIP3    H129219   3.192   1.724  15.557 -0.6254  2.2510 -1.3201
 2576TIP3    H229220   3.108   1.743  15.432 -0.4283 -1.2705 -2.0298
 2577TIP3   OH229221   5.152   0.427   6.333  0.1207  0.2067  0.8085
 2577TIP3    H129222   5.227   0.417   6.391  0.0274  0.0322  0.8993
 2577TIP3    H229223   5.118   0.515   6.352  0.0282  0.1098  1.0896
 2578TIP3   OH229224   3.554   1.731   2.970  0.5484  0.8792  0.5308
 2578TIP3    H129225   3.472   1.735   3.020  0.4947 -1.4854  0.6878
 2578TIP3    H229226   3.586   1.821   2.970 -1.7687  1.7447  0.9396
 2579TIP3   OH229227   5.074   6.095  15.541 -0.0680  0.0524  0.2198
 2579TIP3    H129228   5.012   6.092  15.469  0.6507  0.6389 -0.4324
 2579TIP3    H229229   5.076   6.187  15.567 -0.1279 -0.1133  0.8087
 2580TIP3   OH229230   4.261   2.947  12.280  0.6038  0.0823 -0.2174
 2580TIP3    H129231   4.334   2.932  12.340  0.4532 -0.9050 -0.2705
 2580TIP3    H229232   4.301   2.944  12.193  0.3660 -1.3564 -0.2883
 2581TIP3   OH229233   2.211   0.613   1.768 -0.4466  0.4343 -0.1476
 2581TIP3    H129234   2.126   0.571   1.750 -0.7633  0.0549  2.0778
 2581TIP3    H229235   2.243   0.639   1.682 -2.2435 -0.5505 -1.1587
 2582TIP3   OH229236   6.541   5.172  13.447  0.3197 -0.3859  0.5802
 2582TIP3    H129237   6.545   5.086  13.490  2.6133  0.1722  1.5879
 2582TIP3    H229238   6.562   5.154  13.356 -1.5683 -1.1825  0.2682
 2583TIP3   OH229239   0.196   1.890   5.158 -0.3065 -0.2071  0.0677
 2583TIP3    H129240   0.183   1.855   5.069 -2.5721  0.0173  0.2763
 2583TIP3    H229241   0.286   1.921   5.158 -0.2336 -0.2986 -2.1355
 2584TIP3   OH229242   4.181   5.951   1.489  0.3562  0.9885 -0.0002
 2584TIP3    H129243   4.232   5.873   1.513 -2.3331 -0.4969  1.0555
 2584TIP3    H229244   4.194   5.959   1.394  2.2264  0.4175  0.1867
 2585TIP3   OH229245   6.050   5.134  13.567 -0.1742  0.5178  0.1159
 2585TIP3    H129246   6.024   5.200  13.503  0.1839 -0.6138 -1.2013
 2585TIP3    H229247   6.051   5.052  13.519 -0.6607 -0.4808  1.7577
 2586TIP3   OH229248   1.567   5.677  12.062 -0.0628 -0.1986  0.2407
 2586TIP3    H129249   1.511   5.635  12.127  0.5571 -0.4582  0.6113
 2586TIP3    H229250   1.515   5.751  12.030 -0.5151 -0.2863  0.7633
 2587TIP3   OH229251   1.611   1.935  13.681  0.8641  0.1148  0.2795
 2587TIP3    H129252   1.664   1.922  13.603  1.1710 -0.0857  0.5207
 2587TIP3    H229253   1.619   1.852  13.729 -0.3100 -0.2193 -0.0772
 2588TIP3   OH229254   2.468   0.716  14.533  0.3511 -0.2322 -0.1406
 2588TIP3    H129255   2.439   0.629  14.509 -0.7515  0.0648  0.1101
 2588TIP3    H229256   2.416   0.739  14.610 -0.4180  1.2470 -1.0860
 2589TIP3   OH229257   1.041   3.583   5.422 -0.2052 -0.1940  0.5364
 2589TIP3    H129258   1.123   3.632   5.425 -0.0580 -0.4529  0.7172
 2589TIP3    H229259   1.040   3.544   5.335 -1.2049  1.6506 -0.3060
 2590TIP3   OH229260   5.476   5.985  11.859  0.1427 -0.2493  0.0635
 2590TIP3    H129261   5.453   6.044  11.931 -1.5640  0.6534 -1.1805
 2590TIP3    H229262   5.425   5.906  11.875 -2.4729  1.0148 -1.6283
 2591TIP3   OH229263   5.566   3.803  12.979 -1.0359  0.4536 -0.4570
 2591TIP3    H129264   5.519   3.732  13.023  0.5879 -0.4048 -0.0352
 2591TIP3    H229265   5.637   3.825  13.040  0.6070  0.0019 -2.1552
 2592TIP3   OH229266   6.220   2.258   6.262 -0.2767  0.4304  0.3222
 2592TIP3    H129267   6.167   2.179   6.259 -1.8842  1.5281 -1.7469
 2592TIP3    H229268   6.160   2.326   6.294  0.3343  1.3483 -0.4491
 2593TIP3   OH229269   2.115   5.465  14.705 -0.2966  0.2735  0.2339
 2593TIP3    H129270   2.181   5.434  14.768  0.7074  2.5197  0.3402
 2593TIP3    H229271   2.032   5.447  14.747  0.3415  0.6327  1.6796
 2594TIP3   OH229272   6.482   2.059   2.602 -0.6189 -0.1630 -0.7570
 2594TIP3    H129273   6.431   2.138   2.584  0.1514  0.2982 -0.9252
 2594TIP3    H229274   6.545   2.086   2.669 -0.2318 -0.5936 -0.9467
 2595TIP3   OH229275   2.759   6.428  13.908 -0.0252 -0.6678 -0.1647
 2595TIP3    H129276   2.701   6.503  13.918 -0.1838 -0.7540 -0.4385
 2595TIP3    H229277   2.787   6.432  13.816  1.1347 -0.0874  0.2095
 2596TIP3   OH229278   1.925   6.428   4.241  0.3897  0.2690  0.1366
 2596TIP3    H129279   1.952   6.396   4.155 -1.2163  0.8448 -0.5996
 2596TIP3    H229280   1.878   6.355   4.280 -0.9819  0.8066 -0.4740
 2597TIP3   OH229281   1.667   0.020  17.185 -0.0486  0.0353 -0.6202
 2597TIP3    H129282   1.665   0.116  17.188  0.2907  0.0702 -1.3328
 2597TIP3    H229283   1.649  -0.007  17.275 -3.6591  0.7004 -1.0656
 2598TIP3   OH229284   2.365   3.649  12.155  0.0495  0.6403  0.3438
 2598TIP3    H129285   2.393   3.578  12.097  0.3142  0.1756  1.0405
 2598TIP3    H229286   2.359   3.725  12.097 -1.3931 -0.1998 -0.6558
 2599TIP3   OH229287   4.370   0.589   0.457 -0.3229 -0.4429  0.0239
 2599TIP3    H129288   4.465   0.599   0.454 -0.3096 -0.3522  0.7376
 2599TIP3    H229289   4.350   0.570   0.548 -0.8324 -2.1227 -0.4145
 2600TIP3   OH229290   2.698   4.365   3.099 -0.3385 -0.4652 -0.2251
 2600TIP3    H129291   2.735   4.451   3.078 -0.4535 -0.0708  1.1234
 2600TIP3    H229292   2.603   4.379   3.098 -0.3224 -0.0315  2.1292
 2601TIP3   OH229293   3.281   0.164  12.531 -0.0930 -0.0553 -0.3433
 2601TIP3    H129294   3.317   0.112  12.460 -0.4828 -0.2457 -0.3983
 2601TIP3    H229295   3.282   0.254  12.498 -0.5806 -0.1841 -0.7160
 2602TIP3   OH229296   0.842   4.571   0.334 -0.6645  0.1193  0.5682
 2602TIP3    H129297   0.865   4.554   0.242 -0.7750  1.8112  0.2187
 2602TIP3    H229298   0.749   4.593   0.331 -0.8620 -0.6135  1.1966
 2603TIP3   OH229299   1.271   4.233  14.061 -0.4011  0.4374  0.1071
 2603TIP3    H129300   1.274   4.222  13.966  0.2225  0.2186  0.1438
 2603TIP3    H229301   1.182   4.207  14.086 -0.3109 -0.3006 -0.3254
 2604TIP3   OH229302   0.926   1.440   2.391 -0.1143 -0.2864 -0.1375
 2604TIP3    H129303   0.905   1.455   2.299  2.5548  0.0124 -0.7506
 2604TIP3    H229304   1.020   1.419   2.390 -0.2574 -1.1475  2.4190
 2605TIP3   OH229305   0.443   1.292   4.939  0.1460  0.3390  0.1415
 2605TIP3    H129306   0.389   1.249   5.005 -2.3884  2.1093 -0.7191
 2605TIP3    H229307   0.445   1.384   4.966  0.7711  0.7167 -1.1502
 2606TIP3   OH229308   4.658   0.567  14.153  0.3610  0.0065 -0.2436
 2606TIP3    H129309   4.584   0.538  14.206  1.0145 -0.2639  0.5241
 2606TIP3    H229310   4.660   0.506  14.079  0.7910 -0.9683  0.5692
 2607TIP3   OH229311   4.475   1.492  12.431  0.3316  0.1535 -1.0384
 2607TIP3    H129312   4.415   1.537  12.489  0.2522 -1.0853 -0.1440
 2607TIP3    H229313   4.561   1.527  12.454  0.2477  0.0017 -0.4818
 2608TIP3   OH229314   4.088   2.925   3.314 -0.2450  0.4321  0.2314
 2608TIP3    H129315   4.003   2.887   3.291  0.3870 -2.7085  2.7051
 2608TIP3    H229316   4.128   2.948   3.230 -1.8771 -1.8367 -1.2138
 2609TIP3   OH229317   5.033   2.298  15.260 -0.8964 -0.0468  0.5460
 2609TIP3    H129318   4.951   2.347  15.266 -1.6520 -1.2648  0.2758
 2609TIP3    H229319   5.006   2.207  15.255  0.4740 -0.4341  0.0848
 2610TIP3   OH229320   6.733   0.182   4.579  0.2438 -0.1953  0.0117
 2610TIP3    H129321   6.776   0.189   4.665 -1.5545 -0.5301  0.9640
 2610TIP3    H229322   6.673   0.256   4.576  2.6327  1.7643 -2.3878
 2611TIP3   OH229323   2.887   1.476  13.184  0.5821 -0.0073 -0.1043
 2611TIP3    H129324   2.982   1.488  13.177  0.6758  0.7407  2.2195
 2611TIP3    H229325   2.864   1.514  13.268 -1.4510 -2.3597  0.4370
 2612TIP3   OH229326   2.868   0.211   2.020  0.8904 -0.3055 -0.0791
 2612TIP3    H129327   2.831   0.246   1.939  1.0039  1.6395  0.6938
 2612TIP3    H229328   2.878   0.117   2.002  0.2992 -0.0258 -2.0742
 2613TIP3   OH229329   5.216   3.795   4.770 -0.0416 -0.5251 -0.1172
 2613TIP3    H129330   5.184   3.799   4.680  0.7625 -1.7823 -0.4736
 2613TIP3    H229331   5.152   3.740   4.816  0.2031 -0.9046 -0.2236
 2614TIP3   OH229332   4.357   2.258   2.154 -0.0178 -0.5360  0.8970
 2614TIP3    H129333   4.275   2.254   2.203 -0.1498 -0.7232  0.6606
 2614TIP3    H229334   4.351   2.340   2.104 -0.5606 -1.1151  0.0003
 2615TIP3   OH229335   5.824   1.711   0.579  0.2389  0.0416  0.2156
 2615TIP3    H129336   5.859   1.722   0.490 -0.4948  2.3854  0.1908
 2615TIP3    H229337   5.881   1.765   0.634 -1.0406  0.9014  0.7249
 2616TIP3   OH229338   4.323   3.744   2.142  0.2435  0.4747 -0.1614
 2616TIP3    H129339   4.417   3.733   2.127  0.4506  1.1600  0.5700
 2616TIP3    H229340   4.314   3.833   2.178 -0.5689  0.0776  0.6640
 2617TIP3   OH229341   6.609   3.752  16.512  0.2305 -0.1632 -0.3982
 2617TIP3    H129342   6.530   3.734  16.461 -1.2058  3.0978  0.5353
 2617TIP3    H229343   6.647   3.829  16.470  2.1104 -0.7953  0.1043
 2618TIP3   OH229344   0.487   1.226   1.822  0.3994  0.3966 -0.1869
 2618TIP3    H129345   0.567   1.202   1.869  1.2011  2.2315 -0.5844
 2618TIP3    H229346   0.463   1.311   1.857 -1.2005  0.0021 -0.3184
 2619TIP3   OH229347   6.233   0.442  15.143  0.0575  0.1242  0.0416
 2619TIP3    H129348   6.209   0.470  15.231  0.1382 -0.7352  0.3435
 2619TIP3    H229349   6.308   0.383  15.155 -0.3838 -0.5684 -0.5376
 2620TIP3   OH229350   4.569   3.717   0.027  0.0142  0.1518 -0.6933
 2620TIP3    H129351   4.564   3.809   0.001  1.0629  0.1272 -1.0091
 2620TIP3    H229352   4.618   3.718   0.110 -0.1052 -0.1085 -0.6188
 2621TIP3   OH229353   1.525   3.648  13.789 -0.0111  0.2193 -0.1803
 2621TIP3    H129354   1.498   3.716  13.851 -0.3651  1.8781 -2.0968
 2621TIP3    H229355   1.447   3.594  13.777 -0.2528  0.5280  0.0071
 2622TIP3   OH229356   3.916   3.334  16.654  0.2612 -0.1693 -0.0748
 2622TIP3    H129357   3.849   3.267  16.640  0.6870 -0.5458 -0.3110
 2622TIP3    H229358   3.867   3.417  16.657 -0.2416 -0.4705  0.0335
 2623TIP3   OH229359   0.167   1.958  13.183  0.1172 -0.4196 -0.0130
 2623TIP3    H129360   0.130   1.940  13.269  1.3428 -0.6350  0.4811
 2623TIP3    H229361   0.128   1.892  13.125 -0.5248 -0.4223  0.4251
 2624TIP3   OH229362   1.357   4.294  11.682 -0.4607  0.5652  0.1084
 2624TIP3    H129363   1.374   4.221  11.741  0.5476 -0.4473 -1.4171
 2624TIP3    H229364   1.438   4.306  11.633 -1.8953  0.0125 -2.5337
 2625TIP3   OH229365   4.435   1.688  15.694 -0.6903  0.3678 -0.3375
 2625TIP3    H129366   4.515   1.698  15.642 -0.5231  0.7667 -0.0030
 2625TIP3    H229367   4.370   1.741  15.649 -0.9289 -0.4414 -0.9541
 2626TIP3   OH229368   5.312   2.858  10.757 -0.1255  0.2040  0.4126
 2626TIP3    H129369   5.367   2.928  10.722  0.2775 -0.6252 -0.6397
 2626TIP3    H229370   5.365   2.817  10.825  0.5481 -0.5380 -0.5428
 2627TIP3   OH229371   5.672   5.543   4.146  0.2069 -0.1137 -0.9707
 2627TIP3    H129372   5.751   5.576   4.189  0.1537 -0.2090 -0.7990
 2627TIP3    H229373   5.626   5.494   4.214  0.6447 -1.1495 -1.4080
 2628TIP3   OH229374   0.290   6.567  16.203  0.5179  0.1124 -0.3197
 2628TIP3    H129375   0.372   6.585  16.157 -1.0222 -1.1868 -3.7268
 2628TIP3    H229376   0.300   6.478  16.236  0.6812  0.1652 -0.2232
 2629TIP3   OH229377   0.115   0.041  14.148 -0.1245 -0.2489 -0.6569
 2629TIP3    H129378   0.134   0.038  14.055 -0.5245 -0.2086 -0.7393
 2629TIP3    H229379   0.044   0.104  14.157  1.4197  1.4698 -0.0736
 2630TIP3   OH229380   3.713   5.805  13.522  0.2222  0.0977  0.1537
 2630TIP3    H129381   3.782   5.798  13.588  0.8923 -0.4678 -0.5848
 2630TIP3    H229382   3.695   5.899  13.516 -0.9437  0.0147  2.2360
 2631TIP3   OH229383   3.460   3.896   4.967 -0.1340  0.0258  0.8509
 2631TIP3    H129384   3.549   3.873   4.992 -0.1769 -0.0985  0.8910
 2631TIP3    H229385   3.409   3.888   5.047 -0.3480 -0.7810  0.6380
 2632TIP3   OH229386   0.350   4.341  10.783  0.5029 -0.3448 -0.0293
 2632TIP3    H129387   0.397   4.264  10.814 -1.7030 -1.8786 -0.3579
 2632TIP3    H229388   0.275   4.306  10.735 -0.9331  1.9853  0.3856
 2633TIP3   OH229389   0.337   3.685  17.268 -0.3016  0.3294 -0.0669
 2633TIP3    H129390   0.267   3.691  17.334 -0.4204  0.1086 -0.1759
 2633TIP3    H229391   0.381   3.602  17.286 -2.3993 -1.3284 -2.3408
 2634TIP3   OH229392   2.258   5.442  15.388 -0.0622  0.4158  0.1566
 2634TIP3    H129393   2.286   5.513  15.445 -0.9786  0.1731  0.9255
 2634TIP3    H229394   2.222   5.376  15.447 -1.2966  0.2799 -0.7068
 2635TIP3   OH229395   4.866   3.952   5.290  0.1121 -0.6276  0.2870
 2635TIP3    H129396   4.906   4.023   5.240  1.3044 -0.2297  1.7882
 2635TIP3    H229397   4.832   3.995   5.369  0.8268 -1.7133  1.1953
 2636TIP3   OH229398   2.197   3.623   6.029 -0.7411  0.0072 -0.2998
 2636TIP3    H129399   2.201   3.683   6.104  0.0076 -0.1768 -0.1851
 2636TIP3    H229400   2.128   3.561   6.052 -0.4664 -0.0903  0.2840
 2637TIP3   OH229401   5.465   1.492   5.517 -0.1612  0.3071  0.3592
 2637TIP3    H129402   5.377   1.458   5.502 -0.0480  0.8738 -1.6563
 2637TIP3    H229403   5.453   1.563   5.580 -1.0405 -0.1033  0.6640
 2638TIP3   OH229404   4.174   6.136  12.248  0.1597  0.2135  0.0584
 2638TIP3    H129405   4.184   6.211  12.189 -0.4019  0.2237 -0.0225
 2638TIP3    H229406   4.196   6.170  12.335  0.0875  0.4205 -0.0048
 2639TIP3   OH229407   0.364   5.321  14.991  0.5389 -0.1005  0.0089
 2639TIP3    H129408   0.381   5.384  15.062  0.3300 -0.7810  0.6649
 2639TIP3    H229409   0.420   5.352  14.919  1.0386  0.3841  0.5868
 2640TIP3   OH229410   4.608   0.861  15.811 -0.2757  0.1596  0.4520
 2640TIP3    H129411   4.557   0.864  15.729 -0.2907 -0.9580  0.4159
 2640TIP3    H229412   4.698   0.845  15.782  0.0605  1.8277  0.5383
 2641TIP3   OH229413   6.754   1.068  16.898 -0.0046 -0.3528  0.0677
 2641TIP3    H129414   6.811   1.125  16.846  1.4963 -1.5684  0.3570
 2641TIP3    H229415   6.789   0.980  16.884 -0.6992 -0.9019  1.7164
 2642TIP3   OH229416   1.738   3.066  11.997  0.5886 -0.1633 -0.4282
 2642TIP3    H129417   1.779   2.995  11.947  2.0954  0.6662 -0.3963
 2642TIP3    H229418   1.687   3.113  11.931 -0.4493 -1.2881 -0.4457
 2643TIP3   OH229419   0.181   1.241   1.404 -0.5356 -0.2306 -0.7214
 2643TIP3    H129420   0.106   1.181   1.402  0.4909 -1.5126 -1.6803
 2643TIP3    H229421   0.257   1.184   1.415  0.2254  1.1366  1.3829
 2644TIP3   OH229422   6.490   4.544   5.513 -0.7202  0.3200 -0.5781
 2644TIP3    H129423   6.483   4.539   5.609 -1.1015  1.5724 -0.5350
 2644TIP3    H229424   6.434   4.618   5.489  1.1973  1.5006 -1.5442
 2645TIP3   OH229425   2.135   4.553   5.712 -0.0531  0.7056  0.4359
 2645TIP3    H129426   2.182   4.475   5.740  0.9514  1.7133  1.5900
 2645TIP3    H229427   2.189   4.589   5.641  0.4567  1.3726  1.1602
 2646TIP3   OH229428   0.734   3.438  12.662 -0.0477 -0.0068  0.2698
 2646TIP3    H129429   0.771   3.515  12.706  1.5599 -0.8462  0.4132
 2646TIP3    H229430   0.802   3.410  12.600 -0.3486 -1.6607  0.6508
 2647TIP3   OH229431   4.960   3.275   5.805 -0.5462  0.3064 -0.0124
 2647TIP3    H129432   4.960   3.185   5.835 -1.9505  1.0015  2.2376
 2647TIP3    H229433   4.911   3.274   5.723 -0.1596 -1.0365 -0.2215
 2648TIP3   OH229434   0.993   0.789   3.545 -0.4513  0.1296  0.7014
 2648TIP3    H129435   1.056   0.740   3.599  0.1203  0.1870  0.0903
 2648TIP3    H229436   0.967   0.727   3.477  1.4991  1.1639 -1.0393
 2649TIP3   OH229437   0.683   1.928  14.846  0.4720  0.1310 -0.2619
 2649TIP3    H129438   0.753   1.876  14.885 -0.6708 -0.5613  0.9016
 2649TIP3    H229439   0.629   1.954  14.920 -0.1973  1.1183 -1.0939
 2650TIP3   OH229440   5.495   6.411   1.040 -0.1314 -0.0655 -0.0414
 2650TIP3    H129441   5.416   6.464   1.054  0.1013 -0.0166  1.1771
 2650TIP3    H229442   5.467   6.340   0.982 -0.4572  1.3592 -1.6621
 2651TIP3   OH229443   5.531   4.292   1.693  0.2110 -0.7174  0.1468
 2651TIP3    H129444   5.498   4.382   1.697  0.3492 -0.6352 -0.6546
 2651TIP3    H229445   5.453   4.239   1.676  0.4114 -0.5766 -1.1945
 2652TIP3   OH229446   0.609   2.107   5.663  0.1475  0.1754  0.0816
 2652TIP3    H129447   0.598   2.090   5.756 -1.0786 -2.6127 -0.5208
 2652TIP3    H229448   0.525   2.142   5.634 -0.2776 -1.2083 -0.4102
 2653TIP3   OH229449   6.350   1.933  13.231  0.8834 -0.1323 -0.3591
 2653TIP3    H129450   6.322   1.968  13.146  0.2534 -2.2415 -1.0502
 2653TIP3    H229451   6.445   1.924  13.223  0.9010  0.2645 -0.6146
 2654TIP3   OH229452   1.910   1.220  11.080 -0.4970  0.3627  0.2975
 2654TIP3    H129453   1.845   1.150  11.086 -0.0092 -0.2385 -1.1289
 2654TIP3    H229454   1.892   1.262  10.996  0.2875  0.8632  0.3766
 2655TIP3   OH229455   3.519   3.633  11.600  0.0200  0.2470 -0.0826
 2655TIP3    H129456   3.508   3.701  11.666 -1.4170 -0.4817  0.4420
 2655TIP3    H229457   3.614   3.623  11.591  0.2197  0.4768  1.7306
 2656TIP3   OH229458   0.723   1.301  17.044  0.6459 -0.1622  0.1967
 2656TIP3    H129459   0.674   1.375  17.080  1.1590  0.0452  0.4798
 2656TIP3    H229460   0.724   1.316  16.950 -0.1210 -0.3480  0.1535
 2657TIP3   OH229461   2.163   1.354   1.594 -0.1212  0.3348  0.3085
 2657TIP3    H129462   2.221   1.391   1.660 -1.8091  0.6748  1.6383
 2657TIP3    H229463   2.076   1.353   1.635 -1.3629  1.2470 -2.1637
 2658TIP3   OH229464   4.037   0.581   4.105 -0.0384  0.3042  0.2304
 2658TIP3    H129465   3.965   0.642   4.093  0.2387  1.0338  2.0940
 2658TIP3    H229466   4.018   0.508   4.046 -0.6809  1.8980 -1.5751
 2659TIP3   OH229467   0.709   6.218   4.419 -0.1491  0.2716 -0.3395
 2659TIP3    H129468   0.659   6.284   4.371 -0.9899  0.9588  1.4230
 2659TIP3    H229469   0.784   6.265   4.455 -0.1035  0.0175 -0.0958
 2660TIP3   OH229470   2.824   4.832  15.146 -0.3055  0.0245 -0.1041
 2660TIP3    H129471   2.812   4.824  15.051 -0.5987  2.3682 -0.2966
 2660TIP3    H229472   2.737   4.854  15.180 -0.4393 -1.9471  0.8640
 2661TIP3   OH229473   1.072   5.297   3.129  0.1598 -0.1823 -0.0290
 2661TIP3    H129474   1.168   5.301   3.128  0.1636 -0.3360 -1.3363
 2661TIP3    H229475   1.052   5.206   3.149  0.2844 -0.0484  0.7063
 2662TIP3   OH229476   4.021   5.985   4.616  0.0450  0.0557 -0.3848
 2662TIP3    H129477   3.991   6.073   4.594  1.2026  0.5730  0.0798
 2662TIP3    H229478   4.115   5.986   4.598  0.2296 -0.8093  0.4712
 2663TIP3   OH229479   3.083   0.378  11.157  0.9740 -0.3826 -0.3894
 2663TIP3    H129480   3.084   0.379  11.061  0.9658  0.0989 -0.3849
 2663TIP3    H229481   3.167   0.340  11.181  0.9946 -0.4643 -0.5852
 2664TIP3   OH229482   4.460   0.911  16.649  0.0059  0.1723 -0.4111
 2664TIP3    H129483   4.428   0.895  16.737 -1.5185 -1.6444 -1.2712
 2664TIP3    H229484   4.382   0.906  16.594  1.3382 -1.6678 -2.2131
 2665TIP3   OH229485   0.629   5.962  17.121 -0.5298 -0.0506  0.1448
 2665TIP3    H129486   0.661   5.982  17.209 -0.0321 -0.1308 -0.0112
 2665TIP3    H229487   0.678   5.883  17.096  0.8903  1.1619 -1.0186
 2666TIP3   OH229488   5.967   0.495   3.535  0.1491 -0.0654  0.1013
 2666TIP3    H129489   5.923   0.504   3.619  0.5578  1.9647  0.1219
 2666TIP3    H229490   5.896   0.493   3.471 -0.2202 -2.7959  0.5488
 2667TIP3   OH229491   2.197   2.189  16.918  0.1207 -0.1983  0.5736
 2667TIP3    H129492   2.211   2.194  16.823 -1.8932 -2.7349  0.1137
 2667TIP3    H229493   2.284   2.202  16.955  0.5270  3.8906 -1.4391
 2668TIP3   OH229494   0.978   0.227  15.563  0.0676  0.4486  0.4359
 2668TIP3    H129495   0.927   0.174  15.624 -1.0655 -0.1581 -0.9965
 2668TIP3    H229496   1.008   0.165  15.497 -0.8968  1.4928 -1.0203
 2669TIP3   OH229497   0.512   5.736  13.056  0.1196 -0.1706 -0.5112
 2669TIP3    H129498   0.597   5.692  13.060 -0.2488 -0.6268  3.2732
 2669TIP3    H229499   0.533   5.829  13.049  0.9362 -0.2075  1.4566
 2670TIP3   OH229500   0.761   1.656   4.065  0.3745  0.2234  0.1067
 2670TIP3    H129501   0.755   1.708   4.144  0.2243  1.6474 -0.8309
 2670TIP3    H229502   0.708   1.702   4.001 -1.9409 -2.4727 -0.0232
 2671TIP3   OH229503   5.500   6.709  12.210  0.2800 -0.3448  0.4847
 2671TIP3    H129504   5.485   6.773  12.140  0.5823 -1.4771 -0.6299
 2671TIP3    H229505   5.417   6.663  12.218 -0.4515  1.2192  2.3887
 2672TIP3   OH229506   4.893   5.100   2.954  0.7094  0.0110 -0.4166
 2672TIP3    H129507   4.930   5.152   2.882  0.1290  1.2710  0.1811
 2672TIP3    H229508   4.967   5.084   3.013  1.0119 -0.3288 -0.8855
 2673TIP3   OH229509   5.841   0.225   2.214  0.6947  1.2390  0.1018
 2673TIP3    H129510   5.888   0.309   2.211  2.8669  0.0837  1.0533
 2673TIP3    H229511   5.906   0.160   2.187 -0.9571 -0.1767 -0.5641
 2674TIP3   OH229512   3.755   5.803  11.731 -0.3614  0.1943 -0.2350
 2674TIP3    H129513   3.686   5.838  11.676  1.4119 -0.5359 -3.0383
 2674TIP3    H229514   3.733   5.711  11.743  1.1809 -0.5657 -2.9301
 2675TIP3   OH229515   6.648   5.931   2.597  0.2572  0.0759  0.1509
 2675TIP3    H129516   6.732   5.955   2.634  0.1829  1.5119 -0.5691
 2675TIP3    H229517   6.668   5.857   2.539  0.9730  0.1891  0.2465
 2676TIP3   OH229518   4.888   3.608  14.554 -0.3077  0.0640  0.1889
 2676TIP3    H129519   4.793   3.610  14.559 -0.4193 -1.5480 -0.8024
 2676TIP3    H229520   4.912   3.521  14.586  0.7371 -0.0112 -0.7436
 2677TIP3   OH229521   3.769   2.275   3.103  0.4803  0.1037  0.0059
 2677TIP3    H129522   3.824   2.341   3.143 -2.1595  3.1662 -1.1853
 2677TIP3    H229523   3.692   2.269   3.160 -0.0368 -0.7862 -0.7555
 2678TIP3   OH229524   6.717   4.075  10.852 -0.4385  0.1719 -0.0550
 2678TIP3    H129525   6.689   3.986  10.834  1.2545 -0.5918  0.9301
 2678TIP3    H229526   6.811   4.075  10.834 -0.5925  2.0236 -0.9974
 2679TIP3   OH229527   2.603   6.267  14.891  0.0246 -0.3829  0.0114
 2679TIP3    H129528   2.697   6.253  14.903  0.3292  1.8008  0.3916
 2679TIP3    H229529   2.576   6.312  14.971 -0.8371  1.2281 -1.1565
 2680TIP3   OH229530   4.359   0.557  13.248  0.3544  0.8541  0.0644
 2680TIP3    H129531   4.286   0.619  13.253  0.5282  1.0196  0.5791
 2680TIP3    H229532   4.427   0.605  13.199  0.0157  0.5914 -0.6746
 2681TIP3   OH229533   5.329   0.867   0.704 -0.6767  0.3444  0.1072
 2681TIP3    H129534   5.346   0.923   0.779  1.5562 -1.4649  0.9970
 2681TIP3    H229535   5.412   0.824   0.686 -1.7802 -1.0669 -1.8985
 2682TIP3   OH229536   2.561   2.557  14.009  0.2375 -0.7187  0.3900
 2682TIP3    H129537   2.567   2.651  13.991  0.1671 -1.1153 -1.7200
 2682TIP3    H229538   2.623   2.542  14.081 -1.1715  1.2689  2.0958
 2683TIP3   OH229539   5.093   5.451   5.354 -0.1139 -0.3983 -0.3326
 2683TIP3    H129540   5.160   5.425   5.416  0.0696  0.8773  0.0240
 2683TIP3    H229541   5.134   5.519   5.300 -1.8850  2.3510  1.6226
 2684TIP3   OH229542   2.819   0.026   3.277  0.0682 -0.2886  0.1890
 2684TIP3    H129543   2.796   0.119   3.272 -1.9257 -0.6946  1.1427
 2684TIP3    H229544   2.867   0.008   3.196 -1.6019  1.0435 -1.1199
 2685TIP3   OH229545   0.281   6.561  14.948  0.0036  0.3610 -0.4744
 2685TIP3    H129546   0.285   6.617  14.871 -2.0673  0.3079 -0.6525
 2685TIP3    H229547   0.198   6.513  14.939 -0.0887  0.0736  1.5689
 2686TIP3   OH229548   5.242   5.721  11.476 -0.1295  0.0529 -0.5810
 2686TIP3    H129549   5.320   5.772  11.498  0.0742  0.0306 -1.2504
 2686TIP3    H229550   5.188   5.724  11.555  0.9916 -0.7613  0.2262
 2687TIP3   OH229551   1.803   4.758  17.275  0.1870  0.4136 -0.3197
 2687TIP3    H129552   1.832   4.837  17.320 -2.3627  0.2951  1.6974
 2687TIP3    H229553   1.824   4.687  17.336 -1.5433  0.0533 -0.0988
 2688TIP3   OH229554   1.357   4.955  15.924 -0.3076 -0.0716  0.0265
 2688TIP3    H129555   1.431   4.976  15.981 -0.3284  0.6448 -0.2105
 2688TIP3    H229556   1.280   4.984  15.972 -0.5363 -1.8519  0.7667
 2689TIP3   OH229557   1.553   3.634   4.160  0.1881 -0.0121 -0.0023
 2689TIP3    H129558   1.601   3.691   4.100  0.4519 -0.6585 -0.4067
 2689TIP3    H229559   1.540   3.688   4.238  2.0586 -0.0072  0.3268
 2690TIP3   OH229560   3.754   0.811  13.006  0.1469  0.3320 -0.0151
 2690TIP3    H129561   3.794   0.785  13.089 -0.3897 -1.2471 -0.2313
 2690TIP3    H229562   3.675   0.859  13.032  0.9089  1.4195  0.3800
 2691TIP3   OH229563   3.060   6.753   1.477  0.3749  0.3487  0.0151
 2691TIP3    H129564   3.030   6.664   1.496 -1.4899  0.7377 -0.9612
 2691TIP3    H229565   3.108   6.779   1.556  2.3744 -2.0998 -0.3251
 2692TIP3   OH229566   3.822   4.142  16.604  0.0001 -0.5351  0.1636
 2692TIP3    H129567   3.794   4.156  16.694  0.6803  0.4599  0.2352
 2692TIP3    H229568   3.902   4.089  16.612 -1.3095 -2.5779  0.0046
 2693TIP3   OH229569   0.622   5.524   3.957 -0.3678 -0.1009  0.0358
 2693TIP3    H129570   0.591   5.598   4.009  0.6223  1.2754 -1.3351
 2693TIP3    H229571   0.651   5.562   3.875 -0.5476 -2.1043 -0.9797
 2694TIP3   OH229572   0.651   2.748  16.510  0.4413 -0.1855 -0.2100
 2694TIP3    H129573   0.738   2.752  16.471  0.3404 -2.2496 -0.7373
 2694TIP3    H229574   0.593   2.787  16.444  0.8030  0.0188 -0.4077
 2695TIP3   OH229575   5.323   4.301   1.982  0.3429 -0.0210 -0.1908
 2695TIP3    H129576   5.413   4.327   1.965  0.5300 -0.8676 -0.5242
 2695TIP3    H229577   5.330   4.222   2.035 -0.2216  1.0397  1.4924
 2696TIP3   OH229578   2.346   4.080   6.634  0.1465  0.1509 -0.2589
 2696TIP3    H129579   2.299   4.028   6.568  0.2082 -0.9877  0.5722
 2696TIP3    H229580   2.277   4.124   6.683  0.0381  0.0641 -0.3323
 2697TIP3   OH229581   5.601   1.454   2.829 -0.1751  0.4048 -0.5576
 2697TIP3    H129582   5.653   1.378   2.800 -0.3914 -0.3489  0.9999
 2697TIP3    H229583   5.523   1.416   2.868 -0.2957  1.4447  0.2134
 2698TIP3   OH229584   4.834   1.352  11.459  0.3888 -0.1652 -0.5406
 2698TIP3    H129585   4.909   1.351  11.518  0.6976  0.7930 -0.9179
 2698TIP3    H229586   4.808   1.444  11.454  0.6895 -0.1594 -2.3116
 2699TIP3   OH229587   3.887   0.767  11.123  0.7926 -0.2904  0.2948
 2699TIP3    H129588   3.926   0.681  11.107 -1.5894 -1.1946 -0.8682
 2699TIP3    H229589   3.861   0.765  11.215  0.5623 -0.8867  0.2162
 2700TIP3   OH229590   6.172   4.575  15.278 -0.3202  0.5405 -0.0216
 2700TIP3    H129591   6.170   4.622  15.361  0.5652 -0.3681  0.5214
 2700TIP3    H229592   6.200   4.641  15.214 -0.9227  1.2209  0.4059
 2701TIP3   OH229593   5.193   3.071  12.889  0.0293  0.4545  0.5844
 2701TIP3    H129594   5.247   3.009  12.841  0.8270  2.0870 -0.6755
 2701TIP3    H229595   5.232   3.075  12.976  0.8712  0.2998  0.2196
 2702TIP3   OH229596   4.656   6.369  12.485 -0.2418  0.4003 -0.2279
 2702TIP3    H129597   4.601   6.361  12.408 -1.3496 -0.5100  0.6377
 2702TIP3    H229598   4.743   6.342  12.455 -0.5177  0.7073 -1.3111
 2703TIP3   OH229599   0.323   2.278  14.528 -0.3865  0.5639  0.0088
 2703TIP3    H129600   0.281   2.226  14.596  0.5558  0.6383  0.6666
 2703TIP3    H229601   0.314   2.369  14.558 -0.9749  0.6931 -0.5402
 2704TIP3   OH229602   6.122   0.045   4.509 -0.0421 -0.1661 -0.6459
 2704TIP3    H129603   6.188   0.006   4.452 -0.0258 -1.3515  0.1592
 2704TIP3    H229604   6.161   0.040   4.597 -0.3300  1.0459 -0.4320
 2705TIP3   OH229605   5.112   3.581   4.554  0.6388  0.1159  0.7373
 2705TIP3    H129606   5.018   3.603   4.560 -0.4062 -2.1869 -4.2804
 2705TIP3    H229607   5.117   3.490   4.581  1.3122  0.0255  0.2989
 2706TIP3   OH229608   3.402   5.074   0.758 -0.1732  1.2744  0.2604
 2706TIP3    H129609   3.347   5.078   0.680 -0.6074 -2.6175  0.2708
 2706TIP3    H229610   3.486   5.040   0.727 -0.0414  0.5903  1.3170
 2707TIP3   OH229611   5.935   1.749  15.382  0.4729 -0.4753 -0.2904
 2707TIP3    H129612   5.940   1.823  15.443  0.0846 -0.1528 -0.6496
 2707TIP3    H229613   6.013   1.697  15.401  0.6554 -0.0640  0.0850
 2708TIP3   OH229614   2.158   4.190  13.629  0.5730  0.3078 -0.1043
 2708TIP3    H129615   2.125   4.222  13.545 -0.8615  0.3600  0.4543
 2708TIP3    H229616   2.211   4.261  13.663  0.6194  0.5456 -0.6694
 2709TIP3   OH229617   1.747   5.365   0.872  0.3029  0.1648 -0.3459
 2709TIP3    H129618   1.717   5.280   0.838 -1.0693  0.6811 -0.4519
 2709TIP3    H229619   1.823   5.344   0.926 -1.1269 -1.3514  1.1191
 2710TIP3   OH229620   5.343   3.060  14.065  0.3383 -0.0742 -0.3782
 2710TIP3    H129621   5.257   3.064  14.023 -0.0805 -0.1593  0.4591
 2710TIP3    H229622   5.405   3.080  13.995 -0.2920 -1.1047 -1.2352
 2711TIP3   OH229623   4.870   5.014  16.518 -0.5403 -0.3927  0.5392
 2711TIP3    H129624   4.855   4.920  16.516 -1.7023 -0.2112  0.2866
 2711TIP3    H229625   4.961   5.025  16.490 -1.1790 -1.2660 -1.9759
 2712TIP3   OH229626   1.211   2.449   2.330  0.2012 -0.0126  0.8640
 2712TIP3    H129627   1.188   2.510   2.400 -1.4111  0.6605 -0.2178
 2712TIP3    H229628   1.155   2.373   2.344 -1.3092  0.8074 -0.6334
 2713TIP3   OH229629   3.708   1.102   0.944  0.3849  0.2309  0.5574
 2713TIP3    H129630   3.770   1.102   1.017  0.5460 -0.6265  0.4217
 2713TIP3    H229631   3.763   1.113   0.867  0.3127  0.0781  0.4841
 2714TIP3   OH229632   1.768   0.926  11.342  0.1716 -0.3317 -0.9190
 2714TIP3    H129633   1.765   0.866  11.268  0.0670  1.3159 -2.2835
 2714TIP3    H229634   1.677   0.956  11.352  0.1486 -0.6919  0.0027
 2715TIP3   OH229635   5.064   0.053  13.825  0.0033 -0.7406  0.2311
 2715TIP3    H129636   5.036  -0.034  13.797 -1.0327  0.0867 -1.3743
 2715TIP3    H229637   5.010   0.074  13.901  0.1070 -1.4052  0.4852
 2716TIP3   OH229638   1.007   1.457   3.525 -0.9123  0.0281  0.7071
 2716TIP3    H129639   0.953   1.383   3.551  0.5471 -1.0436  0.7485
 2716TIP3    H229640   1.055   1.480   3.605  0.4619 -0.5797  0.0747
 2717TIP3   OH229641   1.987   5.361   0.252  0.4966 -0.2422 -0.1262
 2717TIP3    H129642   2.066   5.310   0.230 -0.9957 -3.2576  1.1755
 2717TIP3    H229643   2.017   5.423   0.319  1.6931 -1.7390  0.7753
 2718TIP3   OH229644   5.160   6.006  14.338  0.8455 -0.0405  0.2026
 2718TIP3    H129645   5.096   5.972  14.275 -0.9823  0.2046  1.8811
 2718TIP3    H229646   5.221   5.934  14.352  0.1656 -0.7444 -0.4186
 2719TIP3   OH229647   6.697   1.948  17.253 -0.0048  0.0259 -0.3145
 2719TIP3    H129648   6.701   2.043  17.243 -2.2694 -0.1042 -2.9538
 2719TIP3    H229649   6.788   1.921  17.270  0.7942  2.5360 -0.5004
 2720TIP3   OH229650   3.953   4.451  11.990 -0.1567  0.1667  0.3347
 2720TIP3    H129651   4.017   4.383  12.011  0.4589  0.4324 -0.6747
 2720TIP3    H229652   3.964   4.516  12.059  0.8147  0.3158  0.0488
 2721TIP3   OH229653   5.465   4.154  12.995 -0.5442 -0.3676 -0.6496
 2721TIP3    H129654   5.472   4.082  12.933  1.3760  0.5391 -1.5350
 2721TIP3    H229655   5.498   4.119  13.077 -0.4404 -0.7611 -0.8598
 2722TIP3   OH229656   5.116   1.899  12.224  0.1498  0.7060  0.0988
 2722TIP3    H129657   5.059   1.975  12.220 -0.2324  0.3745 -1.0124
 2722TIP3    H229658   5.078   1.837  12.162  0.8152 -0.1399  0.5229
 2723TIP3   OH229659   2.332   3.413  11.958  0.2000  0.4297  0.0646
 2723TIP3    H129660   2.261   3.459  11.912 -0.3422 -0.3144  0.1546
 2723TIP3    H229661   2.364   3.348  11.895  0.0773  0.0354  0.4098
 2724TIP3   OH229662   3.613   5.078  14.611 -0.3580 -0.5383  0.2426
 2724TIP3    H129663   3.616   5.096  14.517 -2.2282 -2.1674 -0.1732
 2724TIP3    H229664   3.704   5.061  14.635 -0.1168 -2.2599 -1.7519
 2725TIP3   OH229665   5.757   5.312  12.922  0.1423  0.0961  1.0888
 2725TIP3    H129666   5.703   5.294  12.999 -0.9587 -0.6198  0.1625
 2725TIP3    H229667   5.715   5.387  12.880 -1.3422 -1.6809 -0.7162
 2726TIP3   OH229668   0.695   3.334  11.288  0.1897  0.5901 -0.3097
 2726TIP3    H129669   0.694   3.429  11.274 -1.1386  0.4268 -1.4625
 2726TIP3    H229670   0.788   3.311  11.293  0.5136  2.1579  1.5203
 2727TIP3   OH229671   4.239   6.730   5.211 -0.1444  0.1635  0.1164
 2727TIP3    H129672   4.148   6.745   5.185 -0.6889 -1.0005  1.2781
 2727TIP3    H229673   4.240   6.745   5.306 -0.1514 -4.1155  0.8895
 2728TIP3   OH229674   1.310   4.443  13.770  0.9103 -0.0649  0.1406
 2728TIP3    H129675   1.366   4.385  13.718  1.3997  0.1613  0.4137
 2728TIP3    H229676   1.370   4.507  13.808  0.3514  0.7334 -0.3048
 2729TIP3   OH229677   1.377   0.837  11.423  0.3618 -0.1513  0.1988
 2729TIP3    H129678   1.318   0.804  11.491 -1.9435  0.6652 -1.3470
 2729TIP3    H229679   1.396   0.761  11.368 -2.5242  0.3350 -1.6027
 2730TIP3   OH229680   6.531   0.029   2.824 -0.0392 -1.0215  0.1868
 2730TIP3    H129681   6.583   0.046   2.902 -0.5868 -0.8061  0.5018
 2730TIP3    H229682   6.523   0.115   2.781  0.7797 -1.2401 -0.4358
 2731TIP3   OH229683   1.240   1.239   0.105 -0.8105 -0.2973 -0.0061
 2731TIP3    H129684   1.181   1.164   0.099  0.1287 -0.8775 -3.2529
 2731TIP3    H229685   1.183   1.315   0.092 -1.4149 -0.5820  0.9308
 2732TIP3   OH229686   2.017   0.716  14.909  0.0802  0.1696 -0.4878
 2732TIP3    H129687   1.936   0.691  14.953 -0.3487 -0.5205 -1.6500
 2732TIP3    H229688   2.004   0.808  14.885  0.7978  0.9146  1.8557
 2733TIP3   OH229689   0.572   5.791   4.472 -0.4374 -0.1927  0.3776
 2733TIP3    H129690   0.522   5.734   4.413 -1.3023  0.6508  0.2658
 2733TIP3    H229691   0.652   5.811   4.424 -1.3056  0.8027 -0.7091
 2734TIP3   OH229692   5.825   1.870  16.298  0.3650  0.1837  0.7153
 2734TIP3    H129693   5.905   1.882  16.247 -0.6520 -0.1006 -0.9926
 2734TIP3    H229694   5.756   1.859  16.232 -0.8439 -1.1678  2.1606
 2735TIP3   OH229695   5.342   0.110   0.427 -0.0275  0.0422  0.0756
 2735TIP3    H129696   5.376   0.059   0.501 -1.1972  0.1721  0.7150
 2735TIP3    H229697   5.246   0.107   0.438 -0.1165  2.0209 -0.1259
 2736TIP3   OH229698   1.145   5.050  16.725 -0.5744  0.6640  0.9933
 2736TIP3    H129699   1.237   5.075  16.719 -0.1152 -1.1089  0.4296
 2736TIP3    H229700   1.122   5.066  16.817  0.3750  0.8498  1.2069
 2737TIP3   OH229701   3.800   5.912  12.981 -0.6800  0.1644 -0.7431
 2737TIP3    H129702   3.717   5.901  12.935 -0.4825 -0.7889 -0.8816
 2737TIP3    H229703   3.778   5.962  13.060 -1.7585 -1.9388  0.3281
 2738TIP3   OH229704   1.956   1.439   4.517 -0.8388 -0.1867  0.1346
 2738TIP3    H129705   1.948   1.373   4.585 -0.0759  0.4928  0.9019
 2738TIP3    H229706   2.050   1.445   4.500 -0.8695  0.9226  0.3103
 2739TIP3   OH229707   2.343   3.679   3.506 -0.1122 -0.0537  0.6234
 2739TIP3    H129708   2.405   3.648   3.440 -0.7559 -0.5032  0.2190
 2739TIP3    H229709   2.397   3.725   3.570  0.7280 -1.0694  0.6590
 2740TIP3   OH229710   6.810   0.774  13.452 -0.1259  0.4822 -0.0428
 2740TIP3    H129711   6.731   0.817  13.420 -0.2937  0.3549  0.1935
 2740TIP3    H229712   6.873   0.782  13.381  0.0702  1.7384  0.2565
 2741TIP3   OH229713   1.180   5.263   2.837 -0.3510  0.7096 -0.4602
 2741TIP3    H129714   1.252   5.237   2.894 -0.1880 -2.0511 -1.8489
 2741TIP3    H229715   1.108   5.206   2.863 -1.2288  1.5840 -0.9345
 2742TIP3   OH229716   5.641   1.536  11.893 -0.1663  0.4289  0.5121
 2742TIP3    H129717   5.719   1.499  11.934 -0.5307 -1.0894 -0.1272
 2742TIP3    H229718   5.597   1.582  11.964  2.1417  2.7396  0.5109
 2743TIP3   OH229719   4.583   4.971   2.050  0.6566  0.1327  0.1111
 2743TIP3    H129720   4.632   4.900   2.008  1.0107  1.2420 -1.4139
 2743TIP3    H229721   4.594   5.045   1.990 -1.2807  0.9307  0.7266
 2744TIP3   OH229722   1.287   0.643   3.101 -0.7742 -0.0278 -0.2006
 2744TIP3    H129723   1.226   0.700   3.148 -0.9695 -0.4721  0.1013
 2744TIP3    H229724   1.287   0.676   3.011 -1.0074  0.3424 -0.0663
 2745TIP3   OH229725   1.705   1.482   1.511 -0.1293 -0.5067 -0.2613
 2745TIP3    H129726   1.799   1.488   1.494 -0.4100  0.2108 -1.6239
 2745TIP3    H229727   1.666   1.464   1.425 -0.9639 -4.2471  0.7938
 2746TIP3   OH229728   0.136   3.064   3.780 -0.2974  0.3057 -0.1551
 2746TIP3    H129729   0.185   3.025   3.707  2.6395  0.8167  1.4871
 2746TIP3    H229730   0.080   3.129   3.738  1.2112  0.4633 -2.0064
 2747TIP3   OH229731   4.002   5.818  12.741 -0.1726  0.1265  0.2078
 2747TIP3    H129732   4.075   5.877  12.724 -0.8250  0.7981 -0.3035
 2747TIP3    H229733   3.995   5.815  12.836  0.9829 -0.5200  0.2753
 2748TIP3   OH229734   3.680   4.293   5.892 -0.3417 -0.5290  0.3481
 2748TIP3    H129735   3.653   4.225   5.830 -1.6064 -0.6797  1.0472
 2748TIP3    H229736   3.631   4.273   5.972 -0.5864  1.1120  0.6193
 2749TIP3   OH229737   4.815   1.254  13.754  0.0174 -0.3515  0.1973
 2749TIP3    H129738   4.731   1.250  13.708 -0.6186 -1.1399  1.3898
 2749TIP3    H229739   4.835   1.347  13.758 -1.1516 -0.0954  0.5048
 2750TIP3   OH229740   1.728   4.700  15.754 -0.5401 -0.2310  0.6731
 2750TIP3    H129741   1.632   4.700  15.758 -0.5369  0.8463  0.6863
 2750TIP3    H229742   1.754   4.626  15.809 -1.4247 -1.7584 -0.8863
 2751TIP3   OH229743   6.171   4.498   2.942 -0.0623  0.4944 -0.0976
 2751TIP3    H129744   6.152   4.591   2.953 -0.3088  0.2855  1.3159
 2751TIP3    H229745   6.263   4.495   2.916 -0.1968  1.1650 -0.6346
 2752TIP3   OH229746   6.173   0.015   3.018  0.0532  0.0818 -0.0376
 2752TIP3    H129747   6.102   0.012   3.082 -1.2113  0.1143 -1.4197
 2752TIP3    H229748   6.220   0.096   3.039 -0.5483  0.2741  0.6261
 2753TIP3   OH229749   4.613   1.682  16.099 -1.1595  0.6454 -0.4623
 2753TIP3    H129750   4.677   1.744  16.136  0.7546 -1.1235 -0.6991
 2753TIP3    H229751   4.563   1.651  16.175  0.5653 -0.5175  0.2266
 2754TIP3   OH229752   5.790   3.487   1.054  0.5109 -0.5785  0.3471
 2754TIP3    H129753   5.797   3.410   0.997  0.3031  0.0014 -0.4838
 2754TIP3    H229754   5.737   3.458   1.128  1.4285 -1.5640  0.6319
 2755TIP3   OH229755   0.926   5.099   4.359  0.3200  0.6873 -0.2145
 2755TIP3    H129756   1.009   5.065   4.394 -0.1295  0.4690  0.6679
 2755TIP3    H229757   0.935   5.092   4.264  1.4224  0.9181 -0.1338
 2756TIP3   OH229758   0.021   1.189   5.177 -0.0381 -0.0235  0.7703
 2756TIP3    H129759  -0.049   1.182   5.242 -1.3305 -3.0830 -0.8560
 2756TIP3    H229760  -0.003   1.264   5.123 -1.5502 -0.4572  0.8212
 2757TIP3   OH229761   6.421   3.384  15.579  0.5425 -0.9449  0.2284
 2757TIP3    H129762   6.505   3.421  15.552  0.9601 -0.1157  2.6119
 2757TIP3    H229763   6.397   3.432  15.658 -2.0469 -1.3779 -0.2487
 2758TIP3   OH229764   2.358   3.776  13.763 -0.2746 -0.6943  0.2970
 2758TIP3    H129765   2.349   3.866  13.732 -0.4191 -0.6567  0.4460
 2758TIP3    H229766   2.453   3.760  13.764 -0.1414  0.1017  2.0725
 2759TIP3   OH229767   3.002   4.589   4.467 -0.0350 -0.0908 -0.0787
 2759TIP3    H129768   2.937   4.523   4.490 -0.6296 -0.2232 -2.0978
 2759TIP3    H229769   3.069   4.581   4.535 -2.0087 -0.0760  1.9449
 2760TIP3   OH229770   5.354   5.050   4.648 -0.1814  0.4332 -0.1212
 2760TIP3    H129771   5.412   4.974   4.643 -0.7842  0.0650 -1.6696
 2760TIP3    H229772   5.295   5.040   4.573 -2.5906  0.5244  1.7321
 2761TIP3   OH229773   3.878   1.203   3.918 -0.4196  0.1300  0.2672
 2761TIP3    H129774   3.925   1.274   3.963 -0.7579  0.8006 -0.4280
 2761TIP3    H229775   3.942   1.131   3.916  0.7625  1.1853 -1.0682
 2762TIP3   OH229776   0.265   6.555  11.945 -0.2696  0.3646 -0.4039
 2762TIP3    H129777   0.184   6.582  11.902 -0.1200  0.4415 -0.6365
 2762TIP3    H229778   0.270   6.460  11.929 -0.6556  0.2391  0.1841
 2763TIP3   OH229779   3.944   1.151  12.799  0.1227  0.0887 -0.0740
 2763TIP3    H129780   3.948   1.064  12.760 -0.1444  0.5228 -1.0826
 2763TIP3    H229781   3.983   1.209  12.733  0.7491  0.6703  0.7904
 2764TIP3   OH229782   2.154   3.724   2.441 -0.1402 -0.0660 -0.4617
 2764TIP3    H129783   2.225   3.688   2.493  1.0815  1.1295 -1.2744
 2764TIP3    H229784   2.141   3.662   2.370  1.9647  1.0616 -1.8650
 2765TIP3   OH229785   1.516   2.677  11.995  0.4622  0.6735  0.3435
 2765TIP3    H129786   1.491   2.730  11.919 -0.7809 -0.7801 -0.2910
 2765TIP3    H229787   1.463   2.711  12.067  0.4440  0.9722  0.1923
 2766TIP3   OH229788   3.358   1.418  13.561  0.0414 -0.0019  0.5248
 2766TIP3    H129789   3.403   1.386  13.483 -1.1789 -1.2136  0.2894
 2766TIP3    H229790   3.325   1.504  13.536  1.4695  0.5376  0.4275
 2767TIP3   OH229791   6.816   4.749   3.876  0.3033 -0.2210 -0.0498
 2767TIP3    H129792   6.744   4.801   3.911  0.4334 -0.4253  0.5218
 2767TIP3    H229793   6.788   4.724   3.788  0.2522  0.8511 -0.3484
 2768TIP3   OH229794   0.920   2.670  13.310  0.0009  0.2791 -0.0588
 2768TIP3    H129795   0.880   2.737  13.365  0.8460  2.3477 -1.8886
 2768TIP3    H229796   1.003   2.649  13.353 -0.0944  0.6987  0.3252
 2769TIP3   OH229797   5.162   2.485   6.573 -0.0518 -0.3997  0.2208
 2769TIP3    H129798   5.073   2.507   6.546 -0.2495 -1.4243  0.0004
 2769TIP3    H229799   5.149   2.429   6.650  0.4688  1.5633  1.7607
 2770TIP3   OH229800   2.709   4.571  12.568 -0.2573  0.3489  0.2152
 2770TIP3    H129801   2.688   4.612  12.484 -0.3837  1.4198  0.7633
 2770TIP3    H229802   2.627   4.572  12.616 -0.4555 -1.2652 -0.0410
 2771TIP3   OH229803   4.737   2.107   0.424  0.1769 -0.6973  0.4373
 2771TIP3    H129804   4.760   2.118   0.332 -0.6803 -3.6212 -0.1691
 2771TIP3    H229805   4.804   2.158   0.471  1.3503 -0.1695 -1.7196
 2772TIP3   OH229806   4.322   0.615  11.048  0.3591 -0.3025 -0.4171
 2772TIP3    H129807   4.410   0.626  11.015 -0.1953  1.4650 -1.3277
 2772TIP3    H229808   4.322   0.658  11.134  0.5884 -1.0133 -0.0531
 2773TIP3   OH229809   3.205   1.367   5.387  0.7917  0.1854 -0.2780
 2773TIP3    H129810   3.218   1.273   5.374 -0.2451  0.1305 -0.9244
 2773TIP3    H229811   3.118   1.385   5.352  0.7698  1.2969  0.3113
 2774TIP3   OH229812   3.198   4.603   3.087 -1.3573 -0.3232 -0.2503
 2774TIP3    H129813   3.151   4.525   3.056  0.0952 -1.0086 -0.7583
 2774TIP3    H229814   3.288   4.590   3.058 -0.8533  1.0053  0.6755
 2775TIP3   OH229815   3.445   1.259   0.009  0.1236  0.0034 -0.2127
 2775TIP3    H129816   3.365   1.236   0.056 -0.6483 -1.1921 -2.0810
 2775TIP3    H229817   3.415   1.293  -0.075  1.5812 -0.6005 -0.9886
 2776TIP3   OH229818   5.724   0.700  16.416 -0.0117 -0.6396  0.1872
 2776TIP3    H129819   5.682   0.762  16.476  0.2430  0.7018 -0.9762
 2776TIP3    H229820   5.662   0.689  16.345  0.1514 -1.3557  0.1537
 2777TIP3   OH229821   3.820   1.597  16.037 -0.3388  0.1866  0.3610
 2777TIP3    H129822   3.781   1.510  16.024 -1.0701  0.3613  1.2736
 2777TIP3    H229823   3.776   1.630  16.116 -0.9833  1.8973 -0.6964
 2778TIP3   OH229824   0.471   3.521   0.902  0.0380  0.3750 -0.1558
 2778TIP3    H129825   0.559   3.544   0.932 -0.3083  0.3571  0.9167
 2778TIP3    H229826   0.485   3.456   0.833  0.8646  0.1292  0.2366
 2779TIP3   OH229827   3.608   0.580  14.350 -0.0373  0.1426  0.8055
 2779TIP3    H129828   3.606   0.506  14.411 -0.0450  1.3862  2.3312
 2779TIP3    H229829   3.626   0.656  14.404  0.3872  1.2302 -0.8078
 2780TIP3   OH229830   2.322   0.500  14.335 -0.8829 -0.2661 -0.8338
 2780TIP3    H129831   2.239   0.527  14.295 -0.4796  1.0024 -0.8347
 2780TIP3    H229832   2.296   0.454  14.415 -1.6268 -1.1191 -1.5364
 2781TIP3   OH229833   1.668   4.088   3.518  0.7008  0.2206 -0.2769
 2781TIP3    H129834   1.722   4.029   3.571  0.7435 -0.4703 -1.0587
 2781TIP3    H229835   1.609   4.130   3.580 -0.9659 -2.4575  0.0358
 2782TIP3   OH229836   6.338   1.963   1.241 -0.4727  0.1793 -0.3410
 2782TIP3    H129837   6.386   1.931   1.164 -1.7589  0.8939 -1.4673
 2782TIP3    H229838   6.403   1.966   1.311  0.9221  0.3447 -1.6243
 2783TIP3   OH229839   2.452   0.892  11.753  0.1848 -0.0671 -0.2498
 2783TIP3    H129840   2.444   0.866  11.661 -0.0679  0.8735 -0.4947
 2783TIP3    H229841   2.485   0.813  11.797  0.8094 -0.3648 -1.2287
 2784TIP3   OH229842   5.845   6.737  11.949  0.0726  0.3257  0.5705
 2784TIP3    H129843   5.889   6.774  12.026 -1.5730  0.6254  1.3746
 2784TIP3    H229844   5.917   6.703  11.896  1.2328  0.0717  2.2510
 2785TIP3   OH229845   4.310   2.472   5.623 -0.4919  0.2563 -0.5345
 2785TIP3    H129846   4.256   2.533   5.574 -0.6059 -1.1292 -2.1964
 2785TIP3    H229847   4.271   2.386   5.606 -0.0265 -0.3512  1.3171
 2786TIP3   OH229848   2.268   5.397  13.419 -0.6024  0.4877 -0.3017
 2786TIP3    H129849   2.245   5.383  13.327 -0.7799  0.1711 -0.2101
 2786TIP3    H229850   2.193   5.363  13.468  1.4493 -3.7289  0.1140
 2787TIP3   OH229851   2.487   5.247  11.085  0.1228 -0.7361 -0.2914
 2787TIP3    H129852   2.461   5.335  11.111 -1.8328 -1.1184 -0.8134
 2787TIP3    H229853   2.453   5.190  11.154 -0.4902 -1.2484 -0.9924
 2788TIP3   OH229854   3.603   6.730   5.170 -0.5092  0.7227  0.0199
 2788TIP3    H129855   3.539   6.762   5.235  0.4219  2.5157  0.1029
 2788TIP3    H229856   3.592   6.789   5.095 -2.0804 -1.7927 -1.7923
 2789TIP3   OH229857   0.938   1.168  15.563  0.2627  0.1067  0.4245
 2789TIP3    H129858   1.008   1.150  15.625  0.2722 -0.6083  0.2130
 2789TIP3    H229859   0.946   1.262  15.544 -0.1143  0.4680  1.9479
 2790TIP3   OH229860   2.379   0.308  11.293  0.0159 -0.2485  0.8186
 2790TIP3    H129861   2.460   0.323  11.245 -0.9004 -0.6889 -0.8816
 2790TIP3    H229862   2.399   0.338  11.382  2.5432 -1.8568  0.8344
 2791TIP3   OH229863   0.255   6.040   1.277  0.1912  0.1659  0.2018
 2791TIP3    H129864   0.242   5.951   1.244  0.7556  0.4466 -0.8005
 2791TIP3    H229865   0.332   6.072   1.230 -0.9805  1.7731 -0.6930
 2792TIP3   OH229866   6.139   4.078   2.578  0.4806 -0.0848  0.2895
 2792TIP3    H129867   6.086   4.144   2.624  0.8680 -0.8157  1.8276
 2792TIP3    H229868   6.227   4.114   2.578  0.2787  0.3987 -0.8283
 2793TIP3   OH229869   1.577   0.665   5.113 -0.7550  0.2778  0.2442
 2793TIP3    H129870   1.615   0.611   5.182 -1.3014 -0.1909  0.1873
 2793TIP3    H229871   1.611   0.753   5.129 -0.2555  0.0146  0.6371
 2794TIP3   OH229872   0.605   1.609   2.030  0.3287  0.4283  0.4022
 2794TIP3    H129873   0.690   1.575   2.059 -0.0330 -0.0765  0.8720
 2794TIP3    H229874   0.554   1.531   2.009  0.0391  0.7415 -0.0535
 2795TIP3   OH229875   4.356   5.797  11.426  0.3887  0.3404 -0.1276
 2795TIP3    H129876   4.302   5.874  11.409 -0.3120  0.1691  1.2380
 2795TIP3    H229877   4.339   5.738  11.352  2.3954  2.2575 -2.1817
 2796TIP3   OH229878   5.736   0.717   1.656  0.5358  0.2724  1.0904
 2796TIP3    H129879   5.708   0.782   1.591 -1.9059 -0.8330  0.9976
 2796TIP3    H229880   5.822   0.749   1.686  1.5967  0.9791 -2.4267
 2797TIP3   OH229881   5.972   4.096   4.132  0.4009  0.0704 -0.7082
 2797TIP3    H129882   5.899   4.056   4.179  2.0669 -0.8674  1.1412
 2797TIP3    H229883   5.975   4.048   4.049 -0.5039 -0.4878 -0.4268
 2798TIP3   OH229884   2.833   1.251  14.616  0.0984 -0.0118 -0.3338
 2798TIP3    H129885   2.793   1.331  14.582 -0.4056  0.7143  1.8399
 2798TIP3    H229886   2.778   1.227  14.691  3.0575  0.4047  2.0838
 2799TIP3   OH229887   4.483   3.739   5.844 -0.1766  0.2008  0.0675
 2799TIP3    H129888   4.423   3.763   5.773 -3.4586  0.1833  2.7194
 2799TIP3    H229889   4.447   3.659   5.880  1.5730  0.0960  1.6496
 2800TIP3   OH229890   3.793   3.444  12.672 -0.2901  0.6879 -0.7988
 2800TIP3    H129891   3.863   3.412  12.730  0.9998  1.0590 -2.1218
 2800TIP3    H229892   3.805   3.539  12.671 -0.8946  0.7636 -0.9534
 2801TIP3   OH229893   2.474   6.412   3.138  0.0866 -0.3614 -0.5135
 2801TIP3    H129894   2.461   6.425   3.232  0.1224  0.6584 -0.6361
 2801TIP3    H229895   2.566   6.435   3.124 -0.2347  0.6805 -0.9856
 2802TIP3   OH229896   2.343   5.567   3.167 -0.5246  0.1665  0.7094
 2802TIP3    H129897   2.316   5.487   3.210 -2.6328 -0.1461 -1.1138
 2802TIP3    H229898   2.308   5.560   3.078  0.1003  2.6604  0.2176
 2803TIP3   OH229899   4.599   3.539  12.295 -0.1411  0.3624  0.0357
 2803TIP3    H129900   4.629   3.506  12.380 -2.3925  0.5083  0.9120
 2803TIP3    H229901   4.515   3.496  12.280 -0.5487  1.5920 -1.3659
 2804TIP3   OH229902   2.068   0.054  14.456 -0.2877  0.0015  0.2639
 2804TIP3    H129903   1.995   0.058  14.518 -0.9740  0.1344 -0.5340
 2804TIP3    H229904   2.037  -0.004  14.387  0.6746 -0.5617  0.3037
 2805TIP3   OH229905   2.207   0.441   3.232 -0.0692 -0.3859  0.4206
 2805TIP3    H129906   2.288   0.399   3.260 -0.3645 -0.7245  0.7689
 2805TIP3    H229907   2.155   0.449   3.312  0.5508  1.9296  0.6153
 2806TIP3   OH229908   1.417   5.616  15.939  0.2537  0.5701 -0.3684
 2806TIP3    H129909   1.435   5.523  15.955 -1.3925  0.4919  1.1816
 2806TIP3    H229910   1.477   5.663  15.997 -0.2553  0.4307  0.2742
 2807TIP3   OH229911   4.615   4.098  12.068 -0.5650 -0.0928  0.0248
 2807TIP3    H129912   4.667   4.135  12.139  0.5345  2.5898 -2.1199
 2807TIP3    H229913   4.542   4.054  12.113 -0.0418  1.7332  2.8019
 2808TIP3   OH229914   2.597   5.037  14.474 -0.1034 -0.2185  0.3970
 2808TIP3    H129915   2.669   5.084  14.517 -0.2531 -0.4540  0.8957
 2808TIP3    H229916   2.638   4.957  14.441  0.6152  1.1221 -2.1624
 2809TIP3   OH229917   4.818   6.561   4.533 -0.0983  0.5830  0.2245
 2809TIP3    H129918   4.733   6.530   4.565  0.0600 -0.8033 -0.6487
 2809TIP3    H229919   4.815   6.656   4.545 -1.4759  0.4651  0.9110
 2810TIP3   OH229920   6.571   5.848   2.858  0.3775  0.3152  0.0700
 2810TIP3    H129921   6.583   5.805   2.773 -0.9967  0.3933 -0.1737
 2810TIP3    H229922   6.478   5.868   2.862  0.4790  0.5599  1.4890
 2811TIP3   OH229923   1.526   4.640  17.121  0.1956 -0.2406 -0.4693
 2811TIP3    H129924   1.460   4.571  17.117 -1.6094  1.3763  0.4772
 2811TIP3    H229925   1.514   4.680  17.208  0.9088  1.5216 -1.1492
 2812TIP3   OH229926   5.347   3.231  12.687  0.5326 -0.0180  0.0576
 2812TIP3    H129927   5.268   3.200  12.731 -0.6235  1.4499 -0.9116
 2812TIP3    H229928   5.324   3.229  12.594  1.0505  1.9978 -0.1248
 2813TIP3   OH229929   2.196   3.223   1.463 -0.0353  0.2807  0.0077
 2813TIP3    H129930   2.253   3.157   1.424 -0.4372 -0.2509  0.3039
 2813TIP3    H229931   2.160   3.272   1.388 -0.7321 -0.6734 -0.2943
 2814TIP3   OH229932   6.798   6.236   4.297  0.0856 -0.1921 -1.5450
 2814TIP3    H129933   6.731   6.285   4.344  2.4480  1.4089  0.2836
 2814TIP3    H229934   6.860   6.209   4.365  1.4525 -1.4059 -3.2147
 2815TIP3   OH229935   0.310   1.091  16.551 -0.5132  0.1342 -0.1511
 2815TIP3    H129936   0.237   1.061  16.604 -0.3428  1.6167  0.9485
 2815TIP3    H229937   0.269   1.141  16.480 -0.5741  1.7521  0.9745
 2816TIP3   OH229938   0.050   5.489  12.419  0.0573  0.0365  0.7396
 2816TIP3    H129939   0.105   5.411  12.423 -1.3271 -1.0340 -0.6210
 2816TIP3    H229940  -0.007   5.475  12.344 -2.0230  1.1556  2.0537
 2817TIP3   OH229941   4.009   3.928  15.952  0.0758  0.2302  0.3096
 2817TIP3    H129942   4.081   3.979  15.989  0.4750 -0.6816  0.8053
 2817TIP3    H229943   3.935   3.943  16.011  0.2321  0.1326  0.5303
 2818TIP3   OH229944   5.890   1.377  14.658 -0.5335  0.1858  0.2299
 2818TIP3    H129945   5.795   1.371  14.668 -0.7759  1.0226 -1.4808
 2818TIP3    H229946   5.903   1.397  14.566  1.3253 -0.1045  0.4179
 2819TIP3   OH229947   4.372   4.985  15.843  0.2246  0.3993 -0.2070
 2819TIP3    H129948   4.342   5.061  15.793  0.0301  0.3558 -0.1589
 2819TIP3    H229949   4.456   5.011  15.879 -0.5557  1.1615  1.1005
 2820TIP3   OH229950   5.210   5.892  13.829 -0.6227  0.3532 -0.5562
 2820TIP3    H129951   5.138   5.864  13.772 -0.3396 -0.2419 -0.6285
 2820TIP3    H229952   5.289   5.864  13.783 -0.3981 -0.2967  0.2103
 2821TIP3   OH229953   0.238   5.873  13.352 -0.4464  0.0105  0.2173
 2821TIP3    H129954   0.208   5.811  13.286  0.1157  0.7367 -0.7292
 2821TIP3    H229955   0.319   5.909  13.316  0.6237 -0.6172  1.9430
 2822TIP3   OH229956   1.848   5.307  12.973 -0.0675  0.1978  1.2250
 2822TIP3    H129957   1.759   5.324  12.942  0.3819  1.1812  0.4073
 2822TIP3    H229958   1.870   5.385  13.024  1.5606  1.6247 -1.4849
 2823TIP3   OH229959   2.878   0.892   4.824  0.0669  0.5852  0.7690
 2823TIP3    H129960   2.857   0.974   4.869 -0.4065  1.0394 -0.2645
 2823TIP3    H229961   2.793   0.849   4.813 -0.3012  1.9792 -2.5652
 2824TIP3   OH229962   3.829   6.693  12.094  0.2189 -0.3553  0.0265
 2824TIP3    H129963   3.921   6.690  12.120  0.4568  0.4656 -0.6647
 2824TIP3    H229964   3.780   6.669  12.173  0.9823  0.4329  0.7501
 2825TIP3   OH229965   4.505   2.793  10.928 -0.2798  0.0431 -0.7401
 2825TIP3    H129966   4.469   2.750  10.850  0.8325 -2.1391 -0.0876
 2825TIP3    H229967   4.453   2.757  11.000  1.0357 -0.6285 -0.1260
 2826TIP3   OH229968   4.884   1.682  15.964 -0.2872  0.3104 -0.4361
 2826TIP3    H129969   4.838   1.762  15.938 -2.1496 -0.4699  0.2894
 2826TIP3    H229970   4.905   1.638  15.882  0.8392  1.5897 -0.8369
 2827TIP3   OH229971   6.602   1.780  13.189 -0.1487 -0.0056  0.6967
 2827TIP3    H129972   6.602   1.816  13.100 -0.1450  1.7490  1.3785
 2827TIP3    H229973   6.670   1.713  13.188 -0.9522 -0.8322 -0.9340
 2828TIP3   OH229974   1.034   2.624  11.951  0.2558 -0.3262 -0.1778
 2828TIP3    H129975   1.063   2.585  11.868  1.8374 -1.3361  0.8380
 2828TIP3    H229976   1.051   2.557  12.016  0.0820  0.9144  1.1581
 2829TIP3   OH229977   1.117   1.635  15.780 -0.5563 -0.5818  0.2427
 2829TIP3    H129978   1.089   1.636  15.872 -2.0679 -0.3084 -0.2013
 2829TIP3    H229979   1.072   1.710  15.741  0.8839 -0.0874 -0.5078
 2830TIP3   OH229980   2.859   2.002   1.092 -0.2467  0.3819  0.5543
 2830TIP3    H129981   2.881   2.095   1.102 -0.9931  0.5903  0.2480
 2830TIP3    H229982   2.909   1.973   1.016 -0.5916  0.7203  0.1973
 2831TIP3   OH229983   1.310   3.098   6.839  0.3018 -0.1382 -0.4008
 2831TIP3    H129984   1.386   3.077   6.894 -0.2295 -0.4369  0.2353
 2831TIP3    H229985   1.253   3.021   6.848 -1.0018  0.9346  0.7744
 2832TIP3   OH229986   5.121   4.289  13.003  0.0113  0.0182 -0.3204
 2832TIP3    H129987   5.151   4.332  12.923 -1.2984  0.7794 -0.4252
 2832TIP3    H229988   5.137   4.353  13.072 -0.9950  0.2888 -0.3268
 2833TIP3   OH229989   5.622   1.005  14.014 -0.1471 -0.2903 -0.5096
 2833TIP3    H129990   5.718   1.002  14.006 -0.0179 -1.0289  1.1926
 2833TIP3    H229991   5.599   1.094  13.990  1.2275  0.6476  1.5293
 2834TIP3   OH229992   2.759   2.929  16.653  0.2753 -0.3846 -0.2465
 2834TIP3    H129993   2.704   2.915  16.730  0.6391 -2.5572 -0.3579
 2834TIP3    H229994   2.697   2.952  16.584 -0.1862  0.1961  0.3488
 2835TIP3   OH229995   4.339   3.655  12.919  0.4300 -0.2403  0.6532
 2835TIP3    H129996   4.427   3.619  12.904  1.1832  1.0944  1.6597
 2835TIP3    H229997   4.292   3.586  12.964  1.1741 -0.7412  0.6787
 2836TIP3   OH229998   5.377   1.035   0.904 -0.4992  0.0045 -0.2830
 2836TIP3    H129999   5.395   1.129   0.900 -2.3732  0.3605 -0.9762
 2836TIP3    H230000   5.463   0.994   0.911  0.2807  1.8369  1.5601
 2837TIP3   OH230001   1.405   3.016   5.223 -0.5421 -0.1506  0.6726
 2837TIP3    H130002   1.358   3.089   5.264  0.7733  0.9312  0.2836
 2837TIP3    H230003   1.336   2.962   5.185 -1.4323  2.2721 -1.3254
 2838TIP3   OH230004   0.762   0.702   5.481  0.6685 -0.1066  0.4864
 2838TIP3    H130005   0.824   0.647   5.433  0.2566 -0.2576  0.1242
 2838TIP3    H230006   0.802   0.789   5.481  1.1800 -0.3337  0.8013
 2839TIP3   OH230007   0.345   0.038   1.006  0.2455  0.1654 -0.1190
 2839TIP3    H130008   0.367   0.131   1.008  2.2898 -0.3097  1.1045
 2839TIP3    H230009   0.424  -0.006   1.037 -1.1887 -1.9089  0.7054
 2840TIP3   OH230010   5.717   2.043  12.519  0.1847 -0.3358  0.0229
 2840TIP3    H130011   5.715   2.138  12.504 -1.0476 -0.4681 -0.6978
 2840TIP3    H230012   5.745   2.006  12.435 -0.1929 -0.6691  0.0419
 2841TIP3   OH230013   4.017   2.168   2.507  0.1131  0.3130  0.2799
 2841TIP3    H130014   3.997   2.075   2.503  1.4721  0.0131  0.0303
 2841TIP3    H230015   4.060   2.180   2.591 -3.7180  1.5166  2.1874
 2842TIP3   OH230016   1.271   2.790  11.321 -0.6516 -0.0652  0.0051
 2842TIP3    H130017   1.300   2.726  11.255  0.9906 -1.2869  1.8750
 2842TIP3    H230018   1.345   2.851  11.329 -1.2789  0.7118 -0.0529
 2843TIP3   OH230019   5.266   3.441  16.284 -0.0350 -0.4133 -0.7297
 2843TIP3    H130020   5.237   3.441  16.193 -0.1992  0.0593 -0.6840
 2843TIP3    H230021   5.260   3.350  16.312 -0.0400 -0.5479 -1.1780
 2844TIP3   OH230022   0.414   5.809   4.764 -0.1228 -0.0223  0.2599
 2844TIP3    H130023   0.393   5.737   4.706  1.9397 -0.8345  0.4556
 2844TIP3    H230024   0.447   5.878   4.706 -1.2196  0.4169  0.1582
 2845TIP3   OH230025   0.423   3.249  12.086 -0.5411  0.4452  0.7353
 2845TIP3    H130026   0.501   3.282  12.042 -0.1949 -0.7808  0.4157
 2845TIP3    H230027   0.384   3.326  12.127 -1.1461  1.7325 -2.1126
 2846TIP3   OH230028   5.011   0.255  15.165 -0.0313  0.5126 -0.4009
 2846TIP3    H130029   5.096   0.247  15.121  0.3147 -1.4498  0.5489
 2846TIP3    H230030   5.011   0.343  15.201  0.8240  1.1786 -1.9914
 2847TIP3   OH230031   1.603   1.600   4.881  0.3665  0.0016 -0.1947
 2847TIP3    H130032   1.652   1.542   4.939  0.3319 -0.3500 -0.5201
 2847TIP3    H230033   1.666   1.626   4.814  0.2354 -0.0793 -0.3497
 2848TIP3   OH230034   3.041   6.472   6.581  0.2045 -0.8825  0.2131
 2848TIP3    H130035   2.987   6.446   6.507 -0.0448 -0.4345  0.2329
 2848TIP3    H230036   3.129   6.483   6.545  0.6185 -3.1407  0.4877
 2849TIP3   OH230037   4.037   1.446  12.761 -0.2180  0.8321  0.1200
 2849TIP3    H130038   4.092   1.455  12.839  0.2563  2.6387 -0.4098
 2849TIP3    H230039   3.950   1.471  12.791 -0.1487  0.9597  0.2185
 2850TIP3   OH230040   0.332   5.132   0.364 -0.4091  0.3109  0.9542
 2850TIP3    H130041   0.261   5.085   0.409 -1.2075  0.1217 -0.4801
 2850TIP3    H230042   0.307   5.129   0.272  1.3230  0.5181  0.4781
 2851TIP3   OH230043   2.040   5.178   6.362 -0.3180 -0.1835 -0.6273
 2851TIP3    H130044   2.042   5.129   6.280 -0.2692  0.2665 -0.8976
 2851TIP3    H230045   2.091   5.257   6.344  0.2237 -0.3747  0.0268
 2852TIP3   OH230046   5.922   3.787  11.326  0.1940  0.1547  0.2355
 2852TIP3    H130047   5.949   3.853  11.262 -1.4742  1.7304  1.1283
 2852TIP3    H230048   5.854   3.829  11.378  1.1877 -1.2425  2.7942
 2853TIP3   OH230049   1.756   6.425  11.917 -0.2154  0.2922  0.0667
 2853TIP3    H130050   1.672   6.458  11.947 -0.4378  0.2229 -0.4819
 2853TIP3    H230051   1.806   6.411  11.997 -1.2807 -1.1671  0.4932
 2854TIP3   OH230052   4.918   1.632   1.355  0.1027  0.1132  0.3989
 2854TIP3    H130053   4.886   1.678   1.277  0.3144 -0.6518 -0.1579
 2854TIP3    H230054   4.945   1.546   1.321 -0.9240 -0.6634  1.5176
 2855TIP3   OH230055   5.374   0.631   0.003  0.2249  0.1574  0.1881
 2855TIP3    H130056   5.394   0.724   0.015 -1.2018  0.8258 -2.3383
 2855TIP3    H230057   5.294   0.630  -0.049  0.0097 -2.5005  0.4942
 2856TIP3   OH230058   5.456   2.032   3.664  0.0727 -0.0775  0.4677
 2856TIP3    H130059   5.489   2.083   3.590 -1.0560 -0.9055 -0.6557
 2856TIP3    H230060   5.484   2.080   3.742 -0.0693  1.6784 -0.5308
 2857TIP3   OH230061   2.460   0.018  10.894 -0.8167 -0.2237 -0.4071
 2857TIP3    H130062   2.548   0.010  10.857 -1.6903 -1.7404 -2.1823
 2857TIP3    H230063   2.401  -0.014  10.826 -2.7603  0.5778  0.8314
 2858TIP3   OH230064   5.561   3.867   1.253  0.0424 -0.2097  0.5803
 2858TIP3    H130065   5.638   3.860   1.309 -0.4578 -0.9963  1.1876
 2858TIP3    H230066   5.588   3.923   1.181  1.3148 -0.8323  0.5647
 2859TIP3   OH230067   1.395   4.531   6.154 -0.2618 -0.6071 -0.1877
 2859TIP3    H130068   1.445   4.551   6.233 -0.5141  0.3210 -0.2474
 2859TIP3    H230069   1.315   4.583   6.164 -0.3401 -0.5671 -1.0035
 2860TIP3   OH230070   1.277   2.905  13.350 -0.2519 -0.6774  0.1944
 2860TIP3    H130071   1.228   2.949  13.419  0.1831  0.0021  0.0678
 2860TIP3    H230072   1.365   2.941  13.355  0.4318 -2.3891  0.8524
 2861TIP3   OH230073   5.282   2.188   2.605 -0.1487 -0.0136 -0.1109
 2861TIP3    H130074   5.247   2.099   2.597 -3.7996  1.2381  0.7292
 2861TIP3    H230075   5.220   2.232   2.664  2.6148  2.5648  0.9689
 2862TIP3   OH230076   2.146   1.652   3.956  0.1848 -0.0385  0.0470
 2862TIP3    H130077   2.105   1.644   4.042  2.4927 -0.0729  1.1796
 2862TIP3    H230078   2.212   1.721   3.967  1.3604 -0.9045 -1.3295
 2863TIP3   OH230079   1.754   3.106  16.762  0.0704  0.3390  0.6633
 2863TIP3    H130080   1.806   3.029  16.737 -0.7386  0.6996 -2.3572
 2863TIP3    H230081   1.807   3.149  16.829  1.1940 -2.0798  1.4119
 2864TIP3   OH230082   1.483   6.048  16.177  0.2607  0.0380  0.2645
 2864TIP3    H130083   1.460   5.988  16.248  0.3871 -0.8260 -0.4024
 2864TIP3    H230084   1.499   6.132  16.220 -2.8958  0.3920  0.9133
 2865TIP3   OH230085   3.213   1.972  15.938 -0.3181  0.4609  0.1453
 2865TIP3    H130086   3.275   1.971  15.865 -0.4071  0.9229  0.0617
 2865TIP3    H230087   3.130   1.944  15.899  0.0001 -0.8377  0.4057
 2866TIP3   OH230088   2.062   6.302   2.042 -0.1096 -0.3714 -0.5390
 2866TIP3    H130089   2.064   6.339   2.130 -0.0449 -0.2301 -0.5998
 2866TIP3    H230090   2.020   6.370   1.989 -1.3662 -0.9964 -0.3613
 2867TIP3   OH230091   4.507   4.322  12.473 -0.1122  0.7706  0.3313
 2867TIP3    H130092   4.434   4.373  12.507  0.6445  2.4236 -0.4789
 2867TIP3    H230093   4.573   4.324  12.543 -0.5266 -0.0836  0.7574
 2868TIP3   OH230094   0.201   4.438   5.207 -0.1826 -0.4339 -0.4012
 2868TIP3    H130095   0.204   4.469   5.297 -0.8660 -1.2765 -0.0891
 2868TIP3    H230096   0.210   4.517   5.154 -0.5359  0.1375  0.3938
 2869TIP3   OH230097   4.142   3.230   1.631  0.3360 -0.6000  0.1838
 2869TIP3    H130098   4.147   3.325   1.633  1.2786 -0.5859 -1.5380
 2869TIP3    H230099   4.140   3.208   1.538  0.3021 -2.2722  0.5566
 2870TIP3   OH230100   2.811   0.311   5.835 -0.0402  0.2827 -0.5896
 2870TIP3    H130101   2.815   0.368   5.758 -0.7680  0.3023 -0.6122
 2870TIP3    H230102   2.897   0.267   5.836 -0.2916 -0.2656 -1.8316
 2871TIP3   OH230103   5.220   0.305  11.170 -0.1341 -0.3766 -0.1493
 2871TIP3    H130104   5.296   0.358  11.195 -1.0355  0.7725  0.2048
 2871TIP3    H230105   5.145   0.365  11.178 -0.8373 -0.8826 -2.5256
 2872TIP3   OH230106   0.873   2.193  13.935  0.2651  0.3070 -0.2595
 2872TIP3    H130107   0.918   2.253  13.877 -0.0403 -0.4523 -1.3060
 2872TIP3    H230108   0.942   2.150  13.986  0.5253  1.0389 -0.0005
 2873TIP3   OH230109   6.812   0.488   5.668 -0.3483 -0.6462 -0.1812
 2873TIP3    H130110   6.766   0.425   5.724  0.2075 -0.9556 -0.0688
 2873TIP3    H230111   6.743   0.529   5.615 -0.9872  0.1782  1.2423
 2874TIP3   OH230112   3.115   6.723   0.468  0.1321 -0.1439 -0.0189
 2874TIP3    H130113   3.193   6.721   0.524 -0.5387  3.8953  1.2607
 2874TIP3    H230114   3.042   6.720   0.529 -0.6755 -1.1945 -1.0377
 2875TIP3   OH230115   3.132   5.082   0.069  0.5703 -0.1814  0.2753
 2875TIP3    H130116   3.049   5.091   0.024  1.1905 -0.0946 -0.8647
 2875TIP3    H230117   3.158   5.171   0.092  0.2758 -0.2227  0.7853
 2876TIP3   OH230118   0.837   1.991   0.777  0.2466  0.7052  0.4068
 2876TIP3    H130119   0.812   2.013   0.867 -0.6623  0.4277  0.2256
 2876TIP3    H230120   0.822   1.897   0.771 -1.0950  0.9658 -0.4796
 2877TIP3   OH230121   4.007   1.631   4.399  0.0738 -0.6306 -0.4059
 2877TIP3    H130122   4.077   1.673   4.449 -0.1318 -2.1132  1.1723
 2877TIP3    H230123   4.052   1.586   4.328  0.3234  1.9847 -1.9928
 2878TIP3   OH230124   1.233   0.908   5.972 -0.2222 -0.3951  0.0189
 2878TIP3    H130125   1.303   0.963   5.935 -0.9155  0.2200 -0.3994
 2878TIP3    H230126   1.193   0.866   5.896  1.0709 -2.4388  0.4251
 2879TIP3   OH230127   0.650   4.680   1.521 -0.1751 -0.1348  0.5283
 2879TIP3    H130128   0.577   4.625   1.550 -0.8787 -0.2044 -1.2753
 2879TIP3    H230129   0.630   4.697   1.429  1.4808  0.8444  0.3537
 2880TIP3   OH230130   1.147   2.083  12.018  0.0059 -0.0901  0.1340
 2880TIP3    H130131   1.191   2.058  12.099 -0.3978  0.6256  0.5724
 2880TIP3    H230132   1.216   2.122  11.964  0.0686  0.3546  0.5318
 2881TIP3   OH230133   0.683   5.327   1.016 -0.0893  0.0018 -1.0278
 2881TIP3    H130134   0.722   5.410   1.041 -1.0061  0.4567 -1.1054
 2881TIP3    H230135   0.668   5.282   1.100 -0.7059  0.4132 -0.9219
 2882TIP3   OH230136   6.283   4.790   4.972  0.0864 -0.5446 -0.1761
 2882TIP3    H130137   6.247   4.770   4.885  3.0332 -0.1144 -1.5661
 2882TIP3    H230138   6.345   4.862   4.956  0.8823 -0.6559  2.2428
 2883TIP3   OH230139   6.345   2.877   4.721 -0.8997  0.0623 -0.0895
 2883TIP3    H130140   6.405   2.860   4.794 -0.7425  0.8815 -0.0204
 2883TIP3    H230141   6.323   2.970   4.730 -0.6693  0.2321 -1.2504
 2884TIP3   OH230142   0.823   2.801  16.778  0.5701  0.2529  1.0115
 2884TIP3    H130143   0.782   2.791  16.864  0.9410 -0.9051  1.0733
 2884TIP3    H230144   0.916   2.787  16.794  0.5704 -0.6079  0.3283
 2885TIP3   OH230145   0.680   1.416   3.517  0.3626 -0.7324 -0.9375
 2885TIP3    H130146   0.611   1.398   3.581  0.8125  0.2421 -0.1592
 2885TIP3    H230147   0.661   1.358   3.444 -1.6865 -0.0040 -1.0066
 2886TIP3   OH230148   0.946   2.887  16.519 -0.1650  1.0479 -0.0538
 2886TIP3    H130149   0.958   2.980  16.539  1.3940  0.5635  1.4034
 2886TIP3    H230150   0.910   2.850  16.599 -1.0194  0.4274 -0.7197
 2887TIP3   OH230151   5.728   6.205   1.959 -0.1440  0.3900  0.3057
 2887TIP3    H130152   5.663   6.222   2.028  0.0786 -0.6114  0.7779
 2887TIP3    H230153   5.677   6.175   1.884 -0.1455 -1.8300  1.1491
 2888TIP3   OH230154   3.566   3.512   4.914 -0.4509 -0.4149  0.2423
 2888TIP3    H130155   3.584   3.458   4.837 -0.0683  0.8403 -0.5615
 2888TIP3    H230156   3.511   3.456   4.969 -0.3810 -1.4868 -0.7365
 2889TIP3   OH230157   1.928   1.717  15.046 -0.3725  0.0748 -0.4689
 2889TIP3    H130158   1.869   1.791  15.063  0.1120  0.4273 -0.3352
 2889TIP3    H230159   1.869   1.643  15.030 -0.8637  0.7085 -1.6199
 2890TIP3   OH230160   0.351   1.038  15.308  0.0912 -0.1037  0.2297
 2890TIP3    H130161   0.297   1.117  15.308  1.0323  0.5474  0.0296
 2890TIP3    H230162   0.425   1.059  15.366  1.0334 -0.3562 -0.8657
 2891TIP3   OH230163   1.711   1.358   4.370  0.7309 -0.4967 -0.4557
 2891TIP3    H130164   1.796   1.400   4.384  0.1785  0.8609 -1.1093
 2891TIP3    H230165   1.668   1.363   4.455  0.7674  0.0505 -0.4659
 2892TIP3   OH230166   5.517   1.914  17.140  0.1641 -0.2941 -0.1120
 2892TIP3    H130167   5.521   1.945  17.049  0.5881  0.0672  0.0295
 2892TIP3    H230168   5.469   1.982  17.187 -1.6162 -1.3104 -0.3962
 2893TIP3   OH230169   4.137   2.420  16.815  0.1642 -0.2317  0.2326
 2893TIP3    H130170   4.087   2.457  16.742  0.2068  1.6207  1.1100
 2893TIP3    H230171   4.220   2.394  16.776 -0.0576  0.1316 -0.5067
 2894TIP3   OH230172   6.805   0.015  12.931 -0.0407 -0.5705  0.0694
 2894TIP3    H130173   6.807   0.026  12.836  2.3308 -0.7661  0.0844
 2894TIP3    H230174   6.768   0.097  12.964 -0.9509 -0.5344 -1.0093
 2895TIP3   OH230175   4.222   2.267  16.373  0.0795  0.1328 -0.1110
 2895TIP3    H130176   4.153   2.330  16.349  0.0548  0.7732  1.5735
 2895TIP3    H230177   4.270   2.311  16.443  2.2834 -0.2756 -1.3395
 2896TIP3   OH230178   3.216   6.391  14.809  0.0704 -0.4130 -0.4408
 2896TIP3    H130179   3.186   6.443  14.883  0.2019 -1.0529  0.0662
 2896TIP3    H230180   3.136   6.354  14.771 -0.1545  1.2090 -1.6148
 2897TIP3   OH230181   5.531   3.450  16.950 -0.4952 -0.0471  0.8012
 2897TIP3    H130182   5.559   3.394  17.022 -1.8678 -1.1397  0.5104
 2897TIP3    H230183   5.460   3.401  16.907 -0.3955  1.0387 -0.6571
 2898TIP3   OH230184   3.719   2.432  16.358  0.3422 -0.4611 -0.1963
 2898TIP3    H130185   3.742   2.381  16.436 -0.4162 -0.7749 -0.1776
 2898TIP3    H230186   3.690   2.366  16.295 -1.3228  0.0079  0.0659
 2899TIP3   OH230187   2.063   1.704   4.221  0.3473  0.5045 -0.3771
 2899TIP3    H130188   2.114   1.646   4.277  0.6734  1.7484  0.6529
 2899TIP3    H230189   2.044   1.780   4.277 -1.1245  0.8371 -1.2970
 2900TIP3   OH230190   5.131   0.371  17.197 -0.9557 -0.1537 -0.3716
 2900TIP3    H130191   5.082   0.381  17.279 -0.5245  0.2165 -0.1583
 2900TIP3    H230192   5.162   0.460  17.177 -0.8892 -0.2803 -0.8267
 2901TIP3   OH230193   3.646   3.437  13.705  0.0998 -0.0470 -0.2021
 2901TIP3    H130194   3.691   3.369  13.655 -1.9388 -1.8739  0.3595
 2901TIP3    H230195   3.675   3.424  13.795  1.3419  1.2073 -0.4165
 2902TIP3   OH230196   1.563   4.888  16.821 -0.1618 -0.1670 -0.0602
 2902TIP3    H130197   1.497   4.828  16.785 -0.5642 -0.4969  1.1887
 2902TIP3    H230198   1.641   4.834  16.832 -0.3960 -0.3662  0.6640
 2903TIP3   OH230199   0.047   6.565  15.852 -0.4454  0.0064  0.1167
 2903TIP3    H130200  -0.010   6.604  15.918 -0.2586  0.6647 -0.1021
 2903TIP3    H230201   0.000   6.487  15.822 -1.0605  0.3430  0.1950
 2904TIP3   OH230202   4.901   4.273  14.002 -0.2444  0.2384 -0.5318
 2904TIP3    H130203   4.875   4.182  13.987  0.6166 -0.1239  0.1409
 2904TIP3    H230204   4.903   4.282  14.097 -1.9011  1.4288 -0.5852
 2905TIP3   OH230205   2.172   4.429  11.782 -0.4774 -0.4847 -0.6252
 2905TIP3    H130206   2.083   4.402  11.807 -0.5167 -0.9130 -1.2090
 2905TIP3    H230207   2.228   4.359  11.815 -0.3561 -0.2022 -0.2358
 2906TIP3   OH230208   2.664   4.646   1.360 -0.0055 -0.5436 -0.2539
 2906TIP3    H130209   2.633   4.560   1.388  1.7190 -1.3313 -0.7232
 2906TIP3    H230210   2.702   4.631   1.274  0.6432  0.6239 -0.1768
 2907TIP3   OH230211   3.933   5.281  13.398  0.2929 -0.3043 -0.2395
 2907TIP3    H130212   3.918   5.374  13.379 -0.2155 -0.1244  1.0235
 2907TIP3    H230213   4.007   5.257  13.343  1.5159  1.2985  0.6685
 2908TIP3   OH230214   5.521   6.039  12.294  0.0801  0.1383 -0.2059
 2908TIP3    H130215   5.482   5.951  12.293  0.1656  0.0739  1.1044
 2908TIP3    H230216   5.592   6.035  12.230  1.0869 -1.2259  0.9662
 2909TIP3   OH230217   5.128   6.279  14.574 -0.2441  0.4574  0.0086
 2909TIP3    H130218   5.203   6.242  14.622  0.2865 -0.9035 -1.7890
 2909TIP3    H230219   5.163   6.358  14.532  0.0946  0.0156 -0.5439
 2910TIP3   OH230220   1.549   0.523  15.102 -0.4632  0.4520  0.0240
 2910TIP3    H130221   1.480   0.567  15.052 -0.1883 -0.6482 -1.3794
 2910TIP3    H230222   1.546   0.432  15.071  1.0969  0.2222  0.5008
 2911TIP3   OH230223   3.046   1.982   1.545  0.0333 -0.3231 -0.1552
 2911TIP3    H130224   3.088   2.045   1.486 -0.1638  0.8736  0.9547
 2911TIP3    H230225   2.959   1.967   1.508  0.0610  0.1036 -0.3901
 2912TIP3   OH230226   0.907   5.800   1.092 -0.4552  0.4872  0.3121
 2912TIP3    H130227   0.907   5.797   1.188  0.5128  0.9545  0.3274
 2912TIP3    H230228   0.836   5.740   1.066 -0.1418 -0.3200  1.2963
 2913TIP3   OH230229   1.927   1.140   3.953  0.6604 -0.2920  0.0225
 2913TIP3    H130230   1.927   1.231   3.983  1.3248  0.6238 -2.6149
 2913TIP3    H230231   2.020   1.115   3.956  0.7418 -0.1528 -1.3582
 2914TIP3   OH230232   1.430   2.716  16.704 -0.0528  0.4002 -0.3643
 2914TIP3    H130233   1.405   2.801  16.740 -0.7017  1.0302 -2.2363
 2914TIP3    H230234   1.360   2.657  16.733 -0.9338  1.0415 -1.1607
 2915TIP3   OH230235   3.842   3.073   5.483 -0.1267 -0.4249 -0.1820
 2915TIP3    H130236   3.926   3.098   5.446 -0.1716 -1.8374 -1.2683
 2915TIP3    H230237   3.837   2.979   5.471 -1.5699 -0.4541  0.4880
 2916TIP3   OH230238   0.116   5.811   3.649  0.4378 -0.2150  0.1825
 2916TIP3    H130239   0.108   5.889   3.594 -1.3856 -2.0168 -2.2151
 2916TIP3    H230240   0.052   5.825   3.720  0.7023  0.8099  0.2286
 2917TIP3   OH230241   0.647   5.274   4.146 -0.0157  0.0143 -0.0271
 2917TIP3    H130242   0.685   5.327   4.075  3.1454 -1.9363  0.0836
 2917TIP3    H230243   0.686   5.311   4.226  0.9455 -1.3971  0.1773
 2918TIP3   OH230244   4.722   5.433  15.682  0.0255  0.3366  0.1435
 2918TIP3    H130245   4.812   5.446  15.651  0.4491 -0.2655  1.1011
 2918TIP3    H230246   4.697   5.519  15.718 -0.3528  0.9429 -1.5324
 2919TIP3   OH230247   5.259   0.679  15.129 -0.3060  0.1501  0.6232
 2919TIP3    H130248   5.192   0.748  15.124 -0.8506 -0.3468  1.0036
 2919TIP3    H230249   5.327   0.707  15.068 -1.4372  0.0273 -0.7237
 2920TIP3   OH230250   1.039   6.186   5.789  0.7325 -0.5478  0.7234
 2920TIP3    H130251   0.990   6.109   5.817 -1.9388  0.6280 -0.4861
 2920TIP3    H230252   0.978   6.259   5.802  0.8804  0.5562 -4.0932
 2921TIP3   OH230253   3.921   0.864  15.196 -0.0942 -0.3919  0.8848
 2921TIP3    H130254   3.912   0.911  15.280  0.5004 -0.1447  0.8143
 2921TIP3    H230255   4.014   0.844  15.190 -0.2448 -0.9900  0.5881
 2922TIP3   OH230256   6.356   5.557  11.676 -0.1274  0.0736 -0.4771
 2922TIP3    H130257   6.290   5.503  11.721 -1.1391  2.0630  0.4704
 2922TIP3    H230258   6.349   5.531  11.584 -1.2505 -0.7541 -0.1776
 2923TIP3   OH230259   1.474   1.536  13.819 -0.3033  0.2894 -0.1732
 2923TIP3    H130260   1.385   1.550  13.852 -0.9388 -1.0377 -1.2959
 2923TIP3    H230261   1.462   1.497  13.733  1.3759  0.6211 -0.5734
 2924TIP3   OH230262   3.546   2.919   2.050  0.9178  0.0158  0.3652
 2924TIP3    H130263   3.466   2.876   2.081  1.3416 -0.9284  0.1852
 2924TIP3    H230264   3.610   2.848   2.046  2.0548  0.9710  1.5244
 2925TIP3   OH230265   4.265   4.118   0.987 -0.1026 -0.0772 -0.0388
 2925TIP3    H130266   4.358   4.142   0.982 -0.2492  0.8784  1.5139
 2925TIP3    H230267   4.251   4.097   1.080 -1.2852 -0.8933 -0.3861
 2926TIP3   OH230268   2.487   6.174  13.945  0.2266  0.2438 -0.3092
 2926TIP3    H130269   2.544   6.204  14.015  0.3331  0.6248 -0.5594
 2926TIP3    H230270   2.546   6.128  13.885 -0.1448 -1.6729  0.7558
 2927TIP3   OH230271   5.518   4.786   5.247  0.2350  0.6318 -0.3467
 2927TIP3    H130272   5.570   4.866   5.239  1.8511 -0.3128  0.3889
 2927TIP3    H230273   5.583   4.716   5.255 -1.1590 -0.6758 -0.1865
 2928TIP3   OH230274   6.552   0.199  16.951 -0.9639 -0.7580 -0.5508
 2928TIP3    H130275   6.474   0.207  16.895  0.1702  0.2418 -2.0132
 2928TIP3    H230276   6.611   0.143  16.901  0.8015  1.6474 -1.2350
 2929TIP3   OH230277   3.317   5.287   3.224  0.6289 -0.0872 -0.1025
 2929TIP3    H130278   3.320   5.203   3.271  1.0069 -1.0302 -1.7686
 2929TIP3    H230279   3.242   5.333   3.261  1.1947 -0.6200  1.7298
 2930TIP3   OH230280   5.974   5.775  12.465  0.2341  0.6248 -0.0109
 2930TIP3    H130281   5.981   5.780  12.369 -0.6105 -1.9530 -0.2543
 2930TIP3    H230282   5.881   5.765  12.481  0.2905  1.9271  1.1569
 2931TIP3   OH230283   4.063   1.153  16.391 -0.1205 -0.1188 -0.0273
 2931TIP3    H130284   4.149   1.194  16.379 -0.1492 -0.1081 -0.1974
 2931TIP3    H230285   4.080   1.059  16.386 -0.2754 -0.0952 -1.1398
 2932TIP3   OH230286   4.274   2.603   6.066  0.5747 -0.2367  0.2362
 2932TIP3    H130287   4.304   2.581   6.154  0.8368  0.5887  0.3560
 2932TIP3    H230288   4.334   2.558   6.008  1.0167  0.0338  0.4806
 2933TIP3   OH230289   4.013   3.197  12.759 -0.0881  0.3331 -0.5085
 2933TIP3    H130290   4.088   3.187  12.701 -0.8123 -1.6489 -1.1459
 2933TIP3    H230291   4.011   3.290  12.780  1.5790  0.6753 -1.7833
 2934TIP3   OH230292   5.670   4.674  13.198  0.1067 -0.2414 -0.2045
 2934TIP3    H130293   5.679   4.582  13.220  1.2300 -0.1264 -0.1290
 2934TIP3    H230294   5.577   4.694  13.211 -0.2243 -1.4602 -0.6532
 2935TIP3   OH230295   5.615   1.708   1.124 -0.5269 -0.3142 -0.2692
 2935TIP3    H130296   5.709   1.727   1.124 -0.3670 -0.8225  2.3480
 2935TIP3    H230297   5.578   1.777   1.180 -1.4142 -1.2683  0.3301
 2936TIP3   OH230298   5.450   4.550   5.495 -0.0505 -0.5893 -0.3968
 2936TIP3    H130299   5.535   4.574   5.458  0.2016  0.3925  0.7481
 2936TIP3    H230300   5.472   4.495   5.570 -0.2892  1.2423  1.0812
 2937TIP3   OH230301   2.608   1.517  16.299 -0.6273  0.1169 -0.1447
 2937TIP3    H130302   2.513   1.527  16.288 -0.7131  0.4759  0.8450
 2937TIP3    H230303   2.620   1.514  16.394  0.2011 -1.3861 -0.2814
 2938TIP3   OH230304   3.568   3.616   3.217  0.1287  0.1304 -0.4158
 2938TIP3    H130305   3.551   3.523   3.206  0.5259 -0.2401  1.8945
 2938TIP3    H230306   3.496   3.648   3.271  1.3260  0.6387  0.9085
 2939TIP3   OH230307   4.289   4.186   0.325 -0.0880  0.4081  0.0897
 2939TIP3    H130308   4.268   4.094   0.310  1.1371  0.3140 -1.1145
 2939TIP3    H230309   4.376   4.185   0.364 -0.7869  0.9774  1.7008
 2940TIP3   OH230310   3.709   4.563   0.829  0.3728  0.2938 -0.0947
 2940TIP3    H130311   3.769   4.527   0.894  0.0313 -1.0632 -0.5086
 2940TIP3    H230312   3.752   4.546   0.745 -0.1743  0.1076 -0.3407
 2941TIP3   OH230313   6.715   3.543   5.606  0.0415  0.4785 -0.7570
 2941TIP3    H130314   6.680   3.569   5.521 -0.1519 -0.6504 -1.0327
 2941TIP3    H230315   6.768   3.617   5.634  0.0448  0.8876 -1.8317
 2942TIP3   OH230316   6.355   4.363   2.264  0.5919  0.0834  0.0995
 2942TIP3    H130317   6.328   4.455   2.266  0.2487  0.1241 -3.0213
 2942TIP3    H230318   6.449   4.366   2.248  0.7144 -0.1124  0.7788
 2943TIP3   OH230319   4.483   6.324  13.498 -0.2182  0.2477 -0.5526
 2943TIP3    H130320   4.525   6.238  13.491  1.3406  0.8462  1.0708
 2943TIP3    H230321   4.406   6.317  13.443 -0.6119 -2.5094  0.2631
 2944TIP3   OH230322   5.187   4.598  13.678 -0.3802  0.0407  0.1180
 2944TIP3    H130323   5.273   4.565  13.705  0.6369  2.2512 -0.3219
 2944TIP3    H230324   5.168   4.668  13.740 -0.3152  1.8266 -1.8571
 2945TIP3   OH230325   4.335   2.196  12.768  0.3211 -0.4400 -0.0216
 2945TIP3    H130326   4.298   2.109  12.781 -1.2248  0.1651 -0.3714
 2945TIP3    H230327   4.413   2.180  12.714 -0.0242 -1.5844 -0.2060
 2946TIP3   OH230328   5.783   4.489  16.072  0.4509  0.4642  0.2527
 2946TIP3    H130329   5.794   4.582  16.092 -0.9215  0.4309  1.2370
 2946TIP3    H230330   5.705   4.486  16.016  1.3470  0.0429 -0.9899
 2947TIP3   OH230331   5.862   2.214  16.659 -0.2885  0.0818 -0.0156
 2947TIP3    H130332   5.774   2.234  16.628 -0.5495 -1.3781 -0.2366
 2947TIP3    H230333   5.918   2.229  16.583 -0.2787  1.4080  0.2371
 2948TIP3   OH230334   2.286   1.538  17.089  0.1716  0.4043 -0.1267
 2948TIP3    H130335   2.297   1.458  17.139 -1.2558  1.0216  1.2327
 2948TIP3    H230336   2.194   1.537  17.061  0.5974  0.7245 -1.6043
 2949TIP3   OH230337   0.783   1.331   3.203  0.7737 -0.2513  0.4260
 2949TIP3    H130338   0.711   1.269   3.189  0.1940  0.1814  1.4704
 2949TIP3    H230339   0.853   1.299   3.146 -0.4318 -0.3479 -1.0489
 2950TIP3   OH230340   2.149   6.496   6.028  0.4631  0.1342 -0.1094
 2950TIP3    H130341   2.179   6.418   6.076  1.7417  1.5856  1.5489
 2950TIP3    H230342   2.140   6.467   5.938  2.6189 -1.5372  0.1619
 2951TIP3   OH230343   2.624   0.751   4.410  0.2132  0.1151 -0.0130
 2951TIP3    H130344   2.582   0.742   4.324  2.5277  0.5908 -1.2404
 2951TIP3    H230345   2.610   0.666   4.453  0.6651 -0.7890 -1.6237
 2952TIP3   OH230346   0.156   6.682   2.214  0.3172  0.2454  0.0315
 2952TIP3    H130347   0.086   6.657   2.274 -0.4859  0.4579 -0.7953
 2952TIP3    H230348   0.202   6.600   2.194  1.4974  0.3961  2.0506
 2953TIP3   OH230349   3.514   1.182  15.872 -0.4643  0.0177  0.1254
 2953TIP3    H130350   3.521   1.117  15.942 -0.6291  0.5820  0.6745
 2953TIP3    H230351   3.420   1.199  15.865 -0.2456  2.0953  1.7605
 2954TIP3   OH230352   5.602   1.128   5.559  0.1810  0.3030 -0.0200
 2954TIP3    H130353   5.577   1.050   5.608 -1.2695  0.1305 -1.0043
 2954TIP3    H230354   5.659   1.095   5.489  0.2463  0.2343  0.0663
 2955TIP3   OH230355   2.451   0.308   5.170  0.2660  0.2857 -0.4141
 2955TIP3    H130356   2.505   0.320   5.247  0.0249  0.0119 -0.2000
 2955TIP3    H230357   2.460   0.215   5.149  0.3023  0.3513 -0.6943
 2956TIP3   OH230358   3.265   4.065   0.677  0.1354 -0.1967  0.1283
 2956TIP3    H130359   3.330   4.134   0.689  1.3394 -0.8673 -2.1134
 2956TIP3    H230360   3.315   3.984   0.688 -0.7371 -0.7156  0.2908
 2957TIP3   OH230361   0.136   6.802  16.163  0.5366  0.5025  0.4243
 2957TIP3    H130362   0.064   6.793  16.226  1.8432  4.1485  2.6034
 2957TIP3    H230363   0.184   6.720  16.171 -2.3776 -1.3172  0.1443
 2958TIP3   OH230364   4.994   4.976   2.376 -0.1006  0.1432 -0.1482
 2958TIP3    H130365   4.982   4.882   2.390  0.8483  0.3072  1.9963
 2958TIP3    H230366   4.914   5.004   2.332 -0.7542 -1.5191 -0.0538
 2959TIP3   OH230367   1.639   0.755  13.907 -0.5320  1.2315 -0.2577
 2959TIP3    H130368   1.697   0.748  13.831 -0.1998  2.4434 -0.1376
 2959TIP3    H230369   1.559   0.793  13.872 -0.8810  0.4986 -0.2464
 2960TIP3   OH230370   2.815   4.740  14.642  0.1342 -0.0496  0.0537
 2960TIP3    H130371   2.903   4.714  14.616  0.3080 -0.7494  1.3121
 2960TIP3    H230372   2.768   4.752  14.559  1.6369  1.1414 -0.6351
 2961TIP3   OH230373   0.244   2.999   4.902 -0.5347  0.2206  0.7050
 2961TIP3    H130374   0.298   2.930   4.941  0.4290  0.6322  0.0995
 2961TIP3    H230375   0.229   3.061   4.974  1.3638  1.0546  0.3945
 2962TIP3   OH230376   2.443   1.228   1.313 -0.0585  0.3740 -0.1432
 2962TIP3    H130377   2.505   1.155   1.308 -0.3408  0.1377 -0.2336
 2962TIP3    H230378   2.392   1.212   1.393 -0.4695  0.1872 -0.4384
 2963TIP3   OH230379   2.610   6.335   3.959 -0.0327 -0.3619  0.0420
 2963TIP3    H130380   2.536   6.315   3.900  0.3519 -0.6571 -0.3445
 2963TIP3    H230381   2.687   6.333   3.902  0.0124  2.4876 -0.0768
 2964TIP3   OH230382   5.742   2.217  14.828  0.3600 -0.1828 -0.4556
 2964TIP3    H130383   5.699   2.303  14.833 -0.6128 -0.5651 -1.9966
 2964TIP3    H230384   5.836   2.238  14.820  0.2306  0.7138  0.3068
 2965TIP3   OH230385   1.486   0.696   4.686  0.3826 -0.1602 -0.3472
 2965TIP3    H130386   1.562   0.666   4.636  0.4644 -0.7502  0.1268
 2965TIP3    H230387   1.477   0.788   4.663  2.2619  0.3534  0.8705
 2966TIP3   OH230388   5.629   3.369   0.688 -0.2441  0.4253  0.4994
 2966TIP3    H130389   5.634   3.326   0.774  0.1493  1.4050  0.9726
 2966TIP3    H230390   5.588   3.304   0.631 -0.9804 -0.0445  1.5564
 2967TIP3   OH230391   2.900   2.512  15.047 -0.0248 -0.4177 -0.4434
 2967TIP3    H130392   2.819   2.461  15.052  0.9299 -2.0262 -0.9897
 2967TIP3    H230393   2.872   2.599  15.019 -1.5560 -0.9876 -0.7289
 2968TIP3   OH230394   1.523   3.674  12.979 -0.1063  0.3727 -0.0151
 2968TIP3    H130395   1.586   3.707  13.042 -0.1684 -1.3911  0.9932
 2968TIP3    H230396   1.571   3.607  12.929 -0.5700  0.5018 -0.6449
 2969TIP3   OH230397   3.336   4.322  11.097 -0.1219  0.3001 -0.2197
 2969TIP3    H130398   3.292   4.378  11.034 -0.0756  0.8060  0.1939
 2969TIP3    H230399   3.388   4.382  11.151  0.8158 -0.2491 -0.4865
 2970TIP3   OH230400   1.561   0.161  12.719  0.0089  0.4632  0.1047
 2970TIP3    H130401   1.515   0.240  12.748  2.9483  1.9823  0.8626
 2970TIP3    H230402   1.599   0.185  12.634 -0.1377 -0.5875 -0.2681
 2971TIP3   OH230403   4.834   0.974   1.233  0.7086 -0.1947 -0.1442
 2971TIP3    H130404   4.817   1.064   1.261 -0.3178 -1.0346  2.0583
 2971TIP3    H230405   4.748   0.941   1.207  0.8063 -1.0033  0.5272
 2972TIP3   OH230406   1.486   6.153  11.383  0.7440 -0.4119  0.1566
 2972TIP3    H130407   1.475   6.103  11.464  0.8153 -1.8444 -0.6968
 2972TIP3    H230408   1.532   6.233  11.410  1.6501 -1.3244  1.3849
 2973TIP3   OH230409   6.696   5.894  11.970  0.2830  0.2877  0.7421
 2973TIP3    H130410   6.721   5.921  12.059  0.6127 -0.3261  0.8410
 2973TIP3    H230411   6.662   5.805  11.981 -0.1830  0.4158  0.3296
 2974TIP3   OH230412   1.234   0.815   2.844 -0.0475  0.2753 -0.8880
 2974TIP3    H130413   1.234   0.885   2.779  0.8278  0.9227 -0.2172
 2974TIP3    H230414   1.145   0.813   2.878 -1.0876 -1.4876 -3.5675
 2975TIP3   OH230415   2.671   4.255  12.916  0.4158 -0.4719 -0.0085
 2975TIP3    H130416   2.599   4.254  12.853 -0.1486 -3.9039  0.6166
 2975TIP3    H230417   2.640   4.203  12.990  2.3398  0.6970  1.6951
 2976TIP3   OH230418   1.728   4.425  10.980 -0.2714  0.6037  0.9045
 2976TIP3    H130419   1.664   4.470  10.925  0.4217 -0.0034 -0.4133
 2976TIP3    H230420   1.812   4.467  10.959  0.5057 -1.8151 -0.9173
 2977TIP3   OH230421   1.310   5.284   5.243 -0.5358  0.2846  0.6096
 2977TIP3    H130422   1.231   5.267   5.294 -0.8902 -0.5182 -0.1894
 2977TIP3    H230423   1.297   5.236   5.161  2.2465 -2.6695  1.7878
 2978TIP3   OH230424   3.480   0.542  17.154 -0.1480 -0.3254  0.1162
 2978TIP3    H130425   3.488   0.636  17.169 -0.2286 -0.4682  1.0866
 2978TIP3    H230426   3.386   0.525  17.151 -0.1362 -0.4237  0.2716
 2979TIP3   OH230427   2.093   5.739  16.437  0.4415  0.2523  0.3003
 2979TIP3    H130428   2.013   5.792  16.440 -0.5334 -1.0353 -1.7662
 2979TIP3    H230429   2.086   5.681  16.513  0.0670  1.0411  0.8759
 2980TIP3   OH230430   4.098   2.524  13.678 -0.0691  0.1924  0.8328
 2980TIP3    H130431   4.193   2.532  13.663 -0.2242 -0.5910 -0.5992
 2980TIP3    H230432   4.082   2.430  13.680 -0.4664  0.2873  3.4586
 2981TIP3   OH230433   5.029   5.446   0.828 -0.1484  0.1334 -0.1167
 2981TIP3    H130434   5.029   5.542   0.833 -1.7182  0.1221  0.4859
 2981TIP3    H230435   4.937   5.424   0.812  0.3710 -1.2309 -1.2846
 2982TIP3   OH230436   4.371   2.364   2.976  0.1925  1.0419  0.4174
 2982TIP3    H130437   4.386   2.366   3.070  1.1913  2.7232  0.2349
 2982TIP3    H230438   4.332   2.449   2.956 -1.0442  0.2629 -0.5228
 2983TIP3   OH230439   6.677   5.864  16.215 -0.2016  0.4675 -0.0906
 2983TIP3    H130440   6.610   5.885  16.150 -1.7510 -1.0446  0.9791
 2983TIP3    H230441   6.729   5.795  16.175 -0.4512  0.3189 -0.1578
 2984TIP3   OH230442   5.878   1.893  15.822 -0.0648 -0.4555  0.1131
 2984TIP3    H130443   5.867   1.802  15.849 -0.6087 -0.4084  0.0514
 2984TIP3    H230444   5.789   1.926  15.814  0.1350  0.1239  0.2752
 2985TIP3   OH230445   1.317   6.644   3.073  0.3576 -0.8346 -0.2186
 2985TIP3    H130446   1.366   6.569   3.039  1.6714  0.1159 -0.4327
 2985TIP3    H230447   1.383   6.712   3.088 -0.6159 -0.2184  1.3921
 2986TIP3   OH230448   3.036   1.021  11.470  0.5784 -0.1950  0.0675
 2986TIP3    H130449   2.977   0.959  11.428 -1.0927  2.2245 -1.2782
 2986TIP3    H230450   3.123   0.984  11.458 -0.5046 -3.1017  0.7981
 2987TIP3   OH230451   4.163   3.220  13.574  0.1044 -0.4747  0.1689
 2987TIP3    H130452   4.170   3.129  13.602  0.0182 -0.7162 -0.5967
 2987TIP3    H230453   4.073   3.228  13.542  0.3497 -0.3182 -0.4782
 2988TIP3   OH230454   0.517   1.689  14.400  0.1186 -0.3254 -0.2180
 2988TIP3    H130455   0.609   1.687  14.375 -0.3960  0.9347 -2.3478
 2988TIP3    H230456   0.498   1.601  14.430  1.9744 -0.6379  0.0844
 2989TIP3   OH230457   5.600   5.157  12.365  0.2539  0.2751 -0.0555
 2989TIP3    H130458   5.637   5.196  12.445 -0.1026 -1.1505  0.8329
 2989TIP3    H230459   5.582   5.066  12.389  2.0404 -0.7422 -2.3953
 2990TIP3   OH230460   4.908   6.808  15.183 -0.2926 -0.4498 -0.4641
 2990TIP3    H130461   4.956   6.889  15.166 -2.2440  1.1953  1.4844
 2990TIP3    H230462   4.854   6.796  15.106 -1.6705  1.4022  0.1650
 2991TIP3   OH230463   4.714   5.239  12.393  0.3563  0.1647 -0.2141
 2991TIP3    H130464   4.737   5.250  12.301 -0.3030 -1.2540 -0.5696
 2991TIP3    H230465   4.740   5.321  12.435  2.3748  0.1382 -1.3187
 2992TIP3   OH230466   4.978   1.820  16.657 -0.8277  0.4463 -0.0846
 2992TIP3    H130467   4.998   1.812  16.564 -4.1049  0.4460 -0.8424
 2992TIP3    H230468   4.892   1.780  16.667 -0.5107  0.3921  2.9640
 2993TIP3   OH230469   5.331   0.520  16.162 -0.1089  0.1591 -1.0249
 2993TIP3    H130470   5.417   0.500  16.199 -0.8663 -0.5048  0.4168
 2993TIP3    H230471   5.295   0.435  16.138 -0.7072  0.3649 -0.8474
 2994TIP3   OH230472   4.338   4.811   1.046 -0.1220 -0.3789  0.0423
 2994TIP3    H130473   4.433   4.805   1.043 -0.0308 -0.3785  2.3785
 2994TIP3    H230474   4.309   4.763   0.969  1.7259 -1.6257  0.0958
 2995TIP3   OH230475   4.051   2.401  13.350  0.6102 -0.7833 -0.2637
 2995TIP3    H130476   4.126   2.451  13.320  0.8644 -0.1593  1.3531
 2995TIP3    H230477   4.089   2.324  13.393  0.3143 -0.8356 -0.0895
 2996TIP3   OH230478   4.737   0.786   4.748  0.4002  0.1774  0.2988
 2996TIP3    H130479   4.772   0.873   4.726 -0.1700  0.3828  0.2047
 2996TIP3    H230480   4.706   0.751   4.664  1.2684 -0.4045  0.2190
 2997TIP3   OH230481   5.284   2.548   3.874  0.3097  0.2647  0.3010
 2997TIP3    H130482   5.268   2.487   3.802 -2.2101  0.0508  0.9731
 2997TIP3    H230483   5.278   2.635   3.834  3.1556  0.1291 -0.5153
 2998TIP3   OH230484   1.955   3.559   3.848 -0.2318  0.1481  0.2816
 2998TIP3    H130485   1.939   3.577   3.756 -0.5302  0.0817  0.3204
 2998TIP3    H230486   1.968   3.464   3.853  2.2900  0.4399 -0.0653
 2999TIP3   OH230487   3.923   1.410   2.150  0.0868  0.3759 -0.4821
 2999TIP3    H130488   3.983   1.353   2.102  0.3070 -0.9498  1.2926
 2999TIP3    H230489   3.945   1.498   2.121  3.2546 -0.0389  0.4929
 3000TIP3   OH230490   2.096   5.111   4.291 -0.3950  0.2490  0.1575
 3000TIP3    H130491   2.117   5.107   4.384  0.1414  0.5713  0.0524
 3000TIP3    H230492   2.173   5.150   4.251 -0.2512 -0.7672 -0.5483
 3001TIP3   OH230493   5.172   1.988  12.746 -0.0174  0.5300  0.6411
 3001TIP3    H130494   5.092   2.032  12.716  0.9797  0.9540 -1.4709
 3001TIP3    H230495   5.146   1.896  12.755 -0.7961  0.7033  0.2028
 3002TIP3   OH230496   5.196   5.382  14.468  0.2016 -0.4500 -1.0571
 3002TIP3    H130497   5.117   5.335  14.444  0.6508  0.3953 -4.5394
 3002TIP3    H230498   5.266   5.317  14.458 -0.1119 -1.7323  3.8092
 3003TIP3   OH230499   4.715   2.901   5.263  0.4184 -0.8306  0.3726
 3003TIP3    H130500   4.790   2.945   5.222 -0.3837  2.2604  2.0534
 3003TIP3    H230501   4.638   2.940   5.220 -0.2974 -2.2847  0.3018
 3004TIP3   OH230502   4.531   3.520  11.382  0.0283  0.0651 -0.0336
 3004TIP3    H130503   4.535   3.609  11.418  0.1266  0.5442 -1.2247
 3004TIP3    H230504   4.619   3.485  11.397 -0.6141 -0.6049  2.3683
 3005TIP3   OH230505   5.936   1.306  13.923 -0.8293 -0.6549 -0.1400
 3005TIP3    H130506   6.008   1.368  13.930 -0.3742 -1.1879 -0.1084
 3005TIP3    H230507   5.924   1.294  13.829  0.3168 -1.9468 -0.1369
 3006TIP3   OH230508   4.150   1.106  15.210  0.5847  0.2607  0.2530
 3006TIP3    H130509   4.169   1.013  15.200 -0.7717  0.0003 -0.0491
 3006TIP3    H230510   4.200   1.133  15.287  1.7316 -0.4922 -0.2207
 3007TIP3   OH230511   0.752   4.017   2.980  0.3678  0.4821  0.0289
 3007TIP3    H130512   0.822   4.075   2.952  0.3463  0.1980 -0.6165
 3007TIP3    H230513   0.779   3.930   2.949 -0.2446  0.3669 -0.1885
 3008TIP3   OH230514   4.773   2.814  16.678  0.3940  0.1149  0.4603
 3008TIP3    H130515   4.861   2.850  16.674  0.0239  1.2016  1.7923
 3008TIP3    H230516   4.721   2.881  16.723 -1.3806  0.0195 -1.3665
 3009TIP3   OH230517   5.314   1.654  14.001  0.1188 -0.3042 -0.2841
 3009TIP3    H130518   5.369   1.577  14.016  0.3527 -0.1079 -0.1066
 3009TIP3    H230519   5.307   1.695  14.088  1.3390  0.7581 -0.6645
 3010TIP3   OH230520   4.564   0.845  15.206  0.3258 -0.0363 -0.4922
 3010TIP3    H130521   4.644   0.836  15.155  1.1269  0.1995  0.7187
 3010TIP3    H230522   4.581   0.918  15.265 -1.4948  1.3126 -1.5563
 3011TIP3   OH230523   1.111   0.301  13.310  0.1933 -0.1623  0.2114
 3011TIP3    H130524   1.051   0.230  13.286 -0.6358  0.5631  0.1367
 3011TIP3    H230525   1.134   0.343  13.228  1.6895 -1.1307  0.1192
 3012TIP3   OH230526   5.976   4.561  13.754  0.4755  0.1765  0.4827
 3012TIP3    H130527   6.009   4.472  13.754 -2.3757 -0.9409 -0.3137
 3012TIP3    H230528   5.899   4.558  13.812  0.8842  2.3304  1.1938
 3013TIP3   OH230529   0.890   5.972   2.680  0.6691 -0.0823 -0.0195
 3013TIP3    H130530   0.947   6.010   2.613  0.6329 -0.5380 -0.3092
 3013TIP3    H230531   0.802   5.994   2.651  0.6686  0.0548  0.0843
 3014TIP3   OH230532   1.171   1.490   3.767  0.0133 -0.5886  0.1771
 3014TIP3    H130533   1.168   1.574   3.722  3.4951  0.7151  2.2192
 3014TIP3    H230534   1.122   1.504   3.848 -0.2990 -0.8594  0.0377
 3015TIP3   OH230535   1.756   6.425  13.880  0.6413  0.0356 -0.4484
 3015TIP3    H130536   1.851   6.431  13.869  0.7305 -0.3735  0.0836
 3015TIP3    H230537   1.739   6.331  13.888  0.2515  0.1425 -0.0264
 3016TIP3   OH230538   6.702   3.414  10.940  0.1671 -0.4120 -0.1353
 3016TIP3    H130539   6.633   3.349  10.950 -0.9116  0.5126 -1.2842
 3016TIP3    H230540   6.663   3.495  10.972  1.0455 -0.0601  0.0682
 3017TIP3   OH230541   1.898   6.698   1.860 -0.6098 -0.1033 -0.3266
 3017TIP3    H130542   1.960   6.641   1.905 -2.4292 -2.3856 -0.5924
 3017TIP3    H230543   1.851   6.742   1.931 -0.0914  0.0458 -0.0798
 3018TIP3   OH230544   2.285   1.232  13.423 -0.1338 -0.1065 -0.5095
 3018TIP3    H130545   2.380   1.224  13.434 -0.3099 -1.4219  0.1827
 3018TIP3    H230546   2.271   1.225  13.328  0.4780  0.3965 -0.6402
 3019TIP3   OH230547   3.206   3.374   2.711  0.4921  0.0772  0.7072
 3019TIP3    H130548   3.248   3.307   2.657 -0.3184 -0.6409  0.9667
 3019TIP3    H230549   3.231   3.457   2.669  1.4940 -0.3763  0.3885
 3020TIP3   OH230550   3.602   0.828   2.880 -0.9430 -1.1071  0.4339
 3020TIP3    H130551   3.633   0.748   2.837 -0.5689 -1.2566  0.9769
 3020TIP3    H230552   3.591   0.891   2.809 -1.6972 -1.7861 -0.0612
 3021TIP3   OH230553   0.784   2.303  13.183 -0.3351 -0.2512 -0.0507
 3021TIP3    H130554   0.756   2.385  13.143  0.6304 -0.3203 -0.8896
 3021TIP3    H230555   0.739   2.235  13.133 -0.4233 -0.2737  0.0576
 3022TIP3   OH230556   2.064   0.779  14.493  0.0276  0.0849 -0.1941
 3022TIP3    H130557   1.973   0.761  14.516  0.3307 -0.1545  0.8547
 3022TIP3    H230558   2.114   0.751  14.570  0.9750  0.3312 -0.7109
 3023TIP3   OH230559   3.276   2.242  11.570  0.0323  0.3974 -0.5331
 3023TIP3    H130560   3.317   2.294  11.501  1.2728 -1.3620 -1.1480
 3023TIP3    H230561   3.345   2.226  11.634 -0.7645  0.8878  0.4722
 3024TIP3   OH230562   0.830   0.424   5.431  0.8586  0.0893  0.3007
 3024TIP3    H130563   0.899   0.477   5.390  1.2633 -0.3186  0.4544
 3024TIP3    H230564   0.813   0.354   5.368 -1.5017  1.8474 -1.0848
 3025TIP3   OH230565   3.027   1.076   3.097  0.3732  0.1035  0.2354
 3025TIP3    H130566   3.009   1.043   3.185  1.4617  0.5827  0.6382
 3025TIP3    H230567   3.018   1.171   3.104 -3.3136 -0.0381 -1.0444
 3026TIP3   OH230568   3.099   6.395  15.499  0.0734 -0.2685  0.3982
 3026TIP3    H130569   3.190   6.392  15.469  0.4988  0.4714  1.6013
 3026TIP3    H230570   3.079   6.488  15.507 -1.2196 -0.4019 -1.1260
 3027TIP3   OH230571   0.909   0.059   2.297  0.0934  0.7316 -0.0323
 3027TIP3    H130572   0.887  -0.023   2.253 -0.3280 -0.3723  2.1896
 3027TIP3    H230573   0.873   0.127   2.239 -1.1009 -0.7036 -1.0105
 3028TIP3   OH230574   4.839   1.033   0.165  0.4648 -0.2445  0.7716
 3028TIP3    H130575   4.746   1.026   0.188 -0.0722  1.6032 -0.6481
 3028TIP3    H230576   4.851   1.125   0.142  1.8265 -1.1399 -2.3999
 3029TIP3   OH230577   5.229   1.952   5.318 -0.3128 -0.4439 -0.4469
 3029TIP3    H130578   5.209   1.990   5.233  0.5066 -0.6369 -0.7300
 3029TIP3    H230579   5.266   2.024   5.369 -0.8304 -0.3210 -0.2373
 3030TIP3   OH230580   4.632   5.367  16.242  0.0549  0.1766 -0.4340
 3030TIP3    H130581   4.657   5.276  16.232 -0.6779  0.0485 -1.1925
 3030TIP3    H230582   4.664   5.409  16.162 -0.1944  0.4495 -0.3905
 3031TIP3   OH230583   1.116   2.381  15.379 -0.0966 -0.0570 -0.3225
 3031TIP3    H130584   1.086   2.433  15.304 -0.3467  0.0307 -0.1648
 3031TIP3    H230585   1.201   2.347  15.352  1.2281  2.4536  0.4851
 3032TIP3   OH230586   1.946   4.853   1.594 -0.1877  0.0807  0.3578
 3032TIP3    H130587   1.935   4.772   1.643  0.6362  0.0489  0.5006
 3032TIP3    H230588   2.003   4.907   1.649  1.4368 -0.2840 -0.9407
 3033TIP3   OH230589   4.254   3.620   2.404  0.0099  0.2417 -0.3490
 3033TIP3    H130590   4.320   3.607   2.471 -0.8564  0.3239  0.5286
 3033TIP3    H230591   4.303   3.626   2.322  0.9441 -1.6297  0.0494
 3034TIP3   OH230592   6.334   1.246   3.601 -0.2967  0.0149  0.0511
 3034TIP3    H130593   6.321   1.152   3.613  2.0148 -0.1574  1.6026
 3034TIP3    H230594   6.340   1.257   3.506 -2.7614 -1.0494 -0.2717
 3035TIP3   OH230595   2.192   0.630   4.900  0.1114 -0.4046  0.0391
 3035TIP3    H130596   2.239   0.659   4.978 -0.9953  0.2621  0.4834
 3035TIP3    H230597   2.180   0.709   4.848 -1.5889 -0.2996  0.5358
 3036TIP3   OH230598   2.714   1.483  16.603  0.1642 -0.1828  0.5496
 3036TIP3    H130599   2.646   1.539  16.639 -0.4896 -0.7707  0.2258
 3036TIP3    H230600   2.780   1.478  16.672 -0.0349  0.5167  0.7965
 3037TIP3   OH230601   3.134   2.350   0.415 -0.0449  0.2687 -0.0325
 3037TIP3    H130602   3.090   2.322   0.495  2.1967  0.6594  1.3796
 3037TIP3    H230603   3.173   2.270   0.379 -0.9733  0.1084 -0.6830
 3038TIP3   OH230604   4.139   1.375   5.217  0.5554 -0.0218  0.1887
 3038TIP3    H130605   4.218   1.385   5.271  0.4468 -0.8227  0.4993
 3038TIP3    H230606   4.099   1.294   5.247 -0.7325  0.6990  0.4582
 3039TIP3   OH230607   2.823   4.298   5.309  0.3004 -1.0302  0.0359
 3039TIP3    H130608   2.810   4.228   5.373  0.8202 -1.0264  0.1489
 3039TIP3    H230609   2.888   4.355   5.349  0.0070 -0.5714 -0.1327
 3040TIP3   OH230610   2.865   4.017   2.046 -0.1423  0.4134  0.0732
 3040TIP3    H130611   2.840   3.934   2.007  0.4689  0.7010 -0.9626
 3040TIP3    H230612   2.942   3.996   2.100  0.4055  0.4292 -0.7065
 3041TIP3   OH230613   3.144   0.239  11.650  0.1657  0.3659  0.2454
 3041TIP3    H130614   3.214   0.301  11.630  1.1470 -0.5215  0.8825
 3041TIP3    H230615   3.112   0.210  11.564  2.0146 -0.8123 -0.0648
 3042TIP3   OH230616   5.864   0.410  17.163 -0.6490  0.2307  0.0382
 3042TIP3    H130617   5.803   0.428  17.092 -0.2347  2.5153  0.2073
 3042TIP3    H230618   5.948   0.445  17.132 -0.3054  0.6040  1.3468
 3043TIP3   OH230619   5.319   3.082   2.155  0.4537  0.1817 -0.6498
 3043TIP3    H130620   5.248   3.126   2.200 -0.0171 -0.3215 -0.8853
 3043TIP3    H230621   5.291   3.080   2.063  0.8147  0.0695 -0.7570
 3044TIP3   OH230622   2.242   5.133  16.632 -0.4068  0.3690 -0.2262
 3044TIP3    H130623   2.254   5.148  16.538 -0.2231  1.1645 -0.0810
 3044TIP3    H230624   2.262   5.217  16.672 -2.9715  0.7738  0.3132
 3045TIP3   OH230625   4.566   1.069  16.202  0.2150  0.1398  0.6395
 3045TIP3    H130626   4.573   0.980  16.237  1.3025 -0.6900 -1.5568
 3045TIP3    H230627   4.657   1.099  16.196  0.0795  0.1607 -1.6048
 3046TIP3   OH230628   3.280   6.646   3.137 -0.0512  0.8988 -0.3665
 3046TIP3    H130629   3.253   6.707   3.068 -0.8057  0.9272 -0.0475
 3046TIP3    H230630   3.228   6.568   3.122  0.4116  0.5863 -0.3499
 3047TIP3   OH230631   3.791   4.948   5.061  0.0761 -0.3974 -0.3382
 3047TIP3    H130632   3.797   5.043   5.070  0.1449 -0.2603 -1.7286
 3047TIP3    H230633   3.860   4.925   4.998  0.6598 -1.4753  0.6795
 3048TIP3   OH230634   6.047   2.780  16.273  0.0653 -0.5836  0.1728
 3048TIP3    H130635   5.958   2.745  16.281 -0.0450 -0.8657 -1.8252
 3048TIP3    H230636   6.058   2.837  16.349 -2.5392  1.0096 -0.5762
 3049TIP3   OH230637   4.418   4.549   5.170  0.5436 -0.4871  0.4544
 3049TIP3    H130638   4.500   4.597   5.156 -0.3007  1.2429  1.3269
 3049TIP3    H230639   4.411   4.542   5.266 -1.1833  0.9256  0.4628
 3050TIP3   OH230640   0.561   6.343  16.576 -0.1529  0.3208  0.1771
 3050TIP3    H130641   0.480   6.301  16.605  0.2567 -0.3652  0.3301
 3050TIP3    H230642   0.532   6.419  16.525 -0.8945 -0.4738 -0.5920
 3051TIP3   OH230643   4.118   4.940   1.837  0.0034 -0.1033  0.4046
 3051TIP3    H130644   4.030   4.979   1.843  0.3097  0.9102 -1.2738
 3051TIP3    H230645   4.135   4.935   1.743  2.1012  0.5006  0.7236
 3052TIP3   OH230646   5.344   1.142   0.019  0.3208  0.0728 -0.6325
 3052TIP3    H130647   5.397   1.174   0.092 -1.6983 -0.3596  1.0689
 3052TIP3    H230648   5.316   1.221  -0.026 -2.8478  0.7364  2.2740
 3053TIP3   OH230649   5.094   3.932   1.978  0.0761  0.1864  0.0491
 3053TIP3    H130650   5.022   3.876   2.005  1.0393  0.0085  2.3701
 3053TIP3    H230651   5.173   3.883   2.000  0.9380  0.6753 -1.8126
 3054TIP3   OH230652   2.346   4.202  11.137  0.3278 -0.6515 -0.1892
 3054TIP3    H130653   2.257   4.171  11.155  0.7143 -2.2133 -0.8863
 3054TIP3    H230654   2.333   4.287  11.095 -0.7203  0.5389  2.4487
 3055TIP3   OH230655   4.417   6.671   3.891  0.4781 -0.3223  0.4814
 3055TIP3    H130656   4.509   6.665   3.915  0.5275 -0.6488  0.2115
 3055TIP3    H230657   4.417   6.701   3.800  0.3778 -2.3713 -0.2180
 3056TIP3   OH230658   0.844   4.334  14.967 -0.4167 -0.2905 -0.7283
 3056TIP3    H130659   0.895   4.414  14.951  0.0137 -0.2283  0.8926
 3056TIP3    H230660   0.880   4.270  14.905 -0.8378  0.7831 -2.1179
 3057TIP3   OH230661   4.491   2.938   4.621 -0.4186  0.2368  0.2593
 3057TIP3    H130662   4.415   2.985   4.658  0.7004  1.3757  1.1941
 3057TIP3    H230663   4.506   2.866   4.682  0.0979  0.8366  0.8482
 3058TIP3   OH230664   1.656   6.202   0.638 -0.2171 -0.0513  0.0801
 3058TIP3    H130665   1.596   6.248   0.697 -0.4477 -0.6810  0.3415
 3058TIP3    H230666   1.639   6.110   0.655  3.0011 -0.3166  2.4236
 3059TIP3   OH230667   0.829   2.216   6.362  0.1383 -0.1147 -0.7153
 3059TIP3    H130668   0.922   2.219   6.339  0.1197 -0.8394 -0.8985
 3059TIP3    H230669   0.783   2.239   6.281  0.1615  0.2544 -0.6223
 3060TIP3   OH230670   0.345   0.265   1.270 -0.1453 -0.8970  0.1342
 3060TIP3    H130671   0.378   0.267   1.180  1.3065  0.8862  0.6760
 3060TIP3    H230672   0.417   0.298   1.323 -2.0478  1.0011  1.6185
 3061TIP3   OH230673   0.085   4.456   4.058 -0.1549 -0.4411 -0.7277
 3061TIP3    H130674   0.176   4.459   4.028 -1.0937  1.3617 -3.6274
 3061TIP3    H230675   0.065   4.545   4.086 -1.4456 -0.4574 -1.5322
 3062TIP3   OH230676   2.583   0.249   0.077  0.6789 -0.3967  0.0480
 3062TIP3    H130677   2.562   0.180   0.015  1.2815  0.4273 -1.0877
 3062TIP3    H230678   2.522   0.236   0.150 -0.2301 -1.1800 -0.8500
 3063TIP3   OH230679   1.415   4.231   5.317  0.6747 -0.6425  0.1020
 3063TIP3    H130680   1.328   4.242   5.356  0.3366  0.3255 -0.9195
 3063TIP3    H230681   1.398   4.207   5.226  1.4519  2.2048 -0.8454
 3064TIP3   OH230682   2.080   5.844   4.671  0.3981 -0.2574  0.1815
 3064TIP3    H130683   2.166   5.832   4.632  0.4151 -1.8900  0.7148
 3064TIP3    H230684   2.020   5.796   4.614  0.1518 -0.9999  1.0507
 3065TIP3   OH230685   5.193   4.430  10.816 -0.0146 -0.0183 -0.2568
 3065TIP3    H130686   5.222   4.369  10.748 -0.0017  0.0835 -0.3437
 3065TIP3    H230687   5.266   4.490  10.827  0.2066 -0.3836  0.2593
 3066TIP3   OH230688   5.874   4.830  15.591 -0.3852 -0.0455 -0.2274
 3066TIP3    H130689   5.880   4.879  15.509 -2.3135  2.2019  0.9363
 3066TIP3    H230690   5.926   4.880  15.654 -3.0259  1.0270  1.1737
 3067TIP3   OH230691   0.842   3.386  16.752  0.0999  0.1919  0.7023
 3067TIP3    H130692   0.758   3.431  16.740 -0.0798  0.2125  1.9117
 3067TIP3    H230693   0.907   3.448  16.720 -0.4392 -0.4182 -1.6297
 3068TIP3   OH230694   2.613   1.121   6.165 -0.7520  0.1536 -0.1041
 3068TIP3    H130695   2.518   1.133   6.178 -0.8363 -0.0388 -0.5458
 3068TIP3    H230696   2.645   1.208   6.142 -0.8134  0.2299  0.0948
 3069TIP3   OH230697   0.575   3.796   1.792 -0.4141 -0.1608  0.2046
 3069TIP3    H130698   0.628   3.810   1.713  0.6061  0.1523  0.9275
 3069TIP3    H230699   0.600   3.709   1.823 -2.2858 -1.1178 -0.9105
 3070TIP3   OH230700   0.068   3.039  13.568  0.2313 -0.2051  0.2065
 3070TIP3    H130701   0.002   3.103  13.594 -0.7062 -0.9981 -0.2269
 3070TIP3    H230702   0.147   3.066  13.615 -1.4588 -1.7580  4.1492
 3071TIP3   OH230703   3.259   5.850   5.597 -0.1544  0.4034  0.5636
 3071TIP3    H130704   3.244   5.938   5.634  2.4300  0.9833  0.2731
 3071TIP3    H230705   3.263   5.865   5.502  1.8907  0.2296  0.6134
 3072TIP3   OH230706   4.731   1.985   5.224 -0.2580 -0.5181 -0.2811
 3072TIP3    H130707   4.755   1.998   5.316 -0.4327  0.5059 -0.3830
 3072TIP3    H230708   4.794   2.038   5.175 -1.3818  0.4901 -0.6536
 3073TIP3   OH230709   1.442   4.329   2.455  0.1611 -0.2784 -0.0761
 3073TIP3    H130710   1.463   4.406   2.402 -0.3430  0.1322  0.3174
 3073TIP3    H230711   1.457   4.255   2.396 -0.8472  0.1916 -0.9377
 3074TIP3   OH230712   4.783   4.363  14.695  0.0950 -0.6187 -0.4072
 3074TIP3    H130713   4.825   4.437  14.651 -1.8423  0.3895 -0.6080
 3074TIP3    H230714   4.692   4.391  14.707 -0.2810 -2.3603  0.9163
 3075TIP3   OH230715   5.860   4.253  16.649 -0.0448 -0.0052  0.0724
 3075TIP3    H130716   5.883   4.213  16.733  2.0077 -0.7042 -0.7971
 3075TIP3    H230717   5.775   4.216  16.627  0.8673 -2.2984  0.3055
 3076TIP3   OH230718   0.069   1.634   2.455  0.3283 -0.2973 -0.0098
 3076TIP3    H130719   0.047   1.582   2.377  1.3251 -0.0517 -0.4601
 3076TIP3    H230720   0.139   1.584   2.498 -0.0941 -0.3391  0.6367
 3077TIP3   OH230721   3.936   4.255  12.734  0.0232 -0.1330 -0.1430
 3077TIP3    H130722   4.032   4.259  12.734  0.0906 -1.5196 -0.2625
 3077TIP3    H230723   3.912   4.280  12.823  0.5018  0.1807 -0.0977
 3078TIP3   OH230724   1.305   6.168   2.947 -0.4402 -0.1888  0.4139
 3078TIP3    H130725   1.270   6.108   2.881  0.9750 -1.0065  0.3787
 3078TIP3    H230726   1.315   6.114   3.025 -1.0976  0.5101  0.9807
 3079TIP3   OH230727   1.584   4.333   4.997  0.0329  0.0910  0.1055
 3079TIP3    H130728   1.673   4.329   4.961 -0.3732 -1.0453 -0.7839
 3079TIP3    H230729   1.565   4.244   5.025 -0.7785  0.3592  0.4294
 3080TIP3   OH230730   4.363   2.813  17.136  0.0183 -0.1054 -0.5544
 3080TIP3    H130731   4.292   2.801  17.199  0.2830 -1.7448 -0.5322
 3080TIP3    H230732   4.335   2.885  17.080 -0.1636  1.4665  1.5128
 3081TIP3   OH230733   5.726   1.443   0.862 -0.0687  0.5329  0.0563
 3081TIP3    H130734   5.692   1.495   0.789 -1.0603  0.9944  0.8300
 3081TIP3    H230735   5.648   1.418   0.912  0.3134 -2.3396 -0.7018
 3082TIP3   OH230736   1.619   0.307   3.641 -0.7478 -0.0171  0.1312
 3082TIP3    H130737   1.662   0.389   3.665 -0.6780 -0.1111  0.3276
 3082TIP3    H230738   1.612   0.311   3.546  0.3542 -0.3258  0.0316
 3083TIP3   OH230739   3.096   2.312  10.838  0.7279 -0.0999 -0.7518
 3083TIP3    H130740   3.169   2.258  10.865  0.0896 -0.6583 -0.1298
 3083TIP3    H230741   3.045   2.257  10.779  1.1117  0.4809 -1.6350
 3084TIP3   OH230742   2.186   1.784  14.983 -0.0125  0.7417 -0.3979
 3084TIP3    H130743   2.097   1.788  15.017  0.1052 -0.2188  0.0563
 3084TIP3    H230744   2.241   1.814  15.056  0.0563  1.0803 -0.5878
 3085TIP3   OH230745   4.199   2.701   1.712  0.1036  0.3279 -0.2431
 3085TIP3    H130746   4.214   2.793   1.691  0.7631  0.1067 -0.7625
 3085TIP3    H230747   4.286   2.666   1.729  0.0907 -0.6809 -2.0429
 3086TIP3   OH230748   2.828   0.913   2.847  0.1343  0.4385  0.1279
 3086TIP3    H130749   2.879   0.994   2.853  0.8714  0.1215 -1.4349
 3086TIP3    H230750   2.765   0.930   2.777 -0.5029  0.0740  0.6105
 3087TIP3   OH230751   3.068   5.659  13.939 -0.2635 -0.1479 -0.2204
 3087TIP3    H130752   2.975   5.642  13.956 -0.5206 -0.6048 -1.9828
 3087TIP3    H230753   3.068   5.735  13.880  0.4288 -0.7950 -1.0693
 3088TIP3   OH230754   1.869   3.696   2.371 -0.1720 -0.7774  0.1474
 3088TIP3    H130755   1.948   3.690   2.318  0.6436  0.5628  1.1813
 3088TIP3    H230756   1.898   3.673   2.460 -1.0039 -0.5512  0.4849
 3089TIP3   OH230757   2.143   1.096  13.936  0.2534 -0.5808 -0.0589
 3089TIP3    H130758   2.215   1.077  13.997  0.2549 -0.8827 -0.1580
 3089TIP3    H230759   2.083   1.023  13.946 -0.0156 -0.3544 -0.0170
 3090TIP3   OH230760   0.214   0.275   4.193 -0.0709  0.1769  0.1707
 3090TIP3    H130761   0.308   0.262   4.188 -0.1048 -0.3479  0.7579
 3090TIP3    H230762   0.199   0.311   4.280 -0.3142  1.1990 -0.2926
 3091TIP3   OH230763   3.109   2.514   4.483 -0.1949 -0.1656 -0.9952
 3091TIP3    H130764   3.031   2.497   4.537 -0.0168  1.0272 -0.3486
 3091TIP3    H230765   3.179   2.467   4.528 -0.5523 -1.3429 -1.6441
 3092TIP3   OH230766   6.243   1.518  15.189 -0.1912 -0.6425  0.3072
 3092TIP3    H130767   6.209   1.570  15.262 -1.6178  0.0284 -0.8227
 3092TIP3    H230768   6.336   1.541  15.185  0.4218 -2.2774  3.2404
 3093TIP3   OH230769   6.401   3.438  17.085  0.0931  0.2366 -0.1015
 3093TIP3    H130770   6.413   3.533  17.091 -0.5566  0.4423 -1.6428
 3093TIP3    H230771   6.484   3.406  17.050 -0.0761  0.3808 -0.6471
 3094TIP3   OH230772   1.454   0.112  12.211  0.6841  0.4050  0.4102
 3094TIP3    H130773   1.412   0.029  12.192 -0.0132  1.1073 -1.1175
 3094TIP3    H230774   1.543   0.103  12.176 -0.2480  1.2898 -2.3187
 3095TIP3   OH230775   5.113   4.443   4.286  0.3637  0.2901  0.0703
 3095TIP3    H130776   5.148   4.512   4.230 -1.2434  0.0537 -1.2272
 3095TIP3    H230777   5.029   4.477   4.317  0.5699 -0.1849  1.1843
 3096TIP3   OH230778   3.077   3.589  11.499  0.4956  0.0073 -0.1103
 3096TIP3    H130779   3.052   3.633  11.580  2.5952  0.9105  0.0694
 3096TIP3    H230780   3.000   3.597  11.442  0.0300  1.8431  0.7571
 3097TIP3   OH230781   1.077   4.615   2.281 -0.4343 -0.0966 -0.7934
 3097TIP3    H130782   1.134   4.542   2.256 -1.0623 -1.0815  0.5488
 3097TIP3    H230783   1.126   4.693   2.257  0.6813 -0.9526 -1.3544
 3098TIP3   OH230784   6.449   5.902   3.445  0.3582  0.0165 -1.2570
 3098TIP3    H130785   6.427   5.990   3.413 -1.2570  0.5092  1.1250
 3098TIP3    H230786   6.364   5.859   3.458  1.1076 -1.5320 -1.3646
 3099TIP3   OH230787   1.380   2.874   5.997  0.4437 -0.4236 -0.1205
 3099TIP3    H130788   1.319   2.923   5.942  0.5491 -2.7262 -2.4225
 3099TIP3    H230789   1.328   2.848   6.073 -0.2641  1.1818 -0.0488
 3100TIP3   OH230790   2.151   3.270   4.778 -0.2859 -0.2664  0.4658
 3100TIP3    H130791   2.242   3.245   4.795 -0.0468  0.0970 -0.2521
 3100TIP3    H230792   2.130   3.225   4.696  0.4093  2.5093 -1.2832
 3101TIP3   OH230793   3.027   2.498   4.233  0.1234  0.0507  0.5500
 3101TIP3    H130794   3.097   2.507   4.297 -0.0875 -1.8756  1.0978
 3101TIP3    H230795   2.957   2.453   4.280 -0.9259  0.6793 -0.3843
 3102TIP3   OH230796   4.936   4.928  13.719 -0.2990  0.0065 -0.5354
 3102TIP3    H130797   4.989   4.993  13.673 -0.8017 -1.0271 -2.6386
 3102TIP3    H230798   4.998   4.883  13.776  0.7484  0.0221 -1.6275
 3103TIP3   OH230799   4.171   4.470  15.712 -0.5445  0.5681  0.2522
 3103TIP3    H130800   4.244   4.500  15.768  0.6202 -3.5127  1.0752
 3103TIP3    H230801   4.178   4.524  15.633  2.0324  1.7784  1.2412
 3104TIP3   OH230802   6.432   3.301  10.904 -0.3120 -0.4053  0.0259
 3104TIP3    H130803   6.347   3.341  10.925 -0.7161 -0.8304 -0.8051
 3104TIP3    H230804   6.431   3.290  10.809  1.1033  0.5540 -0.1148
 3105TIP3   OH230805   5.662   2.246  11.125  0.1414  0.6318  0.2482
 3105TIP3    H130806   5.581   2.207  11.159  0.4032 -0.0264  0.1197
 3105TIP3    H230807   5.719   2.171  11.107  0.6200  1.0707 -0.0727
 3106TIP3   OH230808   4.551   1.745   4.086 -0.1933 -0.1053 -0.2941
 3106TIP3    H130809   4.579   1.761   4.176 -1.3393 -0.5381  0.1404
 3106TIP3    H230810   4.550   1.831   4.046 -1.6652  0.3403  0.6838
 3107TIP3   OH230811   3.022   6.284  15.244 -0.0421  0.4989  0.1257
 3107TIP3    H130812   3.027   6.352  15.311  1.1666 -0.2697  0.8500
 3107TIP3    H230813   3.060   6.324  15.166  0.1209  0.8441  0.3808
 3108TIP3   OH230814   3.474   3.295   2.875  0.0226 -0.1337 -0.0164
 3108TIP3    H130815   3.384   3.316   2.850 -0.1411  0.4737  1.0627
 3108TIP3    H230816   3.528   3.337   2.808 -0.4362  0.8846  0.2553
 3109TIP3   OH230817   3.239   6.145   1.918 -0.0813  0.3545 -0.4871
 3109TIP3    H130818   3.183   6.222   1.927  2.4174  1.9932  2.1110
 3109TIP3    H230819   3.222   6.094   1.997  1.4461  0.4708 -0.0647
 3110TIP3   OH230820   4.831   3.626  14.260  0.2361 -0.1340  0.0938
 3110TIP3    H130821   4.864   3.678  14.187  1.3670 -0.7872  0.1290
 3110TIP3    H230822   4.774   3.561  14.219  2.1146 -1.5090 -0.3932
 3111TIP3   OH230823   2.991   4.417   5.504 -0.6578  0.2506 -0.0117
 3111TIP3    H130824   3.069   4.472   5.489 -0.7618  0.8752  1.6613
 3111TIP3    H230825   2.967   4.433   5.595  0.0217 -3.5332  0.9107
 3112TIP3   OH230826   2.807   2.335   4.370  1.1934  0.0757  0.2860
 3112TIP3    H130827   2.837   2.347   4.461  0.8607 -1.3122  0.5875
 3112TIP3    H230828   2.716   2.364   4.372  1.1259 -0.1440  0.4444
 3113TIP3   OH230829   6.009   2.349  14.153  0.3525 -0.6274  0.1899
 3113TIP3    H130830   5.995   2.315  14.242 -1.3233 -0.3452  0.0552
 3113TIP3    H230831   6.050   2.434  14.166 -1.7248  0.3312  0.8144
 3114TIP3   OH230832   0.072   0.827   3.019  0.0693  0.5919  0.2376
 3114TIP3    H130833   0.051   0.822   2.926  0.2492  2.3350  0.0947
 3114TIP3    H230834   0.018   0.899   3.052 -0.3097 -0.2791  1.5783
 3115TIP3   OH230835   6.034   5.385   6.130  0.1994 -0.2017 -0.4277
 3115TIP3    H130836   6.015   5.466   6.178 -1.2990 -0.5144 -0.4634
 3115TIP3    H230837   6.005   5.315   6.189  0.7282 -0.6860 -0.7354
 3116TIP3   OH230838   6.806   6.000  11.726 -0.2761 -0.2145 -0.7703
 3116TIP3    H130839   6.869   5.965  11.789 -1.2023  2.0875  1.5308
 3116TIP3    H230840   6.722   5.998  11.773 -1.7697 -2.2453 -3.4183
 3117TIP3   OH230841   4.424   4.843   5.800 -0.0618 -0.6474 -0.4336
 3117TIP3    H130842   4.485   4.904   5.759  0.0718  0.7858  1.7932
 3117TIP3    H230843   4.342   4.893   5.807 -0.4478 -1.3158 -0.1275
 3118TIP3   OH230844   0.908   1.277  11.914 -0.6955  0.2374  0.0478
 3118TIP3    H130845   0.916   1.188  11.948  0.5905  0.2499 -0.2060
 3118TIP3    H230846   0.915   1.333  11.991 -2.0295  0.1190  0.2771
 3119TIP3   OH230847   6.664   1.784   1.191 -0.6678  0.1218 -0.0991
 3119TIP3    H130848   6.654   1.694   1.158 -1.1707  0.3417 -0.5488
 3119TIP3    H230849   6.642   1.778   1.284  1.0176 -0.5535  0.2736
 3120TIP3   OH230850   0.114   5.423  10.768  0.2503 -0.4593 -0.5492
 3120TIP3    H130851   0.048   5.354  10.776 -1.5094  1.1245 -1.0289
 3120TIP3    H230852   0.075   5.486  10.707  1.4916  1.3208  0.4675
 3121TIP3   OH230853   3.268   4.737  16.793  0.3603  0.0873 -0.2012
 3121TIP3    H130854   3.301   4.660  16.838  0.9352  0.0964 -0.5952
 3121TIP3    H230855   3.267   4.806  16.860  0.1305 -0.1836  0.0762
 3122TIP3   OH230856   4.240   0.090   0.068  0.2303 -0.0258 -0.7843
 3122TIP3    H130857   4.267   0.128  -0.015  0.2114  0.2593 -0.6638
 3122TIP3    H230858   4.293   0.136   0.133  1.6103 -1.5814 -0.7910
 3123TIP3   OH230859   1.590   0.341  13.569  0.3103 -0.0759 -0.0194
 3123TIP3    H130860   1.592   0.356  13.664  0.4612  1.7853 -0.2994
 3123TIP3    H230861   1.499   0.318  13.551  0.1367  0.1973  0.4912
 3124TIP3   OH230862   0.553   1.676   3.319 -0.3097 -0.1988  0.1856
 3124TIP3    H130863   0.500   1.756   3.322  0.7668  0.5023  0.4844
 3124TIP3    H230864   0.581   1.669   3.227  1.3442  0.9131  0.5978
 3125TIP3   OH230865   5.420   4.463   2.471  0.2470  0.3555  0.7675
 3125TIP3    H130866   5.449   4.550   2.496  0.9735  0.0988  0.8299
 3125TIP3    H230867   5.381   4.474   2.384 -0.1790  0.8354  1.0167
 3126TIP3   OH230868   0.226   0.965  10.441 -0.5654  0.1981 -0.0913
 3126TIP3    H130869   0.171   0.908  10.387 -1.6263 -0.8230  1.9904
 3126TIP3    H230870   0.178   1.048  10.444 -0.9240 -0.0122 -0.0098
 3127TIP3   OH230871   2.711   0.018   2.808  0.0106  0.2163 -0.2067
 3127TIP3    H130872   2.746   0.069   2.881 -1.4372 -1.0146  1.3848
 3127TIP3    H230873   2.772  -0.056   2.800  1.5631  1.6258 -1.8893
 3128TIP3   OH230874   5.314   5.744  14.918  0.1683  0.0522 -0.5199
 3128TIP3    H130875   5.372   5.784  14.854  0.1619 -1.2715 -1.3870
 3128TIP3    H230876   5.372   5.712  14.987  0.1431  1.8109  0.3543
 3129TIP3   OH230877   1.393   6.239   6.359  0.5379  0.0594 -0.4509
 3129TIP3    H130878   1.402   6.159   6.411  1.6914  0.9387  0.7562
 3129TIP3    H230879   1.482   6.275   6.354  0.0234  1.3129 -0.8845
 3130TIP3   OH230880   0.060   1.268  14.645 -0.4809  0.4653 -0.6436
 3130TIP3    H130881   0.104   1.217  14.712 -0.6445  0.7927 -0.2835
 3130TIP3    H230882   0.022   1.342  14.692  1.2534  1.8774 -1.3912
 3131TIP3   OH230883   6.389   6.425   0.800 -0.2485 -0.3068  0.2478
 3131TIP3    H130884   6.468   6.380   0.773 -1.4633 -2.4227  0.1260
 3131TIP3    H230885   6.350   6.369   0.867 -0.6990  1.6164  1.6485
 3132TIP3   OH230886   4.833   5.578   5.610 -0.3624  0.0996 -0.2732
 3132TIP3    H130887   4.886   5.514   5.657  0.4726  1.2959  0.4405
 3132TIP3    H230888   4.744   5.544   5.614 -0.2728  0.0503  1.9727
 3133TIP3   OH230889   3.883   2.254  14.051  0.2462  0.0777  0.0847
 3133TIP3    H130890   3.857   2.215  13.967  0.2203  0.7939 -0.2403
 3133TIP3    H230891   3.833   2.335  14.056 -1.1588 -0.8394  1.6484
 3134TIP3   OH230892   2.768   4.677   2.457 -0.0493 -0.1839  0.0111
 3134TIP3    H130893   2.783   4.665   2.363 -0.4284  1.2753 -0.2498
 3134TIP3    H230894   2.702   4.746   2.462 -0.0248 -0.2437  1.3626
 3135TIP3   OH230895   1.762   0.654   3.344  0.0535  0.1645  0.2220
 3135TIP3    H130896   1.685   0.661   3.288 -0.9998  1.9317  1.8320
 3135TIP3    H230897   1.809   0.577   3.311 -1.5548  0.0025 -1.7882
 3136TIP3   OH230898   2.604   6.173   0.059  0.2693 -0.1608  0.1987
 3136TIP3    H130899   2.533   6.123   0.100  0.4148 -1.1749 -0.7598
 3136TIP3    H230900   2.628   6.122  -0.018  1.1686  0.8419 -0.2030
 3137TIP3   OH230901   6.397   2.947  15.687  0.2723 -0.3275  0.2196
 3137TIP3    H130902   6.456   3.022  15.692  0.6820 -0.5897 -0.5502
 3137TIP3    H230903   6.313   2.980  15.718  0.0310  0.8882 -1.6207
 3138TIP3   OH230904   6.064   6.788   1.443  0.1799  0.1142 -0.3535
 3138TIP3    H130905   6.121   6.826   1.510  0.9464 -1.1695 -0.2589
 3138TIP3    H230906   6.122   6.775   1.367 -0.5506  1.0343 -1.0870
 3139TIP3   OH230907   4.247   6.490   1.515  0.1735 -0.5642 -0.4659
 3139TIP3    H130908   4.188   6.531   1.577  0.1718  1.0022 -1.4940
 3139TIP3    H230909   4.333   6.526   1.535  0.3214 -0.7288 -0.7883
 3140TIP3   OH230910   0.724   1.137  14.529 -0.0798 -0.1470 -0.1535
 3140TIP3    H130911   0.717   1.053  14.576 -0.3589  0.3438  0.7060
 3140TIP3    H230912   0.634   1.170  14.527 -0.0984 -0.2474 -1.2161
 3141TIP3   OH230913   0.586   4.219   0.977 -0.0204 -0.2417  0.7667
 3141TIP3    H130914   0.578   4.311   0.951  0.2898  0.0509  1.6865
 3141TIP3    H230915   0.638   4.221   1.058  1.4743 -1.3731 -0.1451
 3142TIP3   OH230916   4.376   5.383  16.355  0.2483  0.1532 -0.2238
 3142TIP3    H130917   4.464   5.409  16.329  1.6825 -1.0698  3.1758
 3142TIP3    H230918   4.382   5.288  16.367 -1.8528 -0.1178 -0.9890
 3143TIP3   OH230919   2.126   6.069   2.846  0.2031 -0.4978 -0.3541
 3143TIP3    H130920   2.041   6.026   2.853 -0.1808  0.1422 -0.9343
 3143TIP3    H230921   2.119   6.146   2.904  0.6030 -0.7816  0.0722
 3144TIP3   OH230922   1.314   6.498  16.226  0.2182 -0.2815 -0.0142
 3144TIP3    H130923   1.286   6.541  16.306  0.8879  0.0641  0.0304
 3144TIP3    H230924   1.409   6.490  16.234  0.4576  0.9774 -1.3631
 3145TIP3   OH230925   2.022   3.174  15.554  0.2783  0.2946  0.0753
 3145TIP3    H130926   1.991   3.224  15.630  1.1394  1.7557 -0.5157
 3145TIP3    H230927   1.993   3.084  15.571  0.3712  0.6191  2.0747
 3146TIP3   OH230928   6.051   3.971  15.634  0.1662  0.1259 -0.0395
 3146TIP3    H130929   6.070   3.923  15.714  1.2830  0.7085  0.0709
 3146TIP3    H230930   6.127   3.954  15.578  0.8850  2.2367  0.2520
 3147TIP3   OH230931   4.651   2.444  15.662  0.6190  0.1815  0.0402
 3147TIP3    H130932   4.736   2.460  15.703  0.8917  0.5271 -0.6523
 3147TIP3    H230933   4.631   2.353  15.684  1.2640  0.0359  0.0366
 3148TIP3   OH230934   1.094   2.430  14.386 -0.0262 -0.2332  0.3696
 3148TIP3    H130935   1.027   2.366  14.407  0.3948 -0.7239  0.2294
 3148TIP3    H230936   1.048   2.497  14.335 -0.0554 -1.4531 -1.2704
 3149TIP3   OH230937   6.776   0.441   2.383  0.4372  0.1390 -1.3630
 3149TIP3    H130938   6.719   0.457   2.308  2.1154 -0.1157 -2.7363
 3149TIP3    H230939   6.818   0.357   2.364  0.3897 -0.2629  0.2035
 3150TIP3   OH230940   4.486   0.599   2.020  0.6040 -0.6687  0.5095
 3150TIP3    H130941   4.401   0.618   1.980  0.0552 -2.7619  0.5924
 3150TIP3    H230942   4.522   0.685   2.042  0.0173  0.4377 -2.5906
 3151TIP3   OH230943   2.823   2.848  16.357  0.4733  0.1175 -0.3648
 3151TIP3    H130944   2.748   2.902  16.381  0.5660  0.2409 -0.3571
 3151TIP3    H230945   2.796   2.759  16.379  0.3642  0.1727 -0.2760
 3152TIP3   OH230946   4.632   5.406   2.069  0.0192  0.5548 -0.9009
 3152TIP3    H130947   4.596   5.378   1.985 -0.3580 -1.1720 -0.1910
 3152TIP3    H230948   4.558   5.400   2.130  0.1498  2.3270 -0.5520
 3153TIP3   OH230949   0.487   1.583   0.720  0.2607 -0.0478 -0.2036
 3153TIP3    H130950   0.526   1.503   0.755 -0.5998 -0.1717  0.4831
 3153TIP3    H230951   0.394   1.563   0.711  0.0168  0.9157  0.1048
 3154TIP3   OH230952   3.486   2.794  16.773 -0.0377 -0.1998 -0.1363
 3154TIP3    H130953   3.508   2.704  16.796  2.0889  0.1391 -0.7454
 3154TIP3    H230954   3.432   2.824  16.846  0.7318 -1.3926  0.9491
 3155TIP3   OH230955   3.853   2.478  12.637 -0.4899 -0.8201 -0.0093
 3155TIP3    H130956   3.914   2.466  12.710  0.0863 -3.2496 -0.8442
 3155TIP3    H230957   3.886   2.555  12.591 -0.3239  0.1841  1.7490
 3156TIP3   OH230958   6.127   1.864   0.500 -0.2482  0.0362  0.3843
 3156TIP3    H130959   6.126   1.769   0.509 -0.3859  0.0326  0.3412
 3156TIP3    H230960   6.044   1.892   0.540 -0.2790  0.1243  0.2589
 3157TIP3   OH230961   6.348   2.843   3.552  0.2332  0.5111  0.2757
 3157TIP3    H130962   6.322   2.897   3.626  1.2888  1.4992 -0.0556
 3157TIP3    H230963   6.299   2.879   3.478  0.9272  1.0292  0.0580
 3158TIP3   OH230964   5.587   6.481   4.075  0.0655  0.3416  0.1672
 3158TIP3    H130965   5.496   6.490   4.102  0.0345 -2.1832  1.0505
 3158TIP3    H230966   5.638   6.496   4.155  0.3148  0.0338  0.0713
 3159TIP3   OH230967   4.592   2.512  13.028 -0.0077 -0.5623  0.0867
 3159TIP3    H130968   4.539   2.485  12.952  0.2889  0.6255 -0.5521
 3159TIP3    H230969   4.562   2.455  13.099 -0.5321 -1.4565 -0.8390
 3160TIP3   OH230970   1.566   4.504   0.156 -0.5844  0.0866 -0.1098
 3160TIP3    H130971   1.552   4.598   0.141 -0.1457 -0.1203 -1.9552
 3160TIP3    H230972   1.659   4.497   0.176 -0.6565  0.0654  0.2182
 3161TIP3   OH230973   0.695   0.885  14.689  0.4212 -0.0133  0.1790
 3161TIP3    H130974   0.732   0.805  14.652 -0.1804  0.0117 -0.4783
 3161TIP3    H230975   0.604   0.863  14.709 -0.6023  1.3076 -2.6589
 3162TIP3   OH230976   2.824   1.194   0.929  0.0506 -0.5733  0.2280
 3162TIP3    H130977   2.756   1.255   0.955 -0.6197 -0.6254 -1.3368
 3162TIP3    H230978   2.878   1.183   1.007 -0.3997  1.2383  0.8172
 3163TIP3   OH230979   5.270   4.654   4.663  0.0065 -0.4511  0.1310
 3163TIP3    H130980   5.262   4.648   4.758  1.5538 -1.7834  0.1894
 3163TIP3    H230981   5.331   4.726   4.648 -0.4465 -0.0639  0.1242
 3164TIP3   OH230982   2.514   4.197  16.641 -0.3735 -0.5758 -0.2549
 3164TIP3    H130983   2.554   4.274  16.600 -1.0296  1.0339  2.0299
 3164TIP3    H230984   2.459   4.159  16.573 -0.1431  1.0642 -1.3654
 3165TIP3   OH230985   0.350   3.400   5.175  0.3868  0.2492  0.4496
 3165TIP3    H130986   0.296   3.427   5.100  1.8042  0.6741 -0.4383
 3165TIP3    H230987   0.409   3.474   5.190  0.8564 -0.2898  1.2894
 3166TIP3   OH230988   0.861   5.552   3.374 -0.3653  0.1222 -0.3559
 3166TIP3    H130989   0.851   5.458   3.359 -0.0315 -0.2230  1.4972
 3166TIP3    H230990   0.774   5.582   3.401 -0.0168 -0.0460  0.9996
 3167TIP3   OH230991   0.090   3.194   4.411 -0.2719 -0.2503  0.0852
 3167TIP3    H130992   0.097   3.104   4.379 -0.7290 -0.4498  0.5360
 3167TIP3    H230993   0.091   3.185   4.507  2.9767  0.4688  0.1755
 3168TIP3   OH230994   5.977   5.414  14.187 -0.0901 -0.1894 -0.0766
 3168TIP3    H130995   6.029   5.487  14.153 -1.0499 -0.0800 -1.3391
 3168TIP3    H230996   6.037   5.339  14.188  0.8400  0.5557  1.0454
 3169TIP3   OH230997   5.183   2.910  15.576 -0.2252  0.0552 -0.3199
 3169TIP3    H130998   5.180   2.891  15.483 -1.6557 -0.1635 -0.2449
 3169TIP3    H230999   5.169   3.005  15.582  1.3850  0.3058 -0.4012
 3170TIP3   OH231000   5.384   1.558  14.622  0.6456  0.1838  0.2422
 3170TIP3    H131001   5.310   1.617  14.640  0.0902  0.0577 -1.5908
 3170TIP3    H231002   5.448   1.613  14.578  1.6361  0.2610  1.7154
 3171TIP3   OH231003   6.091   2.924  10.505  0.0431 -0.6645 -0.2152
 3171TIP3    H131004   6.067   2.958  10.591  0.3933 -0.9038 -0.0259
 3171TIP3    H231005   6.100   2.830  10.517 -0.0883 -0.7233 -0.5570
 3172TIP3   OH231006   4.312   1.255   4.100 -0.3185  0.2529  0.1178
 3172TIP3    H131007   4.352   1.179   4.141 -0.7974 -0.7438 -1.2091
 3172TIP3    H231008   4.370   1.328   4.122 -0.3792 -0.3121  2.2242
 3173TIP3   OH231009   5.723   1.299  16.586 -0.0441 -0.3715  0.0196
 3173TIP3    H131010   5.786   1.364  16.553 -0.9772 -0.2418 -1.5693
 3173TIP3    H231011   5.746   1.287  16.678  0.4240  1.9032  0.2246
 3174TIP3   OH231012   2.459   4.544  16.951 -0.0427  0.2589  0.0137
 3174TIP3    H131013   2.465   4.448  16.961 -0.0681  0.4681  2.3672
 3174TIP3    H231014   2.371   4.565  16.980 -0.1478  0.9830 -0.8258
 3175TIP3   OH231015   1.972   3.495  15.734 -0.3803 -0.2344 -0.0942
 3175TIP3    H131016   1.884   3.521  15.708  0.1924  0.4497 -1.3621
 3175TIP3    H231017   1.961   3.407  15.772 -1.6558  0.0135  0.1248
 3176TIP3   OH231018   0.767   6.506   1.123 -0.0407 -0.0423 -0.2975
 3176TIP3    H131019   0.682   6.549   1.121 -0.2945 -0.5640 -2.2748
 3176TIP3    H231020   0.776   6.474   1.213 -0.7370  2.3166  0.6539
 3177TIP3   OH231021   4.374   0.097  13.972  0.8340 -0.3825  0.0069
 3177TIP3    H131022   4.350   0.024  13.915  1.2146 -0.1971 -0.3972
 3177TIP3    H231023   4.344   0.175  13.925 -1.2143 -0.3728  1.2785
 3178TIP3   OH231024   1.935   5.289  15.280 -0.3935 -0.3201 -1.1483
 3178TIP3    H131025   1.945   5.254  15.369 -0.4896  1.0172 -0.6071
 3178TIP3    H231026   2.015   5.263  15.235  0.2812  0.2317 -0.2613
 3179TIP3   OH231027   0.979   5.211   1.497 -0.5653 -0.2877  0.1428
 3179TIP3    H131028   0.915   5.273   1.460  0.1977  1.0967  1.0942
 3179TIP3    H231029   1.044   5.267   1.539 -0.3907 -1.7651  1.8905
 3180TIP3   OH231030   3.326   0.413  11.901 -0.3038 -0.4807  0.4590
 3180TIP3    H131031   3.375   0.375  11.974 -1.1582  0.4928  1.5608
 3180TIP3    H231032   3.389   0.417  11.829  1.2276  0.6947  1.8291
 3181TIP3   OH231033   1.204   1.622  13.858 -0.1002 -0.2035  0.4108
 3181TIP3    H131034   1.219   1.682  13.932  2.4175 -0.2223 -0.0426
 3181TIP3    H231035   1.151   1.551  13.896  0.6169  0.1077  2.0649
 3182TIP3   OH231036   2.819   2.454  15.951  0.6291 -0.0593  0.2661
 3182TIP3    H131037   2.844   2.361  15.948  0.0676 -0.1880 -0.4161
 3182TIP3    H231038   2.899   2.501  15.929  1.0095 -0.3612  0.9574
 3183TIP3   OH231039   0.456   3.432   0.044 -0.0820  0.0561  0.3302
 3183TIP3    H131040   0.398   3.364   0.010 -0.4993  0.2601  0.6365
 3183TIP3    H231041   0.504   3.389   0.115 -0.6255  0.1942  0.7819
 3184TIP3   OH231042   3.458   2.259   0.161 -0.3040 -0.1034 -0.0632
 3184TIP3    H131043   3.396   2.274   0.090 -0.6767 -0.5516  0.1651
 3184TIP3    H231044   3.472   2.346   0.199  2.4249  0.7066 -2.7467
 3185TIP3   OH231045   1.332   6.403  11.210 -0.6783 -0.5243  0.1656
 3185TIP3    H131046   1.310   6.385  11.301 -1.3020  0.4351  0.2235
 3185TIP3    H231047   1.268   6.470  11.183  0.3236  0.1448 -0.5788
 3186TIP3   OH231048   3.340   3.324   1.041  0.6343  0.4864 -0.2963
 3186TIP3    H131049   3.268   3.325   1.104  1.1642  2.0140  0.2879
 3186TIP3    H231050   3.332   3.407   0.994  0.4592 -0.4781 -2.0209
 3187TIP3   OH231051   0.558   2.031   4.108  0.3652 -0.4244  0.8571
 3187TIP3    H131052   0.596   2.104   4.059 -0.4135 -0.0343  0.8238
 3187TIP3    H231053   0.466   2.055   4.118  0.1652 -1.2799  1.0796
 3188TIP3   OH231054   5.886   1.912   6.402 -0.5306 -0.0341 -0.4118
 3188TIP3    H131055   5.816   1.970   6.373 -0.5246  0.3598  0.3470
 3188TIP3    H231056   5.903   1.938   6.492  0.0108 -0.6944 -0.3162
 3189TIP3   OH231057   3.135   2.344  15.505  0.2611 -0.1512  0.3975
 3189TIP3    H131058   3.183   2.348  15.422 -0.9256  0.2568 -0.2752
 3189TIP3    H231059   3.102   2.433  15.517  0.0318 -0.3268  1.0728
 3190TIP3   OH231060   1.404   1.634   3.603 -0.3797  0.4220 -0.0246
 3190TIP3    H131061   1.363   1.716   3.632 -0.1097  1.0891 -1.5322
 3190TIP3    H231062   1.455   1.657   3.526  1.1943 -0.8221  0.6139
 3191TIP3   OH231063   6.156   1.256  15.145  1.0323 -0.1905  0.0661
 3191TIP3    H131064   6.111   1.241  15.228 -0.0854 -2.9877 -0.9848
 3191TIP3    H231065   6.180   1.349  15.147 -1.9733  0.6209  2.0525
 3192TIP3   OH231066   1.676   0.791   0.840 -0.0540  0.7562  0.0480
 3192TIP3    H131067   1.606   0.763   0.898 -0.3773  0.7436 -0.3441
 3192TIP3    H231068   1.659   0.884   0.824  0.9826  1.1722  1.2980
 3193TIP3   OH231069   6.562   3.066   3.619 -0.0735 -0.2025  0.2782
 3193TIP3    H131070   6.502   3.141   3.626  0.8036  0.5783 -0.3372
 3193TIP3    H231071   6.519   3.007   3.557 -0.6599 -0.1024  0.5832
 3194TIP3   OH231072   1.667   4.952  14.065  0.1804 -0.4885 -0.2237
 3194TIP3    H131073   1.621   5.008  14.128  3.7703  1.8835  0.4255
 3194TIP3    H231074   1.662   4.864  14.104  0.2794  0.5247  2.1816
 3195TIP3   OH231075   4.342   3.132   0.850 -0.0400 -0.6960 -0.1794
 3195TIP3    H131076   4.292   3.161   0.774 -0.2178  1.0831  0.6002
 3195TIP3    H231077   4.413   3.080   0.812 -1.6503 -2.0865 -1.3795
 3196TIP3   OH231078   5.079   6.287  16.572  0.3684 -0.1707  0.5812
 3196TIP3    H131079   5.157   6.300  16.518  1.3970 -0.3469  1.9799
 3196TIP3    H231080   5.079   6.194  16.593  0.1522 -0.0517  1.1194
 3197TIP3   OH231081   3.267   3.208  12.559  0.2077 -0.0958 -0.0136
 3197TIP3    H131082   3.327   3.145  12.597  1.4619  1.2901  0.3559
 3197TIP3    H231083   3.324   3.271  12.514 -1.0502  0.3958 -0.9530
 3198TIP3   OH231084   0.870   2.714   4.729 -0.9496  0.1391 -0.6855
 3198TIP3    H131085   0.940   2.744   4.671 -1.0931  0.3018 -0.7736
 3198TIP3    H231086   0.835   2.794   4.768  0.9922 -0.1143  1.7747
 3199TIP3   OH231087   2.410   0.314  12.772  0.0390 -0.1712  0.4421
 3199TIP3    H131088   2.472   0.327  12.844  1.3695 -0.8652 -0.5470
 3199TIP3    H231089   2.459   0.342  12.694 -0.6380 -1.4274 -0.4361
 3200TIP3   OH231090   5.370   0.650   6.169  0.5260 -0.4674  0.4789
 3200TIP3    H131091   5.358   0.736   6.128  2.4061  0.4964  1.8712
 3200TIP3    H231092   5.341   0.662   6.259 -0.4256 -1.6664  0.3447
 3201TIP3   OH231093   4.410   1.752  15.159  0.6986  0.0968 -0.2317
 3201TIP3    H131094   4.323   1.719  15.139  1.0021  0.5546 -2.4028
 3201TIP3    H231095   4.429   1.719  15.247 -0.8791 -1.5836 -0.4998
 3202TIP3   OH231096   1.020   5.314   5.895  0.0513  0.1938  0.2971
 3202TIP3    H131097   0.946   5.320   5.955 -0.7968 -1.7058 -0.4853
 3202TIP3    H231098   1.096   5.301   5.951 -0.3965  0.7983  1.0487
 3203TIP3   OH231099   0.895   2.203  16.833  0.4664  0.1821  0.4063
 3203TIP3    H131100   0.806   2.238  16.823  0.5550  0.0372 -0.9247
 3203TIP3    H231101   0.949   2.281  16.850  0.6635  0.7478 -2.5603
 3204TIP3   OH231102   1.589   3.465   1.483  0.4933  0.3118  0.0642
 3204TIP3    H131103   1.598   3.550   1.440  1.3247  1.5089  2.5071
 3204TIP3    H231104   1.601   3.484   1.576  1.3635 -2.5800  0.5989
 3205TIP3   OH231105   2.300   0.075   3.925  0.3865 -0.0840 -0.3555
 3205TIP3    H131106   2.335  -0.008   3.955 -0.6383 -0.3962  0.0037
 3205TIP3    H231107   2.369   0.139   3.944  0.6622 -0.6459  0.5488
 3206TIP3   OH231108   6.679   5.781  13.607  0.2214 -0.0296 -0.5334
 3206TIP3    H131109   6.600   5.746  13.565  0.4823  0.6533 -1.6380
 3206TIP3    H231110   6.668   5.876  13.601 -0.1476  0.0888  1.7777
 3207TIP3   OH231111   3.843   3.100   6.649  0.1592 -0.5923  1.1252
 3207TIP3    H131112   3.860   3.110   6.743  0.8412  0.0648  0.9343
 3207TIP3    H231113   3.928   3.111   6.608 -0.7363  3.1246  0.1171
 3208TIP3   OH231114   1.096   0.420  15.914 -0.8872  0.1041 -0.0230
 3208TIP3    H131115   1.049   0.501  15.895  2.2771  1.9819 -0.3611
 3208TIP3    H231116   1.121   0.386  15.829 -0.0757  0.1394  0.1928
 3209TIP3   OH231117   6.392   6.610  14.245 -0.1325 -0.0075 -0.2085
 3209TIP3    H131118   6.409   6.518  14.263 -0.4928  0.0297  0.3368
 3209TIP3    H231119   6.456   6.634  14.178  0.3849 -0.4768  0.1192
 3210TIP3   OH231120   2.451   0.230  15.211 -0.4557  0.1688  0.9620
 3210TIP3    H131121   2.427   0.316  15.246  0.8289  0.1698  1.8832
 3210TIP3    H231122   2.438   0.239  15.116 -1.0263  1.1454  1.1213
 3211TIP3   OH231123   0.521   2.854  10.508 -0.7606 -0.4906  0.2310
 3211TIP3    H131124   0.455   2.786  10.518  0.2312 -1.1145  3.0105
 3211TIP3    H231125   0.604   2.806  10.500 -0.4571  0.3158 -1.8284
 3212TIP3   OH231126   6.050   2.798   3.079  0.1979  0.0523 -0.3289
 3212TIP3    H131127   6.114   2.738   3.042  2.1589  2.4596 -0.9495
 3212TIP3    H231128   6.004   2.835   3.003 -0.3970 -0.0144 -0.0068
 3213TIP3   OH231129   2.940   6.413  14.400 -0.1141  0.3298 -0.3410
 3213TIP3    H131130   2.937   6.473  14.326 -2.2519 -0.8119 -1.2559
 3213TIP3    H231131   3.005   6.450  14.459 -0.6495  2.9743 -1.3327
 3214TIP3   OH231132   6.230   4.365   0.826  0.0863  0.0968 -0.3120
 3214TIP3    H131133   6.143   4.330   0.846  0.2629 -0.5620 -0.7005
 3214TIP3    H231134   6.213   4.438   0.766 -0.1503 -0.4070 -0.8560
 3215TIP3   OH231135   5.962   3.293  16.007  0.2801 -0.5549 -0.0644
 3215TIP3    H131136   6.030   3.248  16.057  1.3589  0.8461 -0.2415
 3215TIP3    H231137   5.970   3.257  15.918 -0.3122 -1.5708  0.2743
 3216TIP3   OH231138   1.582   0.655  15.575 -0.7371  0.1757  0.3121
 3216TIP3    H131139   1.585   0.700  15.491 -2.5308  1.2662  0.8007
 3216TIP3    H231140   1.642   0.705  15.630  1.5905 -1.4415 -0.7238
 3217TIP3   OH231141   3.637   0.164  16.322 -0.2313 -0.0189 -0.7507
 3217TIP3    H131142   3.676   0.148  16.237 -1.5852 -1.5075 -1.1264
 3217TIP3    H231143   3.583   0.087  16.339 -1.4516  1.0864  0.6123
 3218TIP3   OH231144   0.927   4.779   0.516 -0.1546 -0.3305  0.2314
 3218TIP3    H131145   0.920   4.700   0.461 -0.2987 -0.8565  0.9907
 3218TIP3    H231146   0.898   4.850   0.460  0.9943 -0.6696 -0.8128
 3219TIP3   OH231147   4.828   4.944  14.250 -0.5125  0.2446 -0.2405
 3219TIP3    H131148   4.836   4.877  14.182  0.0139  2.0909 -2.0527
 3219TIP3    H231149   4.737   4.973  14.246 -0.6375 -0.0749  0.2664
 3220TIP3   OH231150   0.325   6.363  14.710 -0.1082 -0.0749  0.2475
 3220TIP3    H131151   0.405   6.365  14.657 -0.2023  0.9976  0.1296
 3220TIP3    H231152   0.339   6.430  14.777 -0.6710 -0.2825  0.5744
 3221TIP3   OH231153   6.289   5.067  14.549 -0.7700  0.0827  0.4148
 3221TIP3    H131154   6.304   4.973  14.536  1.6334  0.6626 -1.4685
 3221TIP3    H231155   6.355   5.092  14.614 -0.3314  0.7381 -0.2706
 3222TIP3   OH231156   1.808   3.886   0.741  0.8725 -0.0510 -0.2900
 3222TIP3    H131157   1.876   3.865   0.676  0.7875  2.1516 -1.1391
 3222TIP3    H231158   1.728   3.895   0.690  0.2927 -0.8649  0.4706
 3223TIP3   OH231159   3.918   1.981   5.944  0.2441 -0.3270  0.4871
 3223TIP3    H131160   3.953   1.922   6.011  0.0889  1.0490  1.7936
 3223TIP3    H231161   3.827   1.994   5.968  0.6430  1.5781  1.0451
 3224TIP3   OH231162   2.640   4.417   4.627  0.1778  0.4757 -0.7342
 3224TIP3    H131163   2.725   4.420   4.670  1.5899  0.0692 -3.3569
 3224TIP3    H231164   2.609   4.328   4.639 -0.2259  0.8237  0.8470
 3225TIP3   OH231165   1.505   5.947  11.605  0.4112  0.1828 -0.1119
 3225TIP3    H131166   1.451   5.910  11.675 -0.0294  1.1112  0.0474
 3225TIP3    H231167   1.497   5.884  11.533 -0.9885  0.3681 -0.1322
 3226TIP3   OH231168   4.907   1.152   4.120  0.0018 -0.5869 -0.0121
 3226TIP3    H131169   4.828   1.202   4.137  0.9083  0.6088  0.7994
 3226TIP3    H231170   4.913   1.147   4.024  0.2674  1.4786 -0.1130
 3227TIP3   OH231171   0.803   0.384  15.029  0.5496  0.6590  0.0916
 3227TIP3    H131172   0.781   0.462  14.978 -0.5281 -0.5418 -1.3197
 3227TIP3    H231173   0.823   0.317  14.963  0.8855 -0.4265  1.2665
 3228TIP3   OH231174   4.256   0.310  12.324 -0.2390  0.4108  0.1806
 3228TIP3    H131175   4.220   0.321  12.412 -0.5243 -0.5900  0.1889
 3228TIP3    H231176   4.350   0.298  12.337 -0.1613  1.1118  0.2867
 3229TIP3   OH231177   6.078   5.577   1.337 -0.3176 -0.3792  0.2953
 3229TIP3    H131178   6.091   5.596   1.244  1.3278 -3.3467 -0.1374
 3229TIP3    H231179   6.148   5.624   1.381  1.4148 -2.2556 -0.3929
 3230TIP3   OH231180   6.205   6.351  13.722  0.8404  0.2243  1.0551
 3230TIP3    H131181   6.116   6.341  13.758  0.7829 -1.2347  0.5452
 3230TIP3    H231182   6.199   6.430  13.667 -0.6474 -0.9008 -0.4480
 3231TIP3   OH231183   5.368   6.132   4.317  0.3858  0.3814  0.5294
 3231TIP3    H131184   5.283   6.157   4.353  0.0467  0.1006 -0.0668
 3231TIP3    H231185   5.365   6.036   4.316  0.0265  0.4072 -1.1169
 3232TIP3   OH231186   1.575   4.384  16.075  0.0133 -0.8460 -0.0971
 3232TIP3    H131187   1.486   4.360  16.050 -0.6891  0.5091  1.0585
 3232TIP3    H231188   1.568   4.474  16.106  1.8182 -0.6743 -0.1353
 3233TIP3   OH231189   0.942   2.980   1.788  0.3348 -0.8590 -0.3061
 3233TIP3    H131190   0.908   2.958   1.875 -1.6832  0.5384 -0.7103
 3233TIP3    H231191   0.865   3.010   1.739  1.5415 -1.1318 -2.4197
 3234TIP3   OH231192   3.500   5.232   1.570 -0.1096 -0.6322 -0.3443
 3234TIP3    H131193   3.471   5.141   1.567 -0.1431 -0.6570  0.6739
 3234TIP3    H231194   3.595   5.227   1.564 -0.1603 -0.6837 -1.1711
 3235TIP3   OH231195   0.413   2.838   6.330 -0.0211  0.6457 -0.2778
 3235TIP3    H131196   0.325   2.800   6.342 -0.7850  1.9438 -1.5859
 3235TIP3    H231197   0.425   2.893   6.407  0.8137 -1.6386  1.2944
 3236TIP3   OH231198   0.623   3.011   5.891 -0.0290  0.1140 -0.3707
 3236TIP3    H131199   0.619   2.995   5.985 -1.0028  0.1660 -0.3992
 3236TIP3    H231200   0.706   2.970   5.863 -0.1156 -0.5826  0.3755
 3237TIP3   OH231201   3.491   5.265   1.260  0.5925  0.2928 -0.3352
 3237TIP3    H131202   3.400   5.257   1.231  1.0476 -2.1108 -1.2196
 3237TIP3    H231203   3.490   5.233   1.350  1.0127 -2.5024 -1.2711
 3238TIP3   OH231204   2.523   3.791  15.816  0.0693  0.1373 -0.6884
 3238TIP3    H131205   2.563   3.871  15.851  0.2971 -0.0071 -0.6233
 3238TIP3    H231206   2.429   3.813  15.809  0.0899  0.3159 -0.4104
 3239TIP3   OH231207   6.103   1.356   3.724  0.3572 -0.1185 -0.0155
 3239TIP3    H131208   6.087   1.450   3.718  0.3360 -0.0816  0.5727
 3239TIP3    H231209   6.198   1.348   3.723  0.3471 -0.2651 -2.4621
 3240TIP3   OH231210   0.592   6.637  16.779  0.2989  0.3057 -0.3372
 3240TIP3    H131211   0.613   6.689  16.856  2.6334 -0.8113 -0.1742
 3240TIP3    H231212   0.564   6.552  16.814 -0.0702  0.2826 -0.6849
 3241TIP3   OH231213   0.122   1.107   0.362  0.3618  0.2300  0.2727
 3241TIP3    H131214   0.124   1.015   0.336 -0.5375  0.5515 -1.0238
 3241TIP3    H231215   0.046   1.114   0.420  0.2903  0.1973  0.1833
 3242TIP3   OH231216   1.208   3.463  11.264  0.3252  0.1504  0.2854
 3242TIP3    H131217   1.229   3.500  11.178  0.5662  0.9139  0.6693
 3242TIP3    H231218   1.217   3.368  11.252  2.0238  0.3383 -0.0936
 3243TIP3   OH231219   4.122   1.544  11.250  0.7187  0.1901  0.2152
 3243TIP3    H131220   4.076   1.469  11.214  0.2435  0.9257 -0.7163
 3243TIP3    H231221   4.178   1.575  11.179  0.5942  0.9870  0.4607
 3244TIP3   OH231222   1.134   6.780  15.794 -0.4666  0.2084 -0.3081
 3244TIP3    H131223   1.040   6.795  15.800 -0.7412 -1.7848  0.5613
 3244TIP3    H231224   1.156   6.732  15.874  0.5149 -3.1770 -2.5114
 3245TIP3   OH231225   6.050   0.539   0.387  0.3533  0.2183  0.3958
 3245TIP3    H131226   6.006   0.526   0.303  1.2756  1.8160 -0.3576
 3245TIP3    H231227   6.102   0.460   0.399 -0.3906 -0.3643 -0.1665
 3246TIP3   OH231228   5.657   5.500  12.747  0.1640  0.0356 -0.4283
 3246TIP3    H131229   5.696   5.577  12.706  0.6603  0.3435  0.6021
 3246TIP3    H231230   5.567   5.526  12.766  0.9455  1.1679  1.9392
 3247TIP3   OH231231   0.114   0.472   6.189 -0.5225  0.0684 -0.4172
 3247TIP3    H131232   0.020   0.459   6.202 -0.2375 -1.9568 -0.2395
 3247TIP3    H231233   0.151   0.471   6.277 -0.0121 -1.9825 -0.6290
 3248TIP3   OH231234   3.218   2.904   5.892 -0.2639 -0.7180  0.0686
 3248TIP3    H131235   3.128   2.922   5.918  0.5100  1.4195  1.3816
 3248TIP3    H231236   3.255   2.856   5.966  0.5575  1.1421  0.8810
 3249TIP3   OH231237   3.120   6.031  13.367  0.6364  0.1560  0.1680
 3249TIP3    H131238   3.036   6.069  13.343  1.4233  2.1319  0.4550
 3249TIP3    H231239   3.150   6.083  13.441  2.2876 -0.2698 -0.1710
 3250TIP3   OH231240   1.894   4.418   2.992  0.0138 -0.0659  0.1890
 3250TIP3    H131241   1.933   4.351   2.936 -0.9624 -2.6796  2.4708
 3250TIP3    H231242   1.849   4.477   2.932 -0.5766 -2.4813 -1.8357
 3251TIP3   OH231243   5.123   1.516   4.337  0.2102  0.3682 -0.1659
 3251TIP3    H131244   5.201   1.482   4.382 -0.7865  1.2845  2.3200
 3251TIP3    H231245   5.072   1.438   4.316  1.4082 -0.1816 -1.0949
 3252TIP3   OH231246   4.442   4.604  16.522  0.3595  0.7336  0.0425
 3252TIP3    H131247   4.383   4.531  16.541  0.1185  1.4253  2.0687
 3252TIP3    H231248   4.520   4.586  16.575  0.9781  1.1000 -0.7333
 3253TIP3   OH231249   2.601   0.998   3.860  0.1880  0.5522  0.0648
 3253TIP3    H131250   2.586   1.085   3.897  3.0552  0.9436  0.4367
 3253TIP3    H231251   2.687   1.004   3.819 -0.1709 -1.7330 -1.0777
 3254TIP3   OH231252   4.511   3.790  11.436  0.2716  1.0560  0.1586
 3254TIP3    H131253   4.544   3.871  11.397  0.0116  0.9102 -0.3734
 3254TIP3    H231254   4.496   3.812  11.528  2.9123  0.8162  0.7052
 3255TIP3   OH231255   3.879   2.484  16.142 -0.2667  0.0762 -0.0469
 3255TIP3    H131256   3.832   2.409  16.105 -4.0442  1.9253  0.7796
 3255TIP3    H231257   3.864   2.477  16.237  0.9214  0.8773  0.2109
 3256TIP3   OH231258   4.667   4.314   6.334 -0.6359  0.0909 -0.2960
 3256TIP3    H131259   4.699   4.376   6.400  0.7634  0.8907 -1.7092
 3256TIP3    H231260   4.706   4.344   6.252 -1.2570 -1.7208 -1.2675
 3257TIP3   OH231261   4.116   1.964   3.913  0.3261 -0.3434 -0.2710
 3257TIP3    H131262   4.118   2.047   3.866  1.5916 -0.0868  0.2061
 3257TIP3    H231263   4.121   1.897   3.844 -0.0009 -0.0162 -0.6152
 3258TIP3   OH231264   4.377   0.256   4.656  0.0062  0.1467 -0.2712
 3258TIP3    H131265   4.349   0.300   4.577 -1.3021  1.1687  0.7441
 3258TIP3    H231266   4.331   0.172   4.655 -4.0054  2.1903  1.8524
 3259TIP3   OH231267   2.403   3.497  15.701 -0.5498  0.2679 -0.0016
 3259TIP3    H131268   2.347   3.425  15.729 -1.6699  1.4498  0.8300
 3259TIP3    H231269   2.438   3.533  15.782  2.0170 -0.8878 -0.5325
 3260TIP3   OH231270   0.677   0.927   4.776 -0.0454  0.0933  0.2776
 3260TIP3    H131271   0.753   0.875   4.750 -0.3533 -0.6327  0.8333
 3260TIP3    H231272   0.614   0.863   4.810 -1.5121  0.4905 -1.5557
 3261TIP3   OH231273   0.441   5.172  16.165 -0.1704  0.8716  0.6379
 3261TIP3    H131274   0.401   5.180  16.251 -1.4954  1.2130  0.0081
 3261TIP3    H231275   0.405   5.245  16.114  0.7552  0.8036 -0.1437
 3262TIP3   OH231276   4.739   0.512  10.599 -0.4969 -0.1055 -0.0795
 3262TIP3    H131277   4.810   0.461  10.639 -1.2153 -1.0617 -0.0146
 3262TIP3    H231278   4.784   0.585  10.557  0.4575 -0.2286  0.6897
 3263TIP3   OH231279   5.732   4.959   4.244  0.4276  0.3668 -0.0440
 3263TIP3    H131280   5.648   4.978   4.286  0.1527  0.0585 -0.4559
 3263TIP3    H231281   5.725   4.867   4.217  0.9834  0.2732  0.1220
 3264TIP3   OH231282   0.594   4.557   4.823  0.3160 -0.5130  0.0891
 3264TIP3    H131283   0.649   4.503   4.765  0.2202  0.9887 -1.4487
 3264TIP3    H231284   0.657   4.601   4.880  0.7070  0.7745 -1.3013
 3265TIP3   OH231285   1.543   2.547   2.891 -0.3284  0.1982  0.2963
 3265TIP3    H131286   1.585   2.461   2.886  1.0683  0.8840 -0.0169
 3265TIP3    H231287   1.472   2.536   2.953 -1.7391 -1.8485 -1.5987
 3266TIP3   OH231288   2.303   6.647   0.351  0.1228  0.4867 -0.1969
 3266TIP3    H131289   2.372   6.671   0.289  0.8532 -1.9687 -0.3717
 3266TIP3    H231290   2.340   6.667   0.437 -0.1485  2.0497 -0.4199
 3267TIP3   OH231291   4.801   0.610   4.204 -0.6380 -0.1746  0.3865
 3267TIP3    H131292   4.827   0.622   4.112  1.6347  3.6011  1.4123
 3267TIP3    H231293   4.739   0.681   4.220  0.7547  0.6161  2.3901
 3268TIP3   OH231294   5.930   3.458   6.226  0.2170 -0.3223 -0.5676
 3268TIP3    H131295   5.897   3.478   6.313  1.0006 -2.0767  0.1398
 3268TIP3    H231296   5.988   3.532   6.205  2.2626 -1.2411  1.6043
 3269TIP3   OH231297   5.502   6.499   1.315 -0.6895  0.2738 -0.2193
 3269TIP3    H131298   5.433   6.517   1.250 -1.7911  0.0725  0.8762
 3269TIP3    H231299   5.556   6.431   1.274 -0.0876  1.7083 -1.8345
 3270TIP3   OH231300   2.311   2.021   2.254 -0.1358 -0.1159  0.5373
 3270TIP3    H131301   2.362   1.971   2.318  0.6813  0.9190  0.7195
 3270TIP3    H231302   2.357   2.007   2.171 -0.4332 -0.4050  0.4238
 3271TIP3   OH231303   5.053   2.692  16.133 -0.5374  0.0540  0.1755
 3271TIP3    H131304   5.082   2.779  16.107  0.1142 -0.3956 -0.6528
 3271TIP3    H231305   5.014   2.703  16.219  2.1015  0.6691  1.3221
 3272TIP3   OH231306   2.320   1.830  12.223  0.3113  0.0240  0.0635
 3272TIP3    H131307   2.340   1.923  12.228  1.7719 -0.2754 -0.0259
 3272TIP3    H231308   2.367   1.791  12.297  0.1980 -0.7147 -0.2458
 3273TIP3   OH231309   3.274   1.799  15.703 -0.1560  0.2191 -0.1437
 3273TIP3    H131310   3.364   1.768  15.697 -0.7766 -1.5059 -1.2072
 3273TIP3    H231311   3.236   1.747  15.775 -0.5854  0.1395 -0.4262
 3274TIP3   OH231312   1.958   3.119   6.013  0.7383 -0.1811  0.3543
 3274TIP3    H131313   2.029   3.118   6.077 -0.1938 -0.3022  1.4177
 3274TIP3    H231314   1.878   3.120   6.066 -0.0745 -1.1095 -0.8071
 3275TIP3   OH231315   2.861   6.714   0.629  0.1992  0.6548 -0.4617
 3275TIP3    H131316   2.892   6.793   0.673 -0.2500  0.6121 -0.0687
 3275TIP3    H231317   2.806   6.670   0.694  1.0171 -0.3418 -0.4175
 3276TIP3   OH231318   6.042   1.211  12.014  0.6805 -0.0121 -0.2116
 3276TIP3    H131319   6.004   1.133  12.055 -0.2075  0.1482 -0.7063
 3276TIP3    H231320   6.131   1.185  11.990  0.3600 -0.9074 -0.4537
 3277TIP3   OH231321   6.105   6.710   0.549 -0.1647 -0.2479  0.1081
 3277TIP3    H131322   6.068   6.647   0.611 -2.8511  0.9699 -0.1844
 3277TIP3    H231323   6.200   6.693   0.551 -0.5320 -2.3227  2.1716
 3278TIP3   OH231324   2.523   4.537   2.744  0.4096 -0.3390 -0.2619
 3278TIP3    H131325   2.430   4.522   2.761  0.1795  0.6655 -0.6374
 3278TIP3    H231326   2.541   4.483   2.666 -0.1699  0.4649 -0.9684
 3279TIP3   OH231327   3.401   6.649   0.822  0.1910 -0.4034  0.3978
 3279TIP3    H131328   3.463   6.584   0.854 -0.1432 -0.2170  1.4495
 3279TIP3    H231329   3.317   6.603   0.817  0.2840 -0.4901 -0.4328
 3280TIP3   OH231330   4.572   3.090   5.490  0.0504  0.6877 -0.2831
 3280TIP3    H131331   4.591   3.079   5.583  0.2849  1.5907 -0.2238
 3280TIP3    H231332   4.623   3.021   5.447  1.4578  1.4867  0.0873
 3281TIP3   OH231333   0.421   5.515  15.206  0.2593 -0.0596 -0.4585
 3281TIP3    H131334   0.436   5.486  15.295  0.4959  2.4618  0.3657
 3281TIP3    H231335   0.492   5.577  15.188 -1.5735  1.9204 -1.2036
 3282TIP3   OH231336   3.964   0.298   1.144  0.0260 -0.5831 -0.2599
 3282TIP3    H131337   3.987   0.232   1.211  1.4803  1.2987  1.1473
 3282TIP3    H231338   3.985   0.382   1.185  0.2182  0.6631 -2.8253
 3283TIP3   OH231339   4.775   6.281  15.839  0.2143 -0.1173  0.2500
 3283TIP3    H131340   4.744   6.247  15.923  2.4294  0.6723  1.4208
 3283TIP3    H231341   4.801   6.203  15.790 -0.0044 -0.5054  0.7473
 3284TIP3   OH231342   5.866   0.197   4.468 -0.0038 -1.0841  0.2697
 3284TIP3    H131343   5.820   0.187   4.552  0.3537  0.6757  0.6886
 3284TIP3    H231344   5.953   0.161   4.485  0.8673  1.4622  1.3998
 3285TIP3   OH231345   0.466   2.193   2.875 -0.5409 -0.4255  0.2814
 3285TIP3    H131346   0.541   2.210   2.932 -0.1687  0.6413 -0.5071
 3285TIP3    H231347   0.394   2.174   2.936 -0.1398  0.6300  1.1063
 3286TIP3   OH231348   5.805   0.494   3.768  0.4197 -0.0112  0.3940
 3286TIP3    H131349   5.715   0.462   3.755  0.4665 -0.2993  0.7617
 3286TIP3    H231350   5.838   0.442   3.841  0.4421  0.9913  1.1095
 3287TIP3   OH231351   5.142   5.652  14.458 -0.6298 -0.2665 -1.0256
 3287TIP3    H131352   5.047   5.663  14.456 -0.6885  0.3328  2.2672
 3287TIP3    H231353   5.155   5.557  14.456 -1.5435 -0.5415  2.3156
 3288TIP3   OH231354   1.540   1.644   5.471  0.1468  0.3853 -0.2823
 3288TIP3    H131355   1.456   1.638   5.426  0.6862  3.1321 -1.7428
 3288TIP3    H231356   1.605   1.638   5.401  1.1789 -0.7847  0.7375
 3289TIP3   OH231357   0.382   3.437  14.509  0.8529  0.0683 -0.2438
 3289TIP3    H131358   0.445   3.409  14.443  0.9771 -1.1301  0.3672
 3289TIP3    H231359   0.392   3.374  14.580 -1.9155 -0.9072 -0.6631
 3290TIP3   OH231360   6.665   0.018   4.894  0.2976 -0.5542  0.3785
 3290TIP3    H131361   6.710   0.098   4.867 -1.6703  0.8569  1.1751
 3290TIP3    H231362   6.736  -0.044   4.913  1.8458  0.9611 -0.3170
 3291TIP3   OH231363   3.660   6.429   1.152  0.4618  0.1363  0.0000
 3291TIP3    H131364   3.636   6.522   1.151 -1.1877 -0.2776 -0.3229
 3291TIP3    H231365   3.756   6.429   1.156  0.4374  1.8459  1.3669
 3292TIP3   OH231366   1.515   2.102   5.768  0.1919  0.1072 -0.4632
 3292TIP3    H131367   1.550   2.161   5.835  0.4514  0.3827 -0.8400
 3292TIP3    H231368   1.527   2.014   5.804  0.1899  0.2630 -0.0852
 3293TIP3   OH231369   4.065   1.605   5.511 -0.4701  0.6189  0.2387
 3293TIP3    H131370   4.028   1.600   5.599  0.7741 -0.7710  0.7194
 3293TIP3    H231371   4.056   1.516   5.476 -1.1107  1.2017 -1.1140
 3294TIP3   OH231372   5.999   5.433  17.067  0.8018 -1.2518 -0.3144
 3294TIP3    H131373   6.063   5.406  17.134  0.0163 -1.7103  0.2678
 3294TIP3    H231374   6.006   5.528  17.063 -0.4106 -1.0519  1.7362
 3295TIP3   OH231375   5.151   2.553   4.678  0.4592  0.1118 -0.4924
 3295TIP3    H131376   5.240   2.584   4.664  0.4127  0.3776 -0.2014
 3295TIP3    H231377   5.095   2.629   4.662  0.3694  0.2731  0.5370
 3296TIP3   OH231378   0.569   2.157   0.933 -0.6371 -0.0347 -0.0552
 3296TIP3    H131379   0.477   2.159   0.904  0.1333 -0.1099 -2.6286
 3296TIP3    H231380   0.619   2.175   0.854  1.6110 -0.4497  1.2388
 3297TIP3   OH231381   5.023   2.694  10.944  0.3356  0.5827  0.3611
 3297TIP3    H131382   5.118   2.707  10.938  0.6657 -1.1891  1.3897
 3297TIP3    H231383   4.986   2.782  10.935  1.9829  1.0956 -1.6897
 3298TIP3   OH231384   0.375   6.675   1.924  0.3946 -0.4648 -0.6251
 3298TIP3    H131385   0.327   6.758   1.929  1.4941  0.0848  0.9993
 3298TIP3    H231386   0.447   6.693   1.863  0.8947 -0.0856  0.0736
 3299TIP3   OH231387   6.008   1.981  16.474 -0.5570  0.5330  0.0792
 3299TIP3    H131388   5.936   1.950  16.419 -0.4186  0.0994  0.1336
 3299TIP3    H231389   5.965   2.029  16.545 -0.8265 -0.2026  0.4182
 3300TIP3   OH231390   0.220   0.483  10.409 -0.1906 -0.4828 -0.1490
 3300TIP3    H131391   0.307   0.448  10.386 -0.0088 -1.4783  1.9643
 3300TIP3    H231392   0.239   0.565  10.454 -0.3802 -0.4965 -0.0474
 3301TIP3   OH231393   0.162   1.670   2.105 -0.0059  1.0388 -0.0675
 3301TIP3    H131394   0.207   1.726   2.041 -0.0495  1.3427  0.1662
 3301TIP3    H231395   0.233   1.625   2.151 -0.0035  0.1036 -0.9684
 3302TIP3   OH231396   6.507   1.618   2.404  0.0939  0.3771 -0.2200
 3302TIP3    H131397   6.505   1.536   2.454 -0.6421 -0.1238 -1.0575
 3302TIP3    H231398   6.563   1.598   2.328 -0.6034  0.4550 -0.7542
 3303TIP3   OH231399   1.384   1.272   3.146  0.1437  0.6321 -0.0137
 3303TIP3    H131400   1.407   1.231   3.229 -1.6025 -0.8534 -0.2284
 3303TIP3    H231401   1.306   1.324   3.165  0.6995  1.6130 -0.3699
 3304TIP3   OH231402   5.903   2.079  16.893 -0.5064 -0.4681 -0.0866
 3304TIP3    H131403   5.914   1.985  16.883 -1.9601 -0.5317 -1.1833
 3304TIP3    H231404   5.900   2.113  16.804 -2.0270  0.3676  0.2629
 3305TIP3   OH231405   2.086   1.599   1.968 -0.1617  0.2678 -0.1957
 3305TIP3    H131406   2.044   1.524   2.009 -0.3903 -0.1020 -1.0886
 3305TIP3    H231407   2.109   1.657   2.041  0.0849 -0.6969  0.5023
 3306TIP3   OH231408   3.800   5.864   0.389  0.2252 -0.8808  0.1125
 3306TIP3    H131409   3.732   5.826   0.333 -1.7535  1.3817  0.8969
 3306TIP3    H231410   3.766   5.853   0.478  1.1522 -0.2273  0.5510
 3307TIP3   OH231411   1.541   4.975  12.162  0.4876  0.0375  0.1203
 3307TIP3    H131412   1.574   4.947  12.248  2.5614  0.2184 -0.6133
 3307TIP3    H231413   1.450   5.001  12.180 -0.1270 -2.9018  1.6708
 3308TIP3   OH231414   6.142   1.828  11.493  1.0027 -0.2397  0.5143
 3308TIP3    H131415   6.125   1.735  11.475 -4.5204  0.2760  2.2526
 3308TIP3    H231416   6.148   1.834  11.588 -1.2390  1.5087  0.5820
 3309TIP3   OH231417   0.564   1.560  13.651  0.0340 -0.7848 -0.4628
 3309TIP3    H131418   0.574   1.631  13.714  0.1944 -1.3642  0.1738
 3309TIP3    H231419   0.473   1.534  13.659 -0.1257 -0.3820 -0.9846
 3310TIP3   OH231420   5.198   4.966  15.198 -0.3427 -0.1032  0.0282
 3310TIP3    H131421   5.257   4.928  15.133 -0.7463  1.0550 -1.0281
 3310TIP3    H231422   5.115   4.919  15.185 -0.7326  0.8679 -1.0213
 3311TIP3   OH231423   0.864   3.006  12.509  0.0938  0.0301 -0.4256
 3311TIP3    H131424   0.793   3.031  12.568 -0.7245 -0.9414 -0.9812
 3311TIP3    H231425   0.906   2.932  12.553  0.1228 -0.0488 -0.5882
 3312TIP3   OH231426   4.386   6.668   4.460 -0.2449 -0.2189  0.7242
 3312TIP3    H131427   4.450   6.731   4.428  0.4914 -0.4033  1.8229
 3312TIP3    H231428   4.336   6.644   4.382  0.3253  0.7185  0.0514
 3313TIP3   OH231429   5.611   4.453  14.484 -0.5562 -0.5176  0.1676
 3313TIP3    H131430   5.584   4.463  14.575  0.8086  0.7882  0.4365
 3313TIP3    H231431   5.582   4.534  14.441 -0.4800 -0.7766 -0.3831
 3314TIP3   OH231432   6.674   3.919   5.173  0.1503  0.7682  0.2322
 3314TIP3    H131433   6.670   3.855   5.244 -2.4851  1.2142  0.5485
 3314TIP3    H231434   6.633   3.874   5.098  0.6556  1.1731 -0.2921
 3315TIP3   OH231435   0.289   3.255  17.172  0.1027 -0.1895 -0.1164
 3315TIP3    H131436   0.239   3.259  17.253  0.7467 -0.4389  0.3009
 3315TIP3    H231437   0.223   3.244  17.103 -0.6038  2.0590  0.1569
 3316TIP3   OH231438   0.574   2.181   6.516 -0.3251 -0.2376  0.3146
 3316TIP3    H131439   0.495   2.214   6.475 -0.0109  0.0809 -0.0336
 3316TIP3    H231440   0.646   2.214   6.462  0.1857  1.5515  2.0017
 3317TIP3   OH231441   5.710   0.373  15.486 -0.0155 -0.6109  0.0959
 3317TIP3    H131442   5.783   0.346  15.541  2.7044  3.4797 -1.2616
 3317TIP3    H231443   5.643   0.402  15.547  1.8630  1.1854  1.3561
 3318TIP3   OH231444   2.536   5.822   1.086  0.1527 -0.1203  0.2508
 3318TIP3    H131445   2.593   5.749   1.113 -0.1292 -0.5186 -0.2233
 3318TIP3    H231446   2.585   5.866   1.017  0.0661 -0.2187  0.1258
 3319TIP3   OH231447   5.132   5.482  13.682 -0.0469 -0.0058 -0.3022
 3319TIP3    H131448   5.111   5.550  13.746 -0.7284  0.3272 -0.8675
 3319TIP3    H231449   5.228   5.484  13.676 -0.0230  0.4797  0.1443
 3320TIP3   OH231450   1.243   3.995   2.455 -0.5167 -0.3193 -0.0605
 3320TIP3    H131451   1.322   4.011   2.403 -1.2485  1.3643 -0.6988
 3320TIP3    H231452   1.257   4.046   2.535 -1.2649  0.5708 -0.4921
 3321TIP3   OH231453   0.296   0.743   0.610  0.0798 -0.0514  0.2368
 3321TIP3    H131454   0.291   0.769   0.702 -3.2858  4.7555 -1.1247
 3321TIP3    H231455   0.219   0.688   0.595 -0.0958  0.2589 -0.0099
 3322TIP3   OH231456   4.018   1.665   0.272 -0.0016  0.0115 -0.1699
 3322TIP3    H131457   4.063   1.749   0.274 -0.0321  0.0052  1.0119
 3322TIP3    H231458   4.072   1.609   0.216  0.3420  0.6331 -0.4534
 3323TIP3   OH231459   6.314   1.613   5.003 -0.3014 -0.5864  0.4491
 3323TIP3    H131460   6.392   1.603   4.949 -0.4420 -0.2868  0.1943
 3323TIP3    H231461   6.346   1.601   5.093  0.3057  0.9735  0.4617
 3324TIP3   OH231462   6.729   4.017  16.820 -0.0004 -0.8343  0.2849
 3324TIP3    H131463   6.663   4.083  16.836  1.2731  0.3747  0.6839
 3324TIP3    H231464   6.681   3.941  16.787 -1.4158  0.4544 -0.6494
 3325TIP3   OH231465   4.446   4.666  14.761  0.4104  0.1544 -0.2089
 3325TIP3    H131466   4.356   4.667  14.793 -0.7192  0.2027 -3.3221
 3325TIP3    H231467   4.492   4.729  14.817 -1.0090 -1.2055  2.5965
 3326TIP3   OH231468   3.049   6.560  13.935  0.4945 -0.2872 -0.2166
 3326TIP3    H131469   3.036   6.466  13.938  0.3629 -0.2915 -0.8281
 3326TIP3    H231470   2.962   6.597  13.948  0.1610 -0.2882 -2.2400
 3327TIP3   OH231471   1.548   3.612   2.903  0.2228  0.4497  0.3157
 3327TIP3    H131472   1.503   3.585   2.983  0.4472  1.5975  0.8436
 3327TIP3    H231473   1.480   3.656   2.852 -0.0549 -0.7585 -0.3834
 3328TIP3   OH231474   4.156   1.632  16.197  0.6706  0.0200 -0.1386
 3328TIP3    H131475   4.202   1.693  16.140  1.8216 -1.0245 -0.3553
 3328TIP3    H231476   4.066   1.629  16.164  0.3818  2.2056  0.3831
 3329TIP3   OH231477   4.424   0.107   4.155  0.5440  0.1997 -0.1086
 3329TIP3    H131478   4.479   0.057   4.215  1.8935  0.6841 -0.9002
 3329TIP3    H231479   4.347   0.052   4.141  2.0098 -1.6912 -0.9880
 3330TIP3   OH231480   3.092   6.668  11.799 -0.2266  0.1087  0.2021
 3330TIP3    H131481   3.057   6.755  11.819  0.4784  0.2203  1.0044
 3330TIP3    H231482   3.084   6.660  11.704  0.0332  1.2018  0.0842
 3331TIP3   OH231483   1.162   0.444   4.914  0.5111  0.1545  0.0657
 3331TIP3    H131484   1.125   0.453   5.001 -1.5781  1.8717 -0.9573
 3331TIP3    H231485   1.236   0.505   4.912 -0.2813  1.1288  0.2059
 3332TIP3   OH231486   4.304   5.137  17.130  0.8146 -0.2807  0.7558
 3332TIP3    H131487   4.306   5.231  17.118 -2.4005  0.2122  3.2378
 3332TIP3    H231488   4.392   5.114  17.161  1.1782  2.1003  1.5385
 3333TIP3   OH231489   3.920   6.482   2.319  0.5941 -0.1965 -0.4857
 3333TIP3    H131490   3.922   6.434   2.237 -1.7083 -1.5152  0.1835
 3333TIP3    H231491   3.833   6.523   2.321  0.2474 -0.9407  1.6691
 3334TIP3   OH231492   0.187   1.432  14.349 -0.2837 -0.4369  0.0406
 3334TIP3    H131493   0.148   1.415  14.435 -2.5431  0.5333 -0.7681
 3334TIP3    H231494   0.177   1.526  14.336  0.1772 -0.5604 -1.2441
 3335TIP3   OH231495   0.735   2.724   0.771 -0.4575 -0.1460  0.3873
 3335TIP3    H131496   0.742   2.803   0.824 -0.3367  0.2601 -0.2251
 3335TIP3    H231497   0.673   2.747   0.702 -2.1644 -1.3014  1.4807
 3336TIP3   OH231498   0.716   1.459  14.807 -0.2795  0.3487 -0.5094
 3336TIP3    H131499   0.713   1.388  14.871 -1.2733  0.1748 -0.7399
 3336TIP3    H231500   0.780   1.430  14.742  1.0774  0.7396  0.6373
 3337TIP3   OH231501   1.672   3.677   0.901 -0.0823  0.2997  0.0548
 3337TIP3    H131502   1.682   3.731   0.980  0.3247  1.9529 -1.1023
 3337TIP3    H231503   1.737   3.712   0.840 -0.5880 -0.7788 -1.1218
 3338TIP3   OH231504   3.408   5.073  15.856 -0.2088  0.6414  0.0370
 3338TIP3    H131505   3.485   5.028  15.891  0.9181  2.4635 -0.0286
 3338TIP3    H231506   3.335   5.043  15.911  0.2754 -2.1933 -0.8068
 3339TIP3   OH231507   6.601   3.699   5.426 -0.0415  0.4060  0.0356
 3339TIP3    H131508   6.652   3.777   5.448 -0.5669  0.6095  0.5340
 3339TIP3    H231509   6.511   3.722   5.450 -0.5278  0.3931 -1.6805
 3340TIP3   OH231510   2.068   1.303   5.215  0.5946 -0.1198  0.0615
 3340TIP3    H131511   2.086   1.349   5.297 -1.7797 -1.2148  1.2565
 3340TIP3    H231512   2.125   1.226   5.218 -1.5108 -1.6874  2.1086
 3341TIP3   OH231513   5.559   0.763  13.145  0.8779 -0.0158 -0.1362
 3341TIP3    H131514   5.585   0.705  13.216 -1.1540 -0.1313  0.5168
 3341TIP3    H231515   5.536   0.846  13.188  2.8832  1.0369 -0.9816
 3342TIP3   OH231516   5.364   4.527   3.531  0.0276 -0.1267 -0.1223
 3342TIP3    H131517   5.338   4.452   3.586  0.5304 -0.3549 -0.1961
 3342TIP3    H231518   5.420   4.579   3.588 -0.3181  0.1954 -0.0745
 3343TIP3   OH231519   2.387   4.675   1.249 -0.2036 -0.0202  0.3975
 3343TIP3    H131520   2.463   4.712   1.293 -0.4335 -1.0358  1.6844
 3343TIP3    H231521   2.339   4.629   1.318 -0.3445 -2.0209 -0.9719
 3344TIP3   OH231522   4.386   6.363  16.259  0.3267 -0.1715 -0.1959
 3344TIP3    H131523   4.315   6.369  16.195 -0.6053 -0.4902  0.7947
 3344TIP3    H231524   4.421   6.274  16.248 -0.5716 -0.6255  0.4833
 3345TIP3   OH231525   0.806   2.727   3.636 -0.7255  0.3615  0.1043
 3345TIP3    H131526   0.814   2.641   3.675  0.5195  0.6912  0.5938
 3345TIP3    H231527   0.886   2.773   3.662 -0.3892  0.9585 -1.8751
 3346TIP3   OH231528   3.152   1.549   6.059  0.8684  0.4396 -0.3609
 3346TIP3    H131529   3.159   1.582   5.969  0.5739 -1.3091 -1.0449
 3346TIP3    H231530   3.218   1.479   6.063  1.9172  1.4933  1.2490
 3347TIP3   OH231531   6.647   4.587  16.056  0.1840 -0.0220  0.3520
 3347TIP3    H131532   6.553   4.591  16.073 -0.0624 -0.6245 -0.8313
 3347TIP3    H231533   6.682   4.533  16.127 -0.5460 -0.8579  0.0861
 3348TIP3   OH231534   3.736   0.070   2.981 -0.2686 -0.9946  0.4138
 3348TIP3    H131535   3.747  -0.017   2.942 -1.0690 -0.8869 -0.0584
 3348TIP3    H231536   3.666   0.058   3.046  0.9665 -1.1452  1.7417
 3349TIP3   OH231537   1.871   5.028   3.470  0.6604  0.4087 -0.5831
 3349TIP3    H131538   1.846   4.999   3.557  0.5507 -0.9095 -1.0485
 3349TIP3    H231539   1.810   5.099   3.450  0.8648  0.9017  0.5098
 3350TIP3   OH231540   2.733   4.820  16.556 -0.5424 -0.0770 -0.0274
 3350TIP3    H131541   2.817   4.783  16.528 -1.3280  0.2094 -2.8495
 3350TIP3    H231542   2.757   4.893  16.613  1.0918 -0.7744  0.2182
 3351TIP3   OH231543   6.444   0.903   1.059  0.2169  0.2249 -0.1777
 3351TIP3    H131544   6.429   0.810   1.038 -0.9581 -0.4251  3.2173
 3351TIP3    H231545   6.509   0.931   0.995  0.4653 -2.8983 -1.4087
 3352TIP3   OH231546   2.907   4.468   4.730 -0.2115  0.2616 -0.0282
 3352TIP3    H131547   2.940   4.448   4.818 -0.2235 -0.3641 -0.1595
 3352TIP3    H231548   2.932   4.392   4.678 -1.3843  0.0232 -0.2551
 3353TIP3   OH231549   2.039   4.534   3.211  0.4767  0.0088  0.2374
 3353TIP3    H131550   1.987   4.497   3.140 -1.1689  0.1186  1.3542
 3353TIP3    H231551   1.983   4.603   3.248  0.9440 -0.6078  2.1612
 3354TIP3   OH231552   2.577   5.677   2.573 -0.4289 -0.1867 -0.0345
 3354TIP3    H131553   2.627   5.598   2.552 -0.2482 -0.0131 -0.2533
 3354TIP3    H231554   2.602   5.699   2.663  1.5281  1.1446 -0.8831
 3355TIP3   OH231555   2.514   6.392   1.994 -0.3834 -0.2286 -0.0733
 3355TIP3    H131556   2.426   6.415   2.025  0.0513 -1.3496  2.1335
 3355TIP3    H231557   2.565   6.472   2.007 -0.3763 -0.4735  1.5208
 3356TIP3   OH231558   4.998   6.549   1.814 -0.6349 -0.3052  0.1130
 3356TIP3    H131559   5.036   6.533   1.728  0.2794 -0.9773  0.6208
 3356TIP3    H231560   4.987   6.462   1.852  0.7384  0.0567  1.3954
 3357TIP3   OH231561   1.152   5.071  11.397 -0.1202 -0.0927  0.0181
 3357TIP3    H131562   1.206   5.051  11.321 -0.6665  1.0805 -0.6860
 3357TIP3    H231563   1.206   5.046  11.472 -0.1579 -2.6540 -0.7650
 3358TIP3   OH231564   0.414   5.831   3.497  0.1986 -0.5805 -0.2929
 3358TIP3    H131565   0.326   5.867   3.487  0.3552  0.1655  0.9536
 3358TIP3    H231566   0.429   5.831   3.591  2.2010  0.9357 -0.5887
 3359TIP3   OH231567   5.755   3.249   0.921  0.0172  0.0276 -0.0019
 3359TIP3    H131568   5.834   3.229   0.972  0.1175 -1.4222 -0.7010
 3359TIP3    H231569   5.683   3.241   0.983  0.1638 -1.5079 -0.0037
 3360TIP3   OH231570   2.774   3.243   6.002  0.0661 -0.4700  0.2083
 3360TIP3    H131571   2.762   3.322   6.055  0.4251  0.0844 -0.5202
 3360TIP3    H231572   2.867   3.222   6.012  0.6914  0.9643 -1.9743
 3361TIP3   OH231573   2.039   4.248   3.608 -0.2708  0.2901 -0.2206
 3361TIP3    H131574   2.117   4.290   3.571  1.0429  0.5050  2.6870
 3361TIP3    H231575   2.074   4.179   3.664 -2.2103  0.1916  0.8783
 3362TIP3   OH231576   6.376   6.253   4.675 -0.0074 -0.3390  0.2981
 3362TIP3    H131577   6.388   6.208   4.759 -1.4925 -0.2547  0.5825
 3362TIP3    H231578   6.320   6.329   4.696  1.5262  1.0041 -0.3713
 3363TIP3   OH231579   0.277   3.388   4.466  0.0787 -0.7407  0.0940
 3363TIP3    H131580   0.242   3.450   4.402  0.6412 -2.4031 -1.8676
 3363TIP3    H231581   0.230   3.307   4.449  0.8322 -1.4358  1.2442
 3364TIP3   OH231582   3.054   5.885  13.787  0.2527  0.2041 -0.5401
 3364TIP3    H131583   3.028   5.874  13.696 -1.5179  0.3795 -0.0806
 3364TIP3    H231584   3.148   5.870  13.787  0.3808  0.8442 -2.5007
 3365TIP3   OH231585   6.596   5.277   4.534  0.1046 -0.1198  0.0761
 3365TIP3    H131586   6.596   5.309   4.624 -0.0079 -1.8065  0.7042
 3365TIP3    H231587   6.527   5.210   4.532 -0.6445  0.6649 -1.5494
 3366TIP3   OH231588   4.320   1.090  13.958 -0.3555 -0.0662  0.0804
 3366TIP3    H131589   4.318   1.092  14.053 -2.1818  0.7632  0.0378
 3366TIP3    H231590   4.311   1.182  13.932 -0.3834 -0.3408 -0.8967
 3367TIP3   OH231591   1.663   2.500  11.046  0.6500  0.0943 -0.8126
 3367TIP3    H131592   1.620   2.563  10.987  0.1588 -0.3657 -0.9466
 3367TIP3    H231593   1.649   2.536  11.133  1.6433  0.9391 -0.9893
 3368TIP3   OH231594   0.960   2.715   5.269 -0.5374  0.0779  0.2028
 3368TIP3    H131595   0.997   2.665   5.342 -1.3182  0.7069  1.0413
 3368TIP3    H231596   0.938   2.649   5.203 -0.0799 -0.5154  0.6440
 3369TIP3   OH231597   1.297   0.759   1.324  0.2866  0.4781 -0.2790
 3369TIP3    H131598   1.374   0.809   1.296  0.5781  1.2649  1.8391
 3369TIP3    H231599   1.322   0.722   1.408 -2.3882  2.4902  1.4647
 3370TIP3   OH231600   6.643   5.723  13.141  0.1243 -0.1887 -0.5091
 3370TIP3    H131601   6.661   5.712  13.048 -0.8111 -0.8759 -0.6238
 3370TIP3    H231602   6.644   5.817  13.155  2.5935 -0.1608 -0.7234
 3371TIP3   OH231603   5.196   0.598   3.898  0.4821  0.4932 -0.2932
 3371TIP3    H131604   5.148   0.521   3.927  1.7239  0.0022  0.5075
 3371TIP3    H231605   5.151   0.672   3.938 -2.4044  0.4546 -3.2680
 3372TIP3   OH231606   1.715   1.383   1.830 -0.4244 -0.4958  0.8279
 3372TIP3    H131607   1.643   1.395   1.768  0.1304 -2.9579 -0.3340
 3372TIP3    H231608   1.709   1.460   1.888 -1.9312  1.0278 -1.2601
 3373TIP3   OH231609   1.346   6.008  13.105 -0.5179 -0.6255 -0.2762
 3373TIP3    H131610   1.324   6.070  13.174 -0.1798 -1.3069  0.4445
 3373TIP3    H231611   1.317   5.923  13.137 -0.0156 -1.0076 -0.8015
 3374TIP3   OH231612   0.613   6.608  15.817  0.1366 -0.3365 -0.0104
 3374TIP3    H131613   0.558   6.530  15.823 -1.1861  0.3653 -2.5001
 3374TIP3    H231614   0.642   6.624  15.907 -2.7440 -1.4027  1.1564
 3375TIP3   OH231615   4.884   1.259  17.017 -0.6910 -0.1986 -0.2162
 3375TIP3    H131616   4.835   1.182  16.987  0.3854 -0.5400 -1.1046
 3375TIP3    H231617   4.907   1.306  16.937 -0.6772  0.6541  0.2763
 3376TIP3   OH231618   1.946   1.412   3.481 -0.4330 -0.0711  0.1895
 3376TIP3    H131619   1.893   1.408   3.401  0.0334 -0.7640 -0.0927
 3376TIP3    H231620   1.882   1.413   3.552 -0.8406 -3.4441 -0.0458
 3377TIP3   OH231621   1.133   5.209  13.468 -0.7588  0.3235  0.3152
 3377TIP3    H131622   1.195   5.219  13.540 -0.1025  0.5153 -0.2694
 3377TIP3    H231623   1.188   5.188  13.392 -1.3554  1.0774 -0.3324
 3378TIP3   OH231624   2.937   6.370   5.994 -0.2551  0.2022  0.3715
 3378TIP3    H131625   2.988   6.428   6.052 -0.8011  1.0560  0.0112
 3378TIP3    H231626   2.846   6.393   6.011 -0.5788 -1.7778  1.4815
 3379TIP3   OH231627   2.858   4.273   0.992  1.0041 -0.3400  0.1702
 3379TIP3    H131628   2.864   4.263   1.087  1.4141 -0.3843  0.1401
 3379TIP3    H231629   2.940   4.236   0.959  0.5972 -0.8866 -0.2382
 3380TIP3   OH231630   5.542   3.700  11.456  0.6144  0.4163 -0.0185
 3380TIP3    H131631   5.487   3.724  11.530  1.3594 -0.2669  0.7621
 3380TIP3    H231632   5.584   3.782  11.430  1.4617  0.4005  1.2466
 3381TIP3   OH231633   2.845   2.958  13.162  0.0811  0.1079  0.3164
 3381TIP3    H131634   2.803   2.892  13.106  2.0392 -1.0914  0.2016
 3381TIP3    H231635   2.855   2.914  13.246  0.6922  0.5429  0.4718
 3382TIP3   OH231636   4.978   0.778  16.905  0.3353 -0.3716  0.6581
 3382TIP3    H131637   4.942   0.848  16.850 -0.3560 -0.3646  1.1150
 3382TIP3    H231638   5.073   0.795  16.906  0.4906 -1.0349 -1.4248
 3383TIP3   OH231639   0.075   2.760  12.742 -0.4347 -0.3410  0.4550
 3383TIP3    H131640   0.078   2.664  12.751 -2.0583 -0.4423  0.1779
 3383TIP3    H231641  -0.003   2.786  12.791  0.1950  0.8862  0.8126
 3384TIP3   OH231642   2.524   2.020   3.323  0.8809  0.2353  0.4134
 3384TIP3    H131643   2.508   1.983   3.410 -0.2463 -0.0477  0.0935
 3384TIP3    H231644   2.561   2.106   3.340 -0.2291  0.5655  1.1743
 3385TIP3   OH231645   0.030   5.398  16.845  0.8497  0.5046 -0.0176
 3385TIP3    H131646  -0.057   5.399  16.884  0.7081 -0.6122 -0.3051
 3385TIP3    H231647   0.061   5.488  16.854  0.1535  0.6273  1.1749
 3386TIP3   OH231648   3.507   2.682   1.828 -0.4498  0.1401  0.3507
 3386TIP3    H131649   3.570   2.751   1.850  0.6145 -1.0462  1.1191
 3386TIP3    H231650   3.421   2.720   1.848  0.0284  1.7105 -0.5460
 3387TIP3   OH231651   2.293   6.117   2.118  0.0130 -0.1196 -0.0640
 3387TIP3    H131652   2.233   6.188   2.139  0.6407  0.2858  0.4054
 3387TIP3    H231653   2.268   6.045   2.177  0.8466  0.5186  1.1010
 3388TIP3   OH231654   3.999   5.602  15.867  0.2151  0.0368  0.0542
 3388TIP3    H131655   3.979   5.530  15.926 -2.3017 -0.5479 -1.4187
 3388TIP3    H231656   4.070   5.570  15.812  1.6995  0.1234  1.8982
 3389TIP3   OH231657   1.263   4.283   3.194 -0.0934  0.1567 -0.0004
 3389TIP3    H131658   1.302   4.204   3.232  2.6123  1.1003 -0.6435
 3389TIP3    H231659   1.242   4.338   3.270  1.7456  0.4448  0.3430
 3390TIP3   OH231660   0.089   1.267  13.329 -0.3091  0.2426  0.4041
 3390TIP3    H131661   0.154   1.200  13.348  1.0253  1.6140  0.7404
 3390TIP3    H231662   0.134   1.329  13.272 -1.2746  1.2809  0.7531
 3391TIP3   OH231663   3.415   3.222   2.572 -0.2895  0.0031  0.7235
 3391TIP3    H131664   3.474   3.288   2.607 -0.6021 -0.3072  1.8645
 3391TIP3    H231665   3.443   3.140   2.613  0.6215 -0.7283 -1.3088
 3392TIP3   OH231666   5.758   4.875  17.250 -0.2887  0.7128 -0.0002
 3392TIP3    H131667   5.674   4.872  17.203 -0.9831 -0.5558  1.2661
 3392TIP3    H231668   5.777   4.968  17.259 -0.5868  0.9812 -1.9949
 3393TIP3   OH231669   2.649   0.034  17.059  0.5914 -0.0527 -0.2800
 3393TIP3    H131670   2.728   0.089  17.058  1.5233 -1.2835  1.7355
 3393TIP3    H231671   2.659  -0.023  16.982  1.7771 -0.2929  0.0326
 3394TIP3   OH231672   4.392   0.902   5.051 -0.5730  0.3446 -0.5529
 3394TIP3    H131673   4.373   0.996   5.050 -1.0972  0.2363 -0.6915
 3394TIP3    H231674   4.413   0.884   5.142 -0.8818  0.5147 -0.4468
 3395TIP3   OH231675   5.215   1.411  11.387 -0.3014  0.6488 -0.2271
 3395TIP3    H131676   5.149   1.464  11.343  0.2778  1.5118 -0.0570
 3395TIP3    H231677   5.250   1.353  11.319 -1.0222  0.3871 -0.3789
 3396TIP3   OH231678   5.277   6.018   0.484 -0.5265  0.2031  0.6203
 3396TIP3    H131679   5.277   6.106   0.446 -1.8969  0.3057  0.8256
 3396TIP3    H231680   5.211   5.971   0.433  1.6690 -1.3262 -0.8883
 3397TIP3   OH231681   4.282   3.611  14.858  0.8802 -0.6463 -0.3154
 3397TIP3    H131682   4.191   3.600  14.885  0.7755 -2.3707 -1.3011
 3397TIP3    H231683   4.328   3.638  14.938 -0.4393 -0.0403  0.2502
 3398TIP3   OH231684   2.968   1.275  17.209 -0.4938 -0.5385  0.6400
 3398TIP3    H131685   2.961   1.245  17.300  0.0702 -1.0766  0.5095
 3398TIP3    H231686   3.022   1.209  17.166 -1.2980 -0.6457 -0.2469
 3399TIP3   OH231687   3.388   2.937  15.931  0.0944 -0.4407  0.3995
 3399TIP3    H131688   3.458   2.943  15.865 -0.8168  1.1100 -0.4418
 3399TIP3    H231689   3.329   2.869  15.897  0.0526 -0.2223  0.0366
 3400TIP3   OH231690   3.966   2.056  16.845  0.1826  0.3490 -0.0124
 3400TIP3    H131691   4.040   2.012  16.887  1.2133  0.3382 -1.8231
 3400TIP3    H231692   3.934   1.993  16.781 -0.1014  1.1640 -0.6768
 3401TIP3   OH231693   1.598   3.946  13.215 -0.2317 -0.2097 -0.1123
 3401TIP3    H131694   1.564   4.036  13.224 -0.5407 -0.3788  0.4328
 3401TIP3    H231695   1.545   3.895  13.275 -0.4626 -0.8722 -0.8678
 3402TIP3   OH231696   3.696   0.082  10.915 -0.3654  0.2877 -0.0073
 3402TIP3    H131697   3.666   0.147  10.979  1.7867 -0.7783  2.1504
 3402TIP3    H231698   3.636   0.008  10.927 -0.4558  0.3980  0.2304
 3403TIP3   OH231699   3.984   6.679  14.402  0.5778 -0.7517  0.9519
 3403TIP3    H131700   4.042   6.620  14.449  1.8047 -1.1113 -0.9362
 3403TIP3    H231701   3.925   6.622  14.354  1.0157 -0.4456  0.0342
 3404TIP3   OH231702   5.460   3.222  15.412  0.5026 -0.1923  0.1311
 3404TIP3    H131703   5.537   3.169  15.389 -0.6323 -1.4519 -0.8962
 3404TIP3    H231704   5.466   3.234  15.507  1.8009 -0.5427  0.1016
 3405TIP3   OH231705   0.018   1.309   3.848  0.2299 -0.2368  0.2553
 3405TIP3    H131706  -0.047   1.243   3.871 -0.6820  0.6843  0.3848
 3405TIP3    H231707   0.101   1.274   3.879 -0.7164  0.1971  3.4330
 3406TIP3   OH231708   5.660   5.415  12.076  0.2672 -0.6097  0.6248
 3406TIP3    H131709   5.685   5.498  12.036  0.3242 -1.9001 -2.1505
 3406TIP3    H231710   5.728   5.354  12.050 -2.1276 -2.5834 -1.3074
 3407TIP3   OH231711   0.196   1.554  11.454  0.1814  0.3548 -0.7916
 3407TIP3    H131712   0.196   1.609  11.532  1.6630 -0.4229 -0.2350
 3407TIP3    H231713   0.127   1.489  11.470 -2.9550  3.1905 -2.3128
 3408TIP3   OH231714   3.833   1.971   0.707  0.2034 -0.0966 -0.2254
 3408TIP3    H131715   3.768   1.972   0.777  0.6663 -0.5907  0.2114
 3408TIP3    H231716   3.797   2.031   0.641 -0.5963 -0.2015  0.1008
 3409TIP3   OH231717   0.520   6.399  14.513 -0.3001  0.8196 -0.3997
 3409TIP3    H131718   0.533   6.475  14.456 -0.9200  0.6093 -0.8221
 3409TIP3    H231719   0.596   6.344  14.496  0.0787  1.2715 -0.1998
 3410TIP3   OH231720   4.887   3.466   6.019 -0.1532 -0.3669  0.2367
 3410TIP3    H131721   4.954   3.463   6.087  0.5221 -1.6192 -0.4598
 3410TIP3    H231722   4.920   3.408   5.950 -2.6529 -2.2392  0.5480
 3411TIP3   OH231723   3.285   4.253   4.827  0.6949 -0.5457  0.4121
 3411TIP3    H131724   3.240   4.169   4.821 -1.0552  0.3350  0.8490
 3411TIP3    H231725   3.236   4.302   4.894 -0.1917  1.9381 -1.9266
 3412TIP3   OH231726   1.242   6.543   5.421 -0.0817  0.7355 -0.1101
 3412TIP3    H131727   1.286   6.493   5.490 -2.2784 -1.5080 -0.2357
 3412TIP3    H231728   1.313   6.576   5.367  1.6590  1.9142  2.7744
 3413TIP3   OH231729   0.149   6.214  10.659 -0.1319 -0.4752 -0.0952
 3413TIP3    H131730   0.123   6.214  10.567 -0.4770 -2.6064 -0.0199
 3413TIP3    H231731   0.244   6.200  10.657  0.1438  1.3470 -0.1785
 3414TIP3   OH231732   6.613   0.892  13.703 -0.6675 -0.7408 -0.1484
 3414TIP3    H131733   6.617   0.919  13.611 -0.2858 -0.8885 -0.1771
 3414TIP3    H231734   6.702   0.864  13.723 -0.7268 -0.6093  0.2985
 3415TIP3   OH231735   2.344   1.607  16.276  0.5666 -0.0576  0.2350
 3415TIP3    H131736   2.338   1.673  16.206  1.3853 -1.4748 -1.2232
 3415TIP3    H231737   2.295   1.644  16.349  0.9847  2.1467 -0.5681
 3416TIP3   OH231738   4.213   0.686   4.491  0.2183 -0.1634 -0.5941
 3416TIP3    H131739   4.255   0.762   4.532 -0.4149 -0.4185  0.5492
 3416TIP3    H231740   4.218   0.617   4.556 -1.5614 -0.3325 -0.6041
 3417TIP3   OH231741   2.661   2.669  16.534 -0.3020  0.3227  0.1133
 3417TIP3    H131742   2.718   2.591  16.542  0.5905  0.6587 -2.6239
 3417TIP3    H231743   2.707   2.736  16.585 -1.4131 -1.0699  3.0656
 3418TIP3   OH231744   6.527   1.632   4.336 -0.1572 -0.0121 -0.2282
 3418TIP3    H131745   6.617   1.612   4.362 -0.2019  0.9861  0.7309
 3418TIP3    H231746   6.491   1.680   4.410 -1.5011 -0.4292 -0.5950
 3419TIP3   OH231747   0.450   3.984   1.948  0.6762 -0.0327  0.6156
 3419TIP3    H131748   0.520   4.034   1.990  0.5966 -0.6703  1.5019
 3419TIP3    H231749   0.495   3.917   1.897  0.7523  0.4524  0.0279
 3420TIP3   OH231750   5.084   6.076  12.685  0.2301  0.2482 -0.6951
 3420TIP3    H131751   5.158   6.061  12.625  0.4802 -2.1123  0.1555
 3420TIP3    H231752   5.121   6.129  12.756  0.3660  1.5549 -1.7192
 3421TIP3   OH231753   5.205   6.528  13.330  0.3088 -0.4105  0.6591
 3421TIP3    H131754   5.299   6.517  13.319  0.4832  1.1927  0.3833
 3421TIP3    H231755   5.194   6.620  13.356 -1.2291 -0.2943 -0.2764
 3422TIP3   OH231756   2.911   3.752   3.850 -0.0223 -0.0458 -0.0547
 3422TIP3    H131757   2.872   3.702   3.922  0.0733  0.3216  0.2549
 3422TIP3    H231758   2.994   3.708   3.833 -1.5977 -2.2578 -2.2826
 3423TIP3   OH231759   5.790   5.357   1.602  0.4918 -0.2594 -0.1589
 3423TIP3    H131760   5.803   5.443   1.562 -0.9400 -0.8035 -1.8601
 3423TIP3    H231761   5.875   5.314   1.595  0.8882  0.5546 -0.4007
 3424TIP3   OH231762   3.003   2.999  14.178  0.5343 -0.0822 -0.6645
 3424TIP3    H131763   3.095   2.978  14.162  1.0673  1.6684 -0.0504
 3424TIP3    H231764   2.963   2.998  14.091  0.6727 -2.7641 -0.7513
 3425TIP3   OH231765   2.432   3.262  15.204 -0.6495  0.2628 -0.0975
 3425TIP3    H131766   2.511   3.212  15.225  0.3693  1.1736 -1.6458
 3425TIP3    H231767   2.369   3.237  15.271  1.5878  1.0408  2.3744
 3426TIP3   OH231768   6.167   0.698   5.122 -0.2636 -0.5011  0.3521
 3426TIP3    H131769   6.118   0.775   5.152 -1.1532 -0.9961  0.1971
 3426TIP3    H231770   6.126   0.674   5.039  2.2762  0.9460 -1.3938
 3427TIP3   OH231771   0.607   0.208   2.560  0.0106  0.0440  0.0180
 3427TIP3    H131772   0.597   0.229   2.467  0.7925  2.1370  0.3772
 3427TIP3    H231773   0.633   0.116   2.561  0.9837  0.2701 -1.8925
 3428TIP3   OH231774   0.406   3.095   1.202 -0.2208 -0.0948  0.0175
 3428TIP3    H131775   0.350   3.146   1.144  0.6452 -0.0955 -0.8225
 3428TIP3    H231776   0.494   3.107   1.167  0.1758 -0.9436  0.7115
 3429TIP3   OH231777   3.792   3.390   3.009 -0.6417  1.0763 -0.2628
 3429TIP3    H131778   3.816   3.481   3.030 -2.7989  1.5302  0.3305
 3429TIP3    H231779   3.724   3.368   3.072 -1.3855 -0.3784 -1.5383
 3430TIP3   OH231780   5.036   6.459  13.820  0.2749  0.0350  0.2154
 3430TIP3    H131781   4.944   6.434  13.821  0.5275 -0.9391  0.2314
 3430TIP3    H231782   5.047   6.507  13.738 -0.1549 -0.2320  0.0001
 3431TIP3   OH231783   1.550   1.851   5.858  0.3246 -0.4509  0.2889
 3431TIP3    H131784   1.476   1.791   5.866  0.1150 -0.2941 -0.4695
 3431TIP3    H231785   1.596   1.843   5.941 -0.0939 -1.1456  0.4570
 3432TIP3   OH231786   4.052   1.775   3.422 -0.1822 -0.6094  0.0418
 3432TIP3    H131787   3.977   1.804   3.369 -0.3526 -0.6852  0.2379
 3432TIP3    H231788   4.123   1.762   3.359 -0.3588 -0.6143 -0.1575
 3433TIP3   OH231789   3.658   2.652   3.473 -0.2153 -0.1467 -0.4479
 3433TIP3    H131790   3.727   2.625   3.413  0.3860 -0.7425  0.4958
 3433TIP3    H231791   3.589   2.687   3.417  1.2140  1.2710 -1.3660
 3434TIP3   OH231792   5.298   0.140  12.493 -0.1051  0.1221 -0.0101
 3434TIP3    H131793   5.339   0.140  12.579  0.4314 -2.1836 -0.2369
 3434TIP3    H231794   5.210   0.175  12.507  1.1611  3.0829  0.8462
 3435TIP3   OH231795   3.537   4.774  14.154  0.2513  0.3844  0.0244
 3435TIP3    H131796   3.508   4.711  14.221 -0.4843  0.4569 -0.2233
 3435TIP3    H231797   3.468   4.771  14.088  0.2534  1.3995 -0.0236
 3436TIP3   OH231798   3.531   0.629  15.803  0.0950 -0.0813  0.3442
 3436TIP3    H131799   3.611   0.681  15.798  0.1659 -0.3431 -1.4300
 3436TIP3    H231800   3.552   0.558  15.865  1.7325 -0.9947 -1.2154
 3437TIP3   OH231801   0.568   1.739  12.225 -0.1723 -0.1830 -0.0382
 3437TIP3    H131802   0.621   1.782  12.292 -0.1574  0.1200 -0.2441
 3437TIP3    H231803   0.519   1.811  12.183 -1.0839 -0.5142  0.4541
 3438TIP3   OH231804   1.568   4.243  15.045 -0.2639 -0.2441 -0.3405
 3438TIP3    H131805   1.627   4.169  15.038  2.3181  1.7283 -0.2615
 3438TIP3    H231806   1.597   4.289  15.124 -0.1484  2.2075 -1.7570
 3439TIP3   OH231807   5.766   5.964   6.174 -0.0887 -0.2961 -0.4198
 3439TIP3    H131808   5.725   5.895   6.227 -1.2020  0.9869  0.4343
 3439TIP3    H231809   5.692   6.013   6.138  0.6673 -1.1305 -3.1832
 3440TIP3   OH231810   1.421   6.750   5.058  0.3326 -0.1219 -0.1865
 3440TIP3    H131811   1.497   6.806   5.046 -0.7588  1.7440  1.3504
 3440TIP3    H231812   1.364   6.771   4.984  0.2805  0.2266 -0.0503
 3441TIP3   OH231813   6.078   4.003  14.894 -0.2151 -0.4001  0.5669
 3441TIP3    H131814   6.173   4.017  14.885 -0.2068 -1.1118 -0.6149
 3441TIP3    H231815   6.045   4.086  14.925  0.8004 -0.1222  0.9400
 3442TIP3   OH231816   2.416   1.652   3.421 -0.5144  0.2236  0.3435
 3442TIP3    H131817   2.422   1.707   3.500  0.5936  0.0963  0.3629
 3442TIP3    H231818   2.350   1.587   3.442  1.4505 -1.2695  2.1084
 3443TIP3   OH231819   4.638   3.324  15.070  0.0793  0.0514 -0.2704
 3443TIP3    H131820   4.647   3.232  15.044 -2.2650 -0.1118 -0.6290
 3443TIP3    H231821   4.544   3.341  15.065  0.5131  2.5705 -0.5189
 3444TIP3   OH231822   4.618   6.503  16.080 -0.0823  0.0176 -0.4725
 3444TIP3    H131823   4.624   6.560  16.157 -4.3481 -1.5035  1.1022
 3444TIP3    H231824   4.528   6.511  16.051 -0.3135 -4.4734 -1.3259
 3445TIP3   OH231825   5.025   3.877  12.348 -0.2887 -0.5100  0.2402
 3445TIP3    H131826   4.978   3.887  12.266  0.7200  1.3772 -0.1133
 3445TIP3    H231827   4.964   3.827  12.404 -2.0205  0.4467 -0.7583
 3446TIP3   OH231828   5.125   3.233   3.170 -0.0509 -0.0857 -0.5587
 3446TIP3    H131829   5.079   3.310   3.134  2.3364  0.5852 -2.2747
 3446TIP3    H231830   5.140   3.256   3.262  2.2009  2.3258 -1.4604
 3447TIP3   OH231831   3.445   6.472  14.044 -0.1940  0.1854 -0.8528
 3447TIP3    H131832   3.385   6.546  14.033  0.3608  0.9070  0.7556
 3447TIP3    H231833   3.532   6.508  14.024 -0.2082 -0.6864 -2.5406
 3448TIP3   OH231834   3.067   3.987   4.060 -0.2000 -0.0282 -0.2857
 3448TIP3    H131835   3.053   3.913   4.120  0.4474  1.2948  1.5315
 3448TIP3    H231836   3.134   3.955   4.000  1.0200 -0.4917  1.2814
 3449TIP3   OH231837   3.416   2.414  17.161  0.3532 -0.2808 -0.2668
 3449TIP3    H131838   3.479   2.486  17.153  0.9552 -0.7666  0.0520
 3449TIP3    H231839   3.455   2.343  17.109 -0.4394 -0.2453 -0.9197
 3450TIP3   OH231840   2.359   4.806  14.617  0.0276  0.0212 -0.2544
 3450TIP3    H131841   2.433   4.754  14.585  0.6907  0.6583  0.2375
 3450TIP3    H231842   2.288   4.742  14.626  0.0547 -0.3234 -2.2030
 3451TIP3   OH231843   3.152   5.167  13.180 -0.5987 -0.1985 -0.1615
 3451TIP3    H131844   3.220   5.103  13.157 -0.6050  0.4630 -2.0684
 3451TIP3    H231845   3.070   5.123  13.157 -0.5715  0.7117 -2.0485
 3452TIP3   OH231846   3.915   4.016   5.913 -0.2542 -0.1946  0.1921
 3452TIP3    H131847   3.936   3.935   5.960  0.5832 -0.2388 -0.2358
 3452TIP3    H231848   3.917   4.084   5.979 -2.1155 -0.6804  0.7687
 3453TIP3   OH231849   2.708   0.546   3.408 -0.0502 -0.0426 -0.2758
 3453TIP3    H131850   2.683   0.473   3.464 -1.3181  0.0441 -0.7149
 3453TIP3    H231851   2.646   0.615   3.429  0.7475  0.6894 -0.3217
 3454TIP3   OH231852   5.289   6.675  16.561  0.4849  0.0970  0.0971
 3454TIP3    H131853   5.348   6.601  16.551  1.5194  1.0072 -0.7337
 3454TIP3    H231854   5.207   6.647  16.520  1.0125 -0.4181 -0.5995
 3455TIP3   OH231855   0.717   5.498  12.918 -0.5164 -0.3193 -0.1127
 3455TIP3    H131856   0.781   5.510  12.989  1.3719 -0.1648 -1.7878
 3455TIP3    H231857   0.675   5.415  12.938 -1.8360  0.9233  2.5546
 3456TIP3   OH231858   2.708   5.103   1.045 -0.1497 -0.3083 -0.0864
 3456TIP3    H131859   2.623   5.071   1.074 -0.6737  1.5378  0.4484
 3456TIP3    H231860   2.689   5.152   0.965  0.3333  0.5567  0.3285
 3457TIP3   OH231861   6.434   5.980  13.404  0.3336  0.1381  0.6368
 3457TIP3    H131862   6.365   5.987  13.337  1.5840  0.0437 -0.7001
 3457TIP3    H231863   6.447   6.069  13.435 -0.3233  0.1703  0.8340
 3458TIP3   OH231864   0.926   1.415   4.713 -0.0281 -0.2990  0.0243
 3458TIP3    H131865   1.018   1.408   4.689  0.0662 -1.0968  0.6178
 3458TIP3    H231866   0.883   1.446   4.633  0.2020 -3.4742 -1.3940
 3459TIP3   OH231867   4.116   3.176   1.363  0.3914  0.5146  0.3653
 3459TIP3    H131868   4.068   3.172   1.280 -0.4465  1.4996  0.7823
 3459TIP3    H231869   4.161   3.092   1.369 -0.9362 -0.2717 -0.2704
 3460TIP3   OH231870   3.185   0.894   1.387 -0.1973 -0.0861 -0.0634
 3460TIP3    H131871   3.237   0.932   1.317 -0.1540  0.8522  0.4653
 3460TIP3    H231872   3.239   0.906   1.466 -1.1911  0.9134  0.4913
 3461TIP3   OH231873   0.496   4.160  13.685  0.2115  0.7558 -0.2409
 3461TIP3    H131874   0.509   4.248  13.650  1.2706  0.3541 -0.8850
 3461TIP3    H231875   0.505   4.170  13.780  2.1637  1.0360 -0.4407
 3462TIP3   OH231876   1.911   0.307  14.182 -0.7814  0.3968  0.0339
 3462TIP3    H131877   1.944   0.376  14.125  0.5253 -1.4726 -1.5648
 3462TIP3    H231878   1.920   0.342  14.271  1.4348  1.6335 -0.6448
 3463TIP3   OH231879   5.675   3.459   1.300 -0.3394  0.2633 -0.9806
 3463TIP3    H131880   5.619   3.534   1.323  0.2046  0.2005  0.6291
 3463TIP3    H231881   5.750   3.467   1.359  0.6703 -0.4418 -2.1636
 3464TIP3   OH231882   6.309   5.983  14.330 -0.2567  0.7935  0.1152
 3464TIP3    H131883   6.277   6.001  14.241  1.4182 -0.8917 -0.8855
 3464TIP3    H231884   6.232   5.993  14.386 -1.1649  2.7053 -1.4054
 3465TIP3   OH231885   2.837   0.338  15.153 -0.1222  0.2681  0.1451
 3465TIP3    H131886   2.868   0.257  15.113 -0.2972  0.7619 -0.9975
 3465TIP3    H231887   2.916   0.391  15.165 -0.2867  0.7851 -1.0682
 3466TIP3   OH231888   2.496   3.891  16.312 -0.3278  0.3143 -0.1913
 3466TIP3    H131889   2.563   3.856  16.371 -1.0959 -0.8998 -0.0258
 3466TIP3    H231890   2.453   3.959  16.363  0.3854  0.6918 -0.0857
 3467TIP3   OH231891   2.593   6.716  15.191  0.0435  0.3687  0.3346
 3467TIP3    H131892   2.649   6.790  15.166 -0.2092  0.9776  1.5229
 3467TIP3    H231893   2.506   6.755  15.203 -0.8367 -0.6983 -2.2436
 3468TIP3   OH231894   6.646   2.514   0.132 -0.1916  0.1395 -0.0963
 3468TIP3    H131895   6.734   2.553   0.127 -0.0672  0.0932  1.4992
 3468TIP3    H231896   6.592   2.583   0.170 -1.3627  0.9693 -3.1476
 3469TIP3   OH231897   4.823   1.726   0.863  0.5293  0.1139 -0.2686
 3469TIP3    H131898   4.845   1.819   0.870 -1.1863  0.6037 -1.2208
 3469TIP3    H231899   4.802   1.713   0.771  0.1452 -1.0798 -0.0231
 3470TIP3   OH231900   5.137   1.074  12.735 -0.2369 -0.1405  0.1567
 3470TIP3    H131901   5.186   1.144  12.778 -1.5853  1.2802 -0.5743
 3470TIP3    H231902   5.154   1.086  12.642 -0.6302 -0.6662  0.0170
 3471TIP3   OH231903   4.712   1.829  16.945  0.4271  0.2295 -0.1034
 3471TIP3    H131904   4.675   1.915  16.923  2.5485  0.5428 -2.6970
 3471TIP3    H231905   4.662   1.767  16.891  0.3156  0.0975  0.1532
 3472TIP3   OH231906   2.486   4.213   1.209 -0.8413 -0.0723  0.0093
 3472TIP3    H131907   2.472   4.247   1.121  1.8989 -0.7760 -0.7329
 3472TIP3    H231908   2.434   4.133   1.213 -2.7202  1.0971 -0.1842
 3473TIP3   OH231909   6.533   0.949  12.208 -0.1978  0.2117  0.6072
 3473TIP3    H131910   6.578   1.024  12.246 -0.4589  0.1011  1.1312
 3473TIP3    H231911   6.590   0.921  12.136  0.1864  0.5471  0.7803
 3474TIP3   OH231912   4.418   3.291  16.597  0.0768  0.0915 -0.4130
 3474TIP3    H131913   4.342   3.255  16.552 -1.1024  1.2175  0.6377
 3474TIP3    H231914   4.452   3.358  16.537 -1.3207  1.3864  0.2120
 3475TIP3   OH231915   2.094   4.576  10.683 -0.0432 -0.2710  0.6042
 3475TIP3    H131916   2.133   4.499  10.644 -1.2459 -0.1706 -0.8509
 3475TIP3    H231917   2.156   4.647  10.665  0.2382 -0.5626  0.4271
 3476TIP3   OH231918   2.071   1.043   0.945  0.5707  0.7625 -0.0586
 3476TIP3    H131919   2.074   1.138   0.935 -2.6187  1.3446  3.7080
 3476TIP3    H231920   2.035   1.028   1.032 -0.5708 -3.9397 -1.1714
 3477TIP3   OH231921   4.004   0.739  16.635  0.0891  0.1970  0.0636
 3477TIP3    H131922   3.912   0.719  16.652  0.7537 -0.4537  3.1715
 3477TIP3    H231923   4.026   0.807  16.699  1.3678  1.4754 -1.6969
 3478TIP3   OH231924   5.839   5.536  13.752 -0.3136  0.1253 -0.8822
 3478TIP3    H131925   5.920   5.576  13.783 -1.3276  1.5811 -0.0530
 3478TIP3    H231926   5.855   5.441  13.758  0.4128  0.3765  1.7702
 3479TIP3   OH231927   0.544   6.412   1.958  0.0233  0.1051 -0.1591
 3479TIP3    H131928   0.602   6.437   1.886 -0.7045  1.0519 -0.4299
 3479TIP3    H231929   0.488   6.489   1.971  0.6710  0.2568  1.9513
 3480TIP3   OH231930   1.273   2.073   2.137  0.3765 -0.2203 -0.1071
 3480TIP3    H131931   1.210   2.125   2.087  0.0170 -0.9199 -0.3950
 3480TIP3    H231932   1.219   2.013   2.188  0.8473 -2.0539 -1.7054
 3481TIP3   OH231933   4.250   2.408   0.492 -0.2622  0.2890  0.4507
 3481TIP3    H131934   4.323   2.347   0.481 -0.1295  0.8443 -2.2168
 3481TIP3    H231935   4.208   2.381   0.573  0.1353 -3.0066 -0.3494
 3482TIP3   OH231936   1.113   3.026  11.752 -0.3946  0.1400 -0.4900
 3482TIP3    H131937   1.139   2.941  11.717  0.2348 -0.6329  1.8030
 3482TIP3    H231938   1.182   3.050  11.813 -1.0980  1.7961 -0.3173
 3483TIP3   OH231939   2.220   0.314   6.551 -0.5253  0.2802  0.7597
 3483TIP3    H131940   2.272   0.244   6.510 -0.5064  0.0647  1.1389
 3483TIP3    H231941   2.130   0.297   6.522 -0.8543 -1.1494  2.4852
 3484TIP3   OH231942   5.707   3.084  16.222  0.3833  0.5023  0.2935
 3484TIP3    H131943   5.724   3.173  16.192  1.1219 -0.4896 -2.3361
 3484TIP3    H231944   5.787   3.058  16.268  0.5549  0.8454  0.1898
 3485TIP3   OH231945   2.608   3.255   3.762 -0.4137  0.0409  0.0691
 3485TIP3    H131946   2.605   3.160   3.774 -1.6176  0.2695  1.7745
 3485TIP3    H231947   2.542   3.273   3.695 -1.8373 -0.1206  1.3945
 3486TIP3   OH231948   6.630   5.627  11.231  0.0425  0.0788 -0.7379
 3486TIP3    H131949   6.570   5.557  11.259 -0.6161  0.2259 -1.7831
 3486TIP3    H231950   6.690   5.636  11.305  0.1691 -1.6292 -0.5960
 3487TIP3   OH231951   1.738   3.989   4.230  0.2603  0.3214  0.4036
 3487TIP3    H131952   1.826   3.955   4.217 -0.2603 -1.3301  1.1641
 3487TIP3    H231953   1.735   4.014   4.323 -0.6510 -1.3422  0.8359
 3488TIP3   OH231954   5.730   3.478   1.948  0.6418  0.3628 -0.3323
 3488TIP3    H131955   5.735   3.431   1.865  0.1472  0.1116 -0.2206
 3488TIP3    H231956   5.637   3.502   1.957  0.5667 -0.2144  0.4777
 3489TIP3   OH231957   2.446   2.259   4.967 -1.2682 -0.5923 -0.5107
 3489TIP3    H131958   2.429   2.350   4.992 -1.7198 -0.6576 -0.5829
 3489TIP3    H231959   2.517   2.265   4.903 -0.0915 -0.4222  0.7770
 3490TIP3   OH231960   0.364   3.861  17.077 -0.7642  0.2005  0.0682
 3490TIP3    H131961   0.277   3.889  17.047 -2.0182 -1.3850  2.1337
 3490TIP3    H231962   0.347   3.815  17.159  1.6993 -2.9115 -1.0970
 3491TIP3   OH231963   2.050   0.002   2.453 -0.4433  0.6155  0.4789
 3491TIP3    H131964   2.118   0.060   2.488 -0.8979  1.4590  0.0047
 3491TIP3    H231965   1.968   0.035   2.492 -0.4744 -1.0141  1.8255
 3492TIP3   OH231966   5.451   3.949  11.805  0.2936 -0.1808  0.0453
 3492TIP3    H131967   5.408   3.980  11.726  1.1520 -1.5965 -1.0009
 3492TIP3    H231968   5.382   3.906  11.855  0.0704 -0.6747 -0.6836
 3493TIP3   OH231969   6.026   2.748   4.893 -0.4999  0.7348  0.2285
 3493TIP3    H131970   6.082   2.810   4.938  1.6009 -1.2352  0.4563
 3493TIP3    H231971   6.082   2.712   4.823 -1.4603 -1.2879  0.4696
 3494TIP3   OH231972   3.314   5.884   3.319  0.4658  0.6800 -0.2828
 3494TIP3    H131973   3.399   5.927   3.330  0.2860  1.1872 -0.8417
 3494TIP3    H231974   3.269   5.936   3.252 -0.0292  0.0232 -0.4642
 3495TIP3   OH231975   5.357   6.792   5.461 -0.3063  0.2172  0.2946
 3495TIP3    H131976   5.316   6.863   5.511  0.2591 -0.1008  1.2337
 3495TIP3    H231977   5.368   6.722   5.526 -1.0174 -0.7877 -0.6601
 3496TIP3   OH231978   0.915   0.532   1.330  0.1675  0.1110  0.0600
 3496TIP3    H131979   0.837   0.569   1.371  1.5123  2.3792  0.6545
 3496TIP3    H231980   0.943   0.599   1.267  2.1380 -0.2488  0.5131
 3497TIP3   OH231981   5.749   1.018  11.297 -0.1614  0.4810 -0.2992
 3497TIP3    H131982   5.808   1.037  11.370  0.8573  1.9340 -1.4721
 3497TIP3    H231983   5.675   1.076  11.310 -0.4352  0.0473  0.1022
 3498TIP3   OH231984   4.700   5.601  11.263  0.1899 -0.0797  0.0193
 3498TIP3    H131985   4.637   5.643  11.205  0.7446  0.1407 -0.4228
 3498TIP3    H231986   4.738   5.674  11.313  1.5524  0.0070 -1.1380
 3499TIP3   OH231987   1.067   3.803  16.626 -0.1079  0.3702 -0.2644
 3499TIP3    H131988   0.975   3.806  16.652 -0.8813 -1.8815 -2.6338
 3499TIP3    H231989   1.105   3.734  16.680 -0.5020 -0.7179 -1.3681
 3500TIP3   OH231990   5.265   5.389   2.040  0.1396  0.4799 -0.5831
 3500TIP3    H131991   5.291   5.298   2.028  1.9570  0.9113 -0.0468
 3500TIP3    H231992   5.274   5.428   1.952 -2.3134 -0.2502 -1.1844
 3501TIP3   OH231993   2.517   3.936  12.861  0.5707 -0.2484 -0.4629
 3501TIP3    H131994   2.535   3.994  12.935 -1.2576  0.3845 -0.4642
 3501TIP3    H231995   2.582   3.960  12.795 -0.8446  2.6980 -0.9177
 3502TIP3   OH231996   3.462   5.457  14.466  0.0699  0.2535  0.1940
 3502TIP3    H131997   3.501   5.437  14.381  0.8413 -1.7185  0.9878
 3502TIP3    H231998   3.518   5.526  14.502 -0.1205  0.9279 -0.7799
 3503TIP3   OH231999   0.159   0.774  15.717  0.2227  0.1169 -0.0631
 3503TIP3    H132000   0.106   0.849  15.690  0.1157  0.1324  0.1973
 3503TIP3    H232001   0.195   0.740  15.635 -0.7885 -0.3448 -0.3194
 3504TIP3   OH232002   4.432   6.039  15.840  0.3011 -0.4318  0.0144
 3504TIP3    H132003   4.404   6.016  15.751  0.9910 -1.0288 -0.0504
 3504TIP3    H232004   4.355   6.022  15.894  0.0029 -0.4508 -0.4123
 3505TIP3   OH232005   2.631   5.568  14.343 -0.1648  0.0873 -0.1947
 3505TIP3    H132006   2.651   5.636  14.279 -1.2256 -0.0662 -0.6862
 3505TIP3    H232007   2.672   5.489  14.308  0.5287  0.3236  0.0658
 3506TIP3   OH232008   2.165   3.683   2.799  0.3132 -0.5982 -0.0629
 3506TIP3    H132009   2.215   3.709   2.877 -0.3040 -0.2671  0.2274
 3506TIP3    H232010   2.227   3.631   2.747  0.7767 -0.6903  0.5731
 3507TIP3   OH232011   1.754   5.950   0.357  0.1571  0.4814 -0.0891
 3507TIP3    H132012   1.750   5.918   0.447 -0.5531 -2.5058 -1.1361
 3507TIP3    H232013   1.790   6.039   0.365 -2.0413  1.1567  3.3323
 3508TIP3   OH232014   3.168   3.004  11.855 -0.2037 -0.1564  0.2526
 3508TIP3    H132015   3.073   3.004  11.862 -0.2492  1.1081 -0.2870
 3508TIP3    H232016   3.198   3.057  11.928 -0.0042  1.0194 -0.6760
 3509TIP3   OH232017   4.908   1.560   3.552 -0.1083  0.0579 -0.5890
 3509TIP3    H132018   4.873   1.616   3.622 -0.5312 -0.3003 -0.5120
 3509TIP3    H232019   4.963   1.497   3.596  0.1229  0.2217 -0.6440
 3510TIP3   OH232020   3.898   0.892   0.325 -0.0364 -0.7031  0.7479
 3510TIP3    H132021   3.951   0.846   0.391 -1.1638 -0.1596  2.0598
 3510TIP3    H232022   3.883   0.979   0.362 -2.0432 -0.9234  0.5416
 3511TIP3   OH232023   2.996   6.102   6.078  0.4426  0.2534  0.2287
 3511TIP3    H132024   2.973   6.101   6.171 -1.2933  1.7159 -0.1545
 3511TIP3    H232025   2.973   6.190   6.049 -0.7250 -0.7454 -1.9703
 3512TIP3   OH232026   6.622   5.212   1.376  0.0200  0.3898  0.3902
 3512TIP3    H132027   6.705   5.169   1.396  0.5151  0.0278 -2.2644
 3512TIP3    H232028   6.638   5.257   1.293 -1.9819  1.6139  0.6369
 3513TIP3   OH232029   3.455   4.258   3.146 -0.3665  0.7542  0.0601
 3513TIP3    H132030   3.447   4.180   3.201 -0.2303 -0.3389 -1.4286
 3513TIP3    H232031   3.438   4.226   3.057  1.8514  1.9950 -0.8512
 3514TIP3   OH232032   2.019   2.671   0.109  0.7694  0.3139 -0.0051
 3514TIP3    H132033   1.950   2.733   0.134 -1.1827 -1.6813 -0.3109
 3514TIP3    H232034   2.050   2.635   0.192 -0.1216 -0.4056  0.0262
 3515TIP3   OH232035   3.812   4.044   0.203  0.1699 -0.6238  0.1316
 3515TIP3    H132036   3.730   4.092   0.211 -0.3960 -1.5442 -0.0140
 3515TIP3    H232037   3.873   4.106   0.163 -0.5067 -0.0040  0.0551
 3516TIP3   OH232038   2.348   4.221  12.451 -0.0409 -1.0242 -0.3006
 3516TIP3    H132039   2.415   4.283  12.424  0.7633 -1.6746  0.1398
 3516TIP3    H232040   2.381   4.136  12.420  0.4963 -1.6661  1.9119
 3517TIP3   OH232041   2.471   5.429  11.439 -0.0130  0.0140  0.2343
 3517TIP3    H132042   2.377   5.436  11.458 -0.1787  0.3165 -0.6727
 3517TIP3    H232043   2.482   5.478  11.357  0.8918 -0.2548  0.1961
 3518TIP3   OH232044   4.483   6.334   5.338 -0.3301 -0.2254  0.0950
 3518TIP3    H132045   4.495   6.347   5.244 -0.4758 -0.6918  0.0089
 3518TIP3    H232046   4.468   6.422   5.373  0.1811 -0.0041 -0.2506
 3519TIP3   OH232047   3.108   3.923   0.860 -0.7051 -0.1344 -0.3223
 3519TIP3    H132048   3.127   3.835   0.826  1.8304  0.3972 -0.3920
 3519TIP3    H232049   3.128   3.982   0.787  0.7395  0.7246  0.7474
 3520TIP3   OH232050   4.719   0.307   1.567  0.4231 -0.2397  0.7691
 3520TIP3    H132051   4.781   0.241   1.538 -0.3006 -0.3059 -0.6618
 3520TIP3    H232052   4.654   0.312   1.497 -0.1518  1.1728  1.3728
 3521TIP3   OH232053   0.322   3.132  13.702 -0.2334 -0.6011  0.1535
 3521TIP3    H132054   0.311   3.220  13.667 -0.1899 -0.0863  1.4324
 3521TIP3    H232055   0.348   3.144  13.793  0.6538 -1.9285  0.1004
 3522TIP3   OH232056   5.862   0.780  12.489 -0.1136 -0.5149 -0.0266
 3522TIP3    H132057   5.899   0.713  12.432 -0.9414  0.0412 -1.2314
 3522TIP3    H232058   5.773   0.751  12.507 -1.1834  1.2389 -2.2282
 3523TIP3   OH232059   1.735   3.597  12.486 -0.1321 -0.2207  0.3043
 3523TIP3    H132060   1.826   3.592  12.516 -0.0733  1.6007  0.4870
 3523TIP3    H232061   1.734   3.544  12.407  1.7087  1.6621 -1.0635
 3524TIP3   OH232062   3.931   5.878  13.807 -0.0506  0.6803  0.2783
 3524TIP3    H132063   3.892   5.924  13.881 -1.2404 -1.6722  1.1598
 3524TIP3    H232064   4.007   5.833  13.844 -1.3667 -1.5272  0.4060
 3525TIP3   OH232065   3.132   1.713  16.232  0.2588  0.2189 -0.2125
 3525TIP3    H132066   3.225   1.689  16.238  0.4980  0.8425 -1.2429
 3525TIP3    H232067   3.124   1.789  16.290  0.6169  0.7709 -0.8733
 3526TIP3   OH232068   4.176   2.320   4.875  0.5459 -0.9120  0.3227
 3526TIP3    H132069   4.210   2.334   4.787 -0.0779 -0.7332  0.1092
 3526TIP3    H232070   4.121   2.242   4.867  1.6557 -1.7545  0.8691
 3527TIP3   OH232071   0.118   1.608   1.129 -0.2982 -0.5561 -0.7153
 3527TIP3    H132072   0.149   1.698   1.137 -4.1092  0.6675  1.4570
 3527TIP3    H232073   0.132   1.570   1.215 -2.5797 -0.6817 -0.3714
 3528TIP3   OH232074   4.952   1.997   0.820  0.1338 -0.4971  0.1455
 3528TIP3    H132075   4.939   2.088   0.795 -1.6974 -1.0102 -0.8515
 3528TIP3    H232076   5.046   1.990   0.837 -0.1469  2.2689  3.1987
 3529TIP3   OH232077   5.377   5.227  12.744 -0.0116  0.5990 -0.1818
 3529TIP3    H132078   5.397   5.225  12.837 -0.1566  0.8346 -0.1436
 3529TIP3    H232079   5.432   5.158  12.706  0.2098  0.6484  0.0466
 3530TIP3   OH232080   5.409   0.580  16.573 -0.3050  0.2128  0.2379
 3530TIP3    H132081   5.448   0.494  16.555 -0.4686  0.3269 -0.7081
 3530TIP3    H232082   5.482   0.641  16.569 -0.6553  0.5210 -2.2466
 3531TIP3   OH232083   5.292   2.797   4.618  0.1333 -0.3155 -0.4075
 3531TIP3    H132084   5.325   2.773   4.532  0.6212 -3.4151  0.5881
 3531TIP3    H232085   5.368   2.788   4.676 -1.0306 -1.7615  0.9308
 3532TIP3   OH232086   2.939   5.624  15.346 -0.2931 -0.2953 -0.0090
 3532TIP3    H132087   2.953   5.606  15.438  1.1116 -2.3473 -0.5949
 3532TIP3    H232088   3.023   5.657  15.314 -0.7421  0.3176 -0.5932
 3533TIP3   OH232089   3.764   4.851   1.239  0.1732 -0.3536 -0.3078
 3533TIP3    H132090   3.760   4.773   1.294 -2.4794 -1.1824 -1.5988
 3533TIP3    H232091   3.757   4.818   1.150  0.2447  1.2660 -0.9300
 3534TIP3   OH232092   6.105   0.895   3.616 -0.9334  0.6368  0.1858
 3534TIP3    H132093   6.100   0.954   3.691  2.4915  0.4829  0.5713
 3534TIP3    H232094   6.119   0.809   3.653 -2.5375  0.0397 -0.5365
 3535TIP3   OH232095   1.902   4.422   3.959  0.7842 -0.0634  0.0104
 3535TIP3    H132096   1.941   4.365   4.025  0.9775  1.7982  1.5597
 3535TIP3    H232097   1.973   4.483   3.935  0.4049 -0.0649 -1.1325
 3536TIP3   OH232098   5.789   1.133  11.777  0.1148  0.0611  0.0703
 3536TIP3    H132099   5.816   1.216  11.738 -0.2980 -0.2463 -0.8885
 3536TIP3    H232100   5.864   1.106  11.830  0.3624  0.9037  0.1605
 3537TIP3   OH232101   6.446   0.897  16.588 -0.4657 -0.0846 -0.0347
 3537TIP3    H132102   6.456   0.984  16.627 -0.0927  0.2504 -0.8770
 3537TIP3    H232103   6.364   0.863  16.626 -2.3947  1.9670 -2.2090
 3538TIP3   OH232104   5.750   0.771  15.392 -0.3423 -0.3979  0.4240
 3538TIP3    H132105   5.794   0.856  15.390 -1.7036  0.3057  0.3814
 3538TIP3    H232106   5.821   0.708  15.410  0.6088  0.7700  0.8172
 3539TIP3   OH232107   3.151   0.513   0.028  0.0690 -0.5609  0.6413
 3539TIP3    H132108   3.073   0.562   0.055  0.2801  1.1789 -1.7353
 3539TIP3    H232109   3.224   0.575   0.040  0.5015 -0.6676 -1.2498
 3540TIP3   OH232110   2.608   0.454  15.014 -0.1324 -0.0569 -0.2533
 3540TIP3    H132111   2.664   0.400  15.070 -1.6632 -0.0503  1.3294
 3540TIP3    H232112   2.571   0.519  15.074 -0.8088  0.7298 -1.5221
 3541TIP3   OH232113   2.185   3.161   5.817  0.2349 -0.0890  0.0811
 3541TIP3    H132114   2.129   3.135   5.890 -1.0504 -0.0697 -0.8864
 3541TIP3    H232115   2.267   3.189   5.859 -0.4887 -0.0638  1.5172
 3542TIP3   OH232116   1.700   0.856   3.090  0.2192  0.1724 -0.1583
 3542TIP3    H132117   1.624   0.870   3.034  0.7580  2.0539 -0.4662
 3542TIP3    H232118   1.663   0.835   3.176 -0.6893  2.3893  0.0304
 3543TIP3   OH232119   2.052   6.384   1.622 -0.1866 -0.1254 -0.0023
 3543TIP3    H132120   2.095   6.466   1.598 -1.5067  0.2662 -1.1198
 3543TIP3    H232121   1.960   6.398   1.599 -0.5063 -1.7589  0.2295
 3544TIP3   OH232122   5.733   2.775  13.025 -0.1789 -0.0252 -0.4960
 3544TIP3    H132123   5.672   2.729  13.082  0.7402  0.9571  1.3170
 3544TIP3    H232124   5.688   2.856  13.002 -0.3489 -0.1980 -0.7772
 3545TIP3   OH232125   6.358   1.743  12.441 -0.9400  0.0949  0.4806
 3545TIP3    H132126   6.412   1.745  12.520 -1.2645 -0.1196  0.7149
 3545TIP3    H232127   6.302   1.666  12.453 -1.4241  0.4203  0.3320
 3546TIP3   OH232128   0.413   5.916  11.336  0.2815  0.2621  0.1238
 3546TIP3    H132129   0.393   5.835  11.382  1.8641  0.6852  1.5851
 3546TIP3    H232130   0.479   5.892  11.271  1.5150  0.5370  1.2423
 3547TIP3   OH232131   5.264   4.881   3.383 -0.0142 -1.0238 -0.6074
 3547TIP3    H132132   5.304   4.968   3.381 -1.5765 -0.2311  1.3105
 3547TIP3    H232133   5.325   4.825   3.334  0.9047  1.1745 -2.0315
 3548TIP3   OH232134   0.192   1.069  14.436 -0.2469 -0.4468 -0.7554
 3548TIP3    H132135   0.127   1.118  14.487 -1.1197 -0.7683 -1.5351
 3548TIP3    H232136   0.154   1.063  14.348  0.6955 -0.9186 -1.1421
 3549TIP3   OH232137   1.221   4.352   3.760  0.0352 -0.7298 -0.0685
 3549TIP3    H132138   1.146   4.300   3.791 -0.7338  0.6469  0.4043
 3549TIP3    H232139   1.260   4.388   3.839 -0.1358  0.3718 -0.4808
 3550TIP3   OH232140   6.604   2.733  12.709 -0.1489 -0.4845  0.3155
 3550TIP3    H132141   6.565   2.661  12.758 -2.0646 -0.1100 -0.6020
 3550TIP3    H232142   6.573   2.812  12.752  0.7529 -0.1736  0.4189
 3551TIP3   OH232143   3.633   0.933   0.391 -0.0001 -0.2281 -0.1761
 3551TIP3    H132144   3.726   0.912   0.376  0.0086 -1.9213  1.9762
 3551TIP3    H232145   3.595   0.851   0.422 -2.4557  0.2231 -1.8245
 3552TIP3   OH232146   3.158   1.478  17.220 -0.3397  0.3160 -0.2389
 3552TIP3    H132147   3.159   1.504  17.313 -0.3587 -1.3766  0.2452
 3552TIP3    H232148   3.095   1.407  17.215 -0.1323  0.2067 -1.5143
 3553TIP3   OH232149   1.644   4.871   0.368 -0.2992  0.5644  0.2703
 3553TIP3    H132150   1.621   4.850   0.459 -0.8447 -1.0112 -0.2318
 3553TIP3    H232151   1.731   4.832   0.356 -0.0216  1.1775  0.2471
 3554TIP3   OH232152   3.239   6.546  12.445  0.3362  0.2127  0.2982
 3554TIP3    H132153   3.211   6.474  12.387  1.6335 -2.3216  2.7025
 3554TIP3    H232154   3.160   6.600  12.455 -0.7152 -0.9356 -1.4513
 3555TIP3   OH232155   5.766   5.767   1.898  0.1584  0.0289  0.5053
 3555TIP3    H132156   5.754   5.675   1.924 -0.7960 -0.3297 -1.0975
 3555TIP3    H232157   5.683   5.809   1.921  0.2733  0.2980  0.4293
 3556TIP3   OH232158   5.795   1.262   3.189  0.5054  0.5135 -0.0422
 3556TIP3    H132159   5.776   1.220   3.273  0.2066  0.7476  0.0085
 3556TIP3    H232160   5.888   1.245   3.174  0.0825 -1.3191 -0.6656
 3557TIP3   OH232161   5.153   2.036   0.550  0.0645  0.2428  0.0912
 3557TIP3    H132162   5.173   2.007   0.639 -1.2702 -0.0957  0.2866
 3557TIP3    H232163   5.217   2.105   0.533 -0.5205  1.2444  1.8148
 3558TIP3   OH232164   4.970   3.924  11.489 -0.3505  0.1201  0.2334
 3558TIP3    H132165   5.020   3.949  11.411 -0.4373 -0.8797 -0.1383
 3558TIP3    H232166   4.943   3.834  11.474 -0.0228 -0.2278  1.6005
 3559TIP3   OH232167   2.222   3.958  10.915 -0.0034  0.0974 -0.0745
 3559TIP3    H132168   2.275   3.886  10.947  0.4282  0.3915 -0.1232
 3559TIP3    H232169   2.182   3.995  10.994  1.3758  1.0733  0.1850
 3560TIP3   OH232170   4.112   0.556   1.156  0.1818 -0.0571 -0.0612
 3560TIP3    H132171   4.094   0.616   1.083 -0.5474 -0.7038 -0.4194
 3560TIP3    H232172   4.081   0.603   1.234  0.1914  0.2884 -0.2664
 3561TIP3   OH232173   6.605   1.116  14.791  0.0413 -0.9028 -0.2092
 3561TIP3    H132174   6.602   1.210  14.812 -0.1965 -0.9449 -0.0518
 3561TIP3    H232175   6.562   1.109  14.706 -1.7695 -1.1233  0.6941
 3562TIP3   OH232176   1.373   0.076  13.108  0.1567 -0.0448 -0.4803
 3562TIP3    H132177   1.332   0.154  13.146  1.2368  1.0705 -1.5593
 3562TIP3    H232178   1.460   0.072  13.149 -0.0298 -0.9148 -0.1471
 3563TIP3   OH232179   0.002   3.518   6.107 -0.8915  0.6057  0.4096
 3563TIP3    H132180  -0.023   3.433   6.143 -0.4609  0.0670 -0.5202
 3563TIP3    H232181  -0.023   3.581   6.174 -0.1945 -0.3551  1.6056
 3564TIP3   OH232182   0.706   4.215  12.536 -0.4729 -0.0088 -0.3784
 3564TIP3    H132183   0.798   4.188  12.531 -0.5733 -0.1387 -1.7388
 3564TIP3    H232184   0.659   4.148  12.486 -0.8888  1.9140 -2.6424
 3565TIP3   OH232185   1.235   1.262  15.159 -0.1147  0.2766  0.5440
 3565TIP3    H132186   1.283   1.213  15.226  1.4975  0.3392 -0.5501
 3565TIP3    H232187   1.203   1.340  15.205 -2.3982 -1.5678  2.2018
 3566TIP3   OH232188   3.052   4.492   1.050  0.8857 -0.6050  0.9071
 3566TIP3    H132189   3.126   4.552   1.047 -0.7450  1.4062  0.0771
 3566TIP3    H232190   3.082   4.415   1.003  2.3357  0.2897  0.3207
 3567TIP3   OH232191   2.048   2.821  13.266  0.2627 -0.3184  0.0237
 3567TIP3    H132192   1.961   2.790  13.241  0.3233 -0.0353 -0.5481
 3567TIP3    H232193   2.082   2.862  13.187  0.9097 -0.4147  0.2521
 3568TIP3   OH232194   5.372   3.932  12.837 -0.7943 -0.1234 -0.2334
 3568TIP3    H132195   5.450   3.880  12.855 -0.3044  0.4742 -0.6044
 3568TIP3    H232196   5.300   3.881  12.875 -0.3420 -1.1118 -0.6703
 3569TIP3   OH232197   1.955   5.334   4.317  0.4528  0.2631  0.9637
 3569TIP3    H132198   2.012   5.392   4.368  2.4603 -0.7284 -0.0845
 3569TIP3    H232199   1.997   5.248   4.324 -0.9262 -0.4770  0.1490
 3570TIP3   OH232200   5.911   5.573  12.019 -0.5679  0.2158 -0.5451
 3570TIP3    H132201   5.974   5.516  11.974 -0.4646  0.3137 -0.5248
 3570TIP3    H232202   5.916   5.656  11.972 -0.1916  0.4327 -0.1257
 3571TIP3   OH232203   0.935   3.881   0.633  0.5791  0.0742 -0.2614
 3571TIP3    H132204   0.887   3.799   0.638  1.4820 -0.4353  0.1834
 3571TIP3    H232205   0.911   3.929   0.712  1.9668 -0.8301  0.7211
 3572TIP3   OH232206   6.507   5.957   5.896 -0.1915  0.0603  0.1207
 3572TIP3    H132207   6.528   5.868   5.867 -0.1836  0.2208 -0.3636
 3572TIP3    H232208   6.535   5.959   5.988 -1.5948 -0.9007  0.5800
 3573TIP3   OH232209   5.214   4.901  10.963  0.0460 -0.8340 -0.0562
 3573TIP3    H132210   5.287   4.908  10.900 -0.5716  1.9664 -0.5200
 3573TIP3    H232211   5.161   4.829  10.929  1.3535 -1.3794 -1.0213
 3574TIP3   OH232212   5.910   3.605  10.491  0.3205 -0.2030 -0.4316
 3574TIP3    H132213   5.940   3.520  10.458  1.4047  1.0285 -2.8006
 3574TIP3    H232214   5.906   3.660  10.413 -0.7336  1.8217  1.0108
 3575TIP3   OH232215   0.622   5.892  14.980 -0.3625 -0.0741  0.3315
 3575TIP3    H132216   0.711   5.882  14.945 -0.8040 -0.1751 -0.7958
 3575TIP3    H232217   0.596   5.980  14.953 -1.3494 -0.7866 -1.1095
 3576TIP3   OH232218   3.666   5.549   6.657  0.4195  0.0409 -0.4767
 3576TIP3    H132219   3.689   5.459   6.633  1.5488  0.1727  0.1096
 3576TIP3    H232220   3.576   5.559   6.626  0.3172 -1.2606 -0.6337
 3577TIP3   OH232221   4.578   1.266  15.050  0.2913  0.3887  0.8293
 3577TIP3    H132222   4.636   1.316  14.992  0.7583  0.7899  1.6382
 3577TIP3    H232223   4.633   1.196  15.085 -0.4599 -0.9381 -0.5875
 3578TIP3   OH232224   3.262   5.239   2.094 -0.2653 -0.1130  0.0307
 3578TIP3    H132225   3.288   5.263   2.005  2.4115 -0.4656  0.6731
 3578TIP3    H232226   3.262   5.321   2.142  2.4370 -0.4339  0.6642
 3579TIP3   OH232227   5.706   3.578  10.695 -0.2284  0.3754  0.2893
 3579TIP3    H132228   5.644   3.652  10.691  2.8926  3.0648 -0.0347
 3579TIP3    H232229   5.743   3.573  10.608  0.5274 -0.7837  0.6738
 3580TIP3   OH232230   5.108   1.211  14.305 -0.4209 -0.4128  0.3591
 3580TIP3    H132231   5.014   1.205  14.325 -0.3104 -0.6238  0.8236
 3580TIP3    H232232   5.114   1.191  14.212 -0.7349 -1.4001  0.5450
 3581TIP3   OH232233   4.262   1.897  13.519  0.1613 -0.2572 -0.3265
 3581TIP3    H132234   4.193   1.847  13.475  0.0001 -0.9358  0.6672
 3581TIP3    H232235   4.294   1.838  13.588  1.6803  0.0711 -0.7162
 3582TIP3   OH232236   2.999   2.434   4.974 -0.2477 -0.1330  0.2108
 3582TIP3    H132237   3.034   2.387   4.899 -2.2581 -0.4554 -0.5499
 3582TIP3    H232238   2.954   2.368   5.026 -0.5293  0.4175  0.6848
 3583TIP3   OH232239   4.766   0.060   2.313 -0.0491 -0.2625  0.2450
 3583TIP3    H132240   4.820   0.137   2.329  0.6420 -0.6895 -0.0252
 3583TIP3    H232241   4.740   0.068   2.221  0.8210 -0.8444 -0.0598
 3584TIP3   OH232242   5.048   4.460   2.222  0.8015 -0.7017 -1.1037
 3584TIP3    H132243   5.015   4.394   2.283  1.8435 -0.3708 -0.1680
 3584TIP3    H232244   4.972   4.485   2.170 -0.2122 -0.6317  0.3862
 3585TIP3   OH232245   2.340   0.079  12.145  0.1265 -0.2987 -0.0491
 3585TIP3    H132246   2.343   0.019  12.070 -0.6967  0.2630 -0.5401
 3585TIP3    H232247   2.255   0.061  12.186  0.9646 -1.2464  1.2850
 3586TIP3   OH232248   0.988   4.524  11.000  0.1014 -0.3699  0.2663
 3586TIP3    H132249   0.922   4.591  10.981 -0.0579 -0.4976  0.3570
 3586TIP3    H232250   1.067   4.573  11.023 -0.1861 -0.2099  0.9286
 3587TIP3   OH232251   5.105   6.134   0.148 -0.0532 -0.0990 -0.3385
 3587TIP3    H132252   5.037   6.193   0.116  0.7118  1.3136  0.5635
 3587TIP3    H232253   5.141   6.094   0.069  0.3892  1.7300 -1.0913
 3588TIP3   OH232254   6.464   4.005  14.568  0.3875  0.6063 -0.3787
 3588TIP3    H132255   6.550   3.966  14.553 -0.2523 -0.2336 -2.1200
 3588TIP3    H232256   6.418   3.941  14.623  1.1085  1.4145  1.2000
 3589TIP3   OH232257   1.065   3.624  15.925 -0.3373 -0.4222  0.1342
 3589TIP3    H132258   1.117   3.684  15.873 -2.1631 -0.5103 -1.8385
 3589TIP3    H232259   1.027   3.678  15.994  0.6550  0.0331  0.3302
 3590TIP3   OH232260   6.633   3.131   2.611  0.3058  0.3264 -0.0955
 3590TIP3    H132261   6.715   3.132   2.562  2.5213 -0.0067  3.4491
 3590TIP3    H232262   6.620   3.039   2.635 -1.3415  0.3130 -0.9139
 3591TIP3   OH232263   4.619   0.651  13.408 -0.0182  0.2424 -0.5435
 3591TIP3    H132264   4.651   0.561  13.400 -3.1337 -1.1119  1.3736
 3591TIP3    H232265   4.688   0.704  13.368  3.6791 -2.6261  1.6588
 3592TIP3   OH232266   3.090   6.533   3.430  0.0582  0.1689 -0.0385
 3592TIP3    H132267   3.059   6.497   3.513 -0.7484  0.4416 -0.2228
 3592TIP3    H232268   3.179   6.562   3.449 -0.7976  2.0015  1.2597
 3593TIP3   OH232269   5.755   1.994  13.467 -0.1005 -0.1696  0.0063
 3593TIP3    H132270   5.817   2.003  13.540 -0.3106 -0.9915  0.2929
 3593TIP3    H232271   5.748   1.900  13.454 -2.6860 -0.1861  1.1981
 3594TIP3   OH232272   6.617   6.656  13.247  0.5771  0.3164  0.0835
 3594TIP3    H132273   6.712   6.661  13.253  0.6439  0.2852 -0.9169
 3594TIP3    H232274   6.592   6.734  13.196  0.0844  0.2270  0.1882
 3595TIP3   OH232275   0.675   2.863  13.221 -0.2261  0.1443 -0.0893
 3595TIP3    H132276   0.620   2.785  13.229 -0.4509  0.3363  0.2258
 3595TIP3    H232277   0.712   2.876  13.308  0.6998 -0.2621 -0.4182
 3596TIP3   OH232278   0.359   1.639  12.660 -0.2666 -0.1323 -0.3753
 3596TIP3    H132279   0.270   1.672  12.668 -0.5969 -1.5514  2.8404
 3596TIP3    H232280   0.352   1.563  12.602 -0.6816  1.2418 -2.1603
 3597TIP3   OH232281   3.180   2.527  17.135 -0.0407 -0.2355  0.4264
 3597TIP3    H132282   3.258   2.472  17.146  0.1276  0.2336  1.7836
 3597TIP3    H232283   3.109   2.477  17.174 -0.4562 -0.7284 -0.9542
 3598TIP3   OH232284   3.543   3.967   1.999 -0.1332 -0.3752  0.1912
 3598TIP3    H132285   3.552   4.006   2.086 -1.0736 -0.6166  0.4047
 3598TIP3    H232286   3.543   3.872   2.015  3.1803 -0.5429 -0.4207
 3599TIP3   OH232287   4.668   6.044  10.421  0.0664  0.1739 -0.3130
 3599TIP3    H132288   4.673   5.959  10.377  0.1737  0.6315 -1.2086
 3599TIP3    H232289   4.616   6.028  10.499  0.3719 -0.7886 -0.3019
 3600TIP3   OH232290   5.873   2.170   0.208 -0.1759  0.0453 -0.8750
 3600TIP3    H132291   5.882   2.265   0.221 -1.1201 -0.0535  0.6718
 3600TIP3    H232292   5.814   2.162   0.134  2.2866  0.6546 -2.9686
 3601TIP3   OH232293   0.237   5.928  11.020 -0.8664  0.2780 -0.5273
 3601TIP3    H132294   0.168   5.989  10.995 -0.7870  0.8273  0.5703
 3601TIP3    H232295   0.287   5.974  11.088 -2.0997 -1.8021  1.8542
 3602TIP3   OH232296   4.898   6.571  13.397  0.2068  0.0851 -0.0176
 3602TIP3    H132297   4.929   6.538  13.313 -2.3198  1.5369 -1.5984
 3602TIP3    H232298   4.900   6.666  13.387  1.0138  0.3007  2.0144
 3603TIP3   OH232299   4.947   2.540  11.583 -0.7153  0.2815 -0.0332
 3603TIP3    H132300   5.018   2.546  11.647 -1.1241  0.5814  0.3967
 3603TIP3    H232301   4.962   2.614  11.524  0.5482 -0.8841 -1.2056
 3604TIP3   OH232302   1.541   1.746  15.590 -0.0566 -0.1990 -0.0872
 3604TIP3    H132303   1.598   1.729  15.515 -0.3399 -1.1347 -0.0919
 3604TIP3    H232304   1.571   1.686  15.658 -0.3702  0.0303  0.2585
 3605TIP3   OH232305   1.961   2.441   5.335 -0.1281  0.0241 -0.3628
 3605TIP3    H132306   1.922   2.367   5.383 -2.0704  0.0778 -1.7947
 3605TIP3    H232307   1.986   2.404   5.250  0.9994  0.4984 -0.2421
 3606TIP3   OH232308   2.295   6.581  14.320  0.3844 -0.0509 -0.0568
 3606TIP3    H132309   2.362   6.643  14.290 -0.3775  0.9881  0.3446
 3606TIP3    H232310   2.343   6.501  14.340  1.3463  0.3110 -0.8921
 3607TIP3   OH232311   0.060   4.028   6.101  0.1095 -0.1142 -0.4375
 3607TIP3    H132312   0.138   4.083   6.107  0.5045 -0.9662  3.3017
 3607TIP3    H232313  -0.013   4.089   6.106  0.5273  0.1530  4.4927
 3608TIP3   OH232314   3.607   2.390   4.570  0.5691  0.7168 -0.4107
 3608TIP3    H132315   3.607   2.479   4.537  1.4972  1.5512  1.7511
 3608TIP3    H232316   3.694   2.378   4.608 -0.0437 -0.5872  0.6368
 3609TIP3   OH232317   1.458   4.999   6.161  0.8890  0.5646  0.6503
 3609TIP3    H132318   1.551   4.980   6.170  0.2074 -2.5012  2.1501
 3609TIP3    H232319   1.429   4.945   6.088  0.2724  1.4770  0.2125
 3610TIP3   OH232320   6.731   1.127   2.700 -0.0792 -0.1434  0.0388
 3610TIP3    H132321   6.816   1.085   2.687 -0.2825 -0.2971 -0.7863
 3610TIP3    H232322   6.673   1.056   2.727  0.1546  0.0419  1.0830
 3611TIP3   OH232323   3.430   5.230   3.661 -0.2420  0.1004  0.4293
 3611TIP3    H132324   3.408   5.161   3.723 -0.1690  0.2058  0.5751
 3611TIP3    H232325   3.455   5.184   3.581  2.4154 -0.1584  1.3286
 3612TIP3   OH232326   4.857   6.303  17.079  0.1300  0.0171  0.2857
 3612TIP3    H132327   4.880   6.272  16.991  0.2933  0.4246  0.1872
 3612TIP3    H232328   4.772   6.346  17.067 -0.0932 -0.3776  0.4276
 3613TIP3   OH232329   4.607   3.148  14.096 -0.3373 -0.6641  0.1268
 3613TIP3    H132330   4.513   3.141  14.114 -0.7360 -2.2969 -2.2822
 3613TIP3    H232331   4.649   3.103  14.169 -1.4567 -0.4948  0.8971
 3614TIP3   OH232332   0.050   5.615  16.432 -0.1045  0.0707 -0.5562
 3614TIP3    H132333  -0.031   5.568  16.415  0.5237 -1.4672  0.6088
 3614TIP3    H232334   0.023   5.699  16.469 -1.1514 -0.5423  0.0809
 3615TIP3   OH232335   3.963   2.467   4.415 -0.4801  0.3086  0.4414
 3615TIP3    H132336   4.026   2.458   4.343  0.2795  3.7411  0.5785
 3615TIP3    H232337   3.881   2.488   4.372 -1.0547 -1.9138  0.3912
 3616TIP3   OH232338   1.576   4.766   1.810 -0.5276 -0.0370  0.5956
 3616TIP3    H132339   1.640   4.701   1.783 -0.4937  0.6769 -1.0940
 3616TIP3    H232340   1.497   4.744   1.760 -0.2432  1.7469 -0.6733
 3617TIP3   OH232341   6.377   0.182   2.536  0.3383  0.0506 -0.1879
 3617TIP3    H132342   6.323   0.136   2.472 -0.1079 -0.2695  0.4126
 3617TIP3    H232343   6.317   0.242   2.580  0.0426 -1.5538  1.6964
 3618TIP3   OH232344   0.964   3.102  17.187  0.2924 -0.3051  0.1950
 3618TIP3    H132345   0.954   3.056  17.103 -0.0820 -0.9964  0.6131
 3618TIP3    H232346   1.030   3.052  17.234  0.1561 -0.2007  0.5045
 3619TIP3   OH232347   6.050   0.354  11.589 -0.1074  0.5757 -0.5135
 3619TIP3    H132348   5.985   0.352  11.520  1.5481 -1.0552 -2.0795
 3619TIP3    H232349   6.005   0.320  11.666 -0.8479 -1.5978 -1.8563
 3620TIP3   OH232350   0.325   3.944  16.006  0.4246 -0.4210  0.0957
 3620TIP3    H132351   0.401   3.909  15.959 -1.8959 -1.4410 -3.1168
 3620TIP3    H232352   0.282   3.867  16.043 -0.5599 -0.1601 -0.5016
 3621TIP3   OH232353   6.660   5.299   3.032  0.1693  0.0087  0.4418
 3621TIP3    H132354   6.643   5.348   2.952  2.6720  0.0333 -0.1229
 3621TIP3    H232355   6.621   5.351   3.102  1.1882  1.9048 -0.3577
 3622TIP3   OH232356   1.230   1.990  16.772  0.0967  0.1771  0.0005
 3622TIP3    H132357   1.222   2.058  16.839 -0.2914  1.2178 -1.0782
 3622TIP3    H232358   1.310   1.943  16.796  0.7400  1.4273  0.4056
 3623TIP3   OH232359   1.953   5.112  10.501  0.2109 -0.2598  0.2376
 3623TIP3    H132360   2.030   5.169  10.504 -0.4536  0.8326 -2.1597
 3623TIP3    H232361   1.988   5.024  10.512  1.4064  0.4604  2.6667
 3624TIP3   OH232362   4.219   3.085  17.031 -0.0950  0.4959 -0.8645
 3624TIP3    H132363   4.153   3.129  16.979  1.2577  1.3524 -1.8823
 3624TIP3    H232364   4.302   3.120  17.000  0.8225 -0.1554  0.7652
 3625TIP3   OH232365   3.311   6.652   6.251 -0.0471 -0.3291  0.5197
 3625TIP3    H132366   3.328   6.680   6.341  1.0054  0.1900  0.1711
 3625TIP3    H232367   3.248   6.580   6.259 -1.6882  1.1683  1.5321
 3626TIP3   OH232368   6.306   4.415   2.597 -0.0688 -0.2548  0.0673
 3626TIP3    H132369   6.373   4.448   2.536 -0.9715  1.3696 -0.0684
 3626TIP3    H232370   6.346   4.423   2.683  0.3832 -0.4880 -0.1157
 3627TIP3   OH232371   1.878   2.099   1.939 -0.0956 -0.2115 -0.5638
 3627TIP3    H132372   1.956   2.056   1.905  1.1244  0.4560  1.3373
 3627TIP3    H232373   1.805   2.053   1.897  1.2793 -1.5640 -1.5098
 3628TIP3   OH232374   3.694   4.864   0.901  0.5767 -0.3600 -0.1492
 3628TIP3    H132375   3.708   4.942   0.847 -3.0236  0.7679  0.4623
 3628TIP3    H232376   3.696   4.792   0.838  2.2832  0.3415 -0.9406
 3629TIP3   OH232377   6.772   4.838  16.244 -0.0136  0.5600 -0.3999
 3629TIP3    H132378   6.796   4.816  16.154 -0.9042  2.4604 -1.1328
 3629TIP3    H232379   6.727   4.760  16.277 -0.6265  0.2389 -1.9741
 3630TIP3   OH232380   6.002   1.461  12.811 -0.0844  0.2815  0.5067
 3630TIP3    H132381   5.942   1.390  12.832 -2.0009  1.4579 -0.9161
 3630TIP3    H232382   5.991   1.524  12.882 -0.9684  0.7618 -0.0523
 3631TIP3   OH232383   5.532   1.431  15.201 -0.2615  0.2681 -0.0164
 3631TIP3    H132384   5.567   1.478  15.125 -1.4061  1.1221 -0.0336
 3631TIP3    H232385   5.502   1.501  15.260 -1.4565 -0.4325  0.2201
 3632TIP3   OH232386   1.260   0.962   4.926  0.1376 -0.5187  0.0344
 3632TIP3    H132387   1.351   0.980   4.902  0.3464 -1.7611 -0.1578
 3632TIP3    H232388   1.215   1.045   4.912  1.2756  0.1571  0.3032
 3633TIP3   OH232389   6.575   6.289  12.230  0.2980  0.2327 -0.1641
 3633TIP3    H132390   6.489   6.264  12.195 -0.5017  4.1490 -1.2313
 3633TIP3    H232391   6.558   6.315  12.320  0.8374 -1.3772  0.4191
 3634TIP3   OH232392   2.008   5.674  12.886  0.3501  0.2704  0.3750
 3634TIP3    H132393   1.958   5.722  12.820  0.3457  0.0424  0.2136
 3634TIP3    H232394   2.038   5.742  12.946  3.2153  0.9147 -1.6896
 3635TIP3   OH232395   5.515   0.565   1.755  0.0420  0.3544 -0.5611
 3635TIP3    H132396   5.438   0.620   1.738  0.9133  2.2456  1.4212
 3635TIP3    H232397   5.589   0.621   1.730  0.8614 -0.7102 -0.5160
 3636TIP3   OH232398   3.680   0.529   3.672 -0.5160 -0.0838 -0.0821
 3636TIP3    H132399   3.596   0.513   3.630 -1.3655 -1.0782  1.8965
 3636TIP3    H232400   3.665   0.608   3.725  0.7354  1.5608 -2.0813
 3637TIP3   OH232401   0.033   2.881   0.065 -0.4452  0.8069 -0.1308
 3637TIP3    H132402   0.006   2.952   0.123 -3.2470 -0.9698  0.8410
 3637TIP3    H232403   0.061   2.811   0.123 -0.0217  0.2257 -1.0196
 3638TIP3   OH232404   0.090   0.214   1.007 -0.4200 -0.1617 -0.3596
 3638TIP3    H132405   0.128   0.151   0.947 -0.0414  0.6295 -0.9495
 3638TIP3    H232406   0.077   0.164   1.089  0.8688 -0.7089 -0.4836
 3639TIP3   OH232407   6.304   2.435   5.813 -0.0507  0.5532 -0.0913
 3639TIP3    H132408   6.367   2.363   5.816  1.2019  1.5003 -2.1917
 3639TIP3    H232409   6.356   2.511   5.788 -1.9796  1.4006 -1.6458
 3640TIP3   OH232410   2.819   2.602  14.146  0.3045 -0.8824  0.2451
 3640TIP3    H132411   2.871   2.643  14.077 -0.9360 -0.2941 -0.3564
 3640TIP3    H232412   2.870   2.525  14.172  1.4427 -0.3435 -0.3561
 3641TIP3   OH232413   5.028   0.194  12.534  0.1173 -0.4060 -0.4808
 3641TIP3    H132414   4.935   0.200  12.513  0.3263 -0.9376 -1.5778
 3641TIP3    H232415   5.038   0.248  12.612 -0.7324  1.3194 -1.5333
 3642TIP3   OH232416   0.138   5.452   3.908 -0.1752  0.2599 -0.2464
 3642TIP3    H132417   0.229   5.452   3.938 -0.2243  0.4776 -0.0911
 3642TIP3    H232418   0.091   5.400   3.972 -0.5163  1.8501  0.8064
 3643TIP3   OH232419   1.843   4.407  14.761  0.2857 -0.3203  0.4843
 3643TIP3    H132420   1.799   4.337  14.714  0.5491 -0.3412  0.2627
 3643TIP3    H232421   1.916   4.364  14.806  0.7144 -0.1220 -0.0123
 3644TIP3   OH232422   0.227   4.992   5.557  0.1971  0.3893 -0.0060
 3644TIP3    H132423   0.234   4.999   5.652  2.1264 -1.8946  0.0864
 3644TIP3    H232424   0.199   5.078   5.528  0.5791  1.4132  2.5574
 3645TIP3   OH232425   0.131   4.053  15.591  0.5946 -0.7164  0.1518
 3645TIP3    H132426   0.226   4.064  15.592  0.3060  2.1626 -0.0522
 3645TIP3    H232427   0.111   4.022  15.503  1.1202  1.1057 -0.6201
 3646TIP3   OH232428   0.247   0.002  16.450  0.7318  0.0852  0.5758
 3646TIP3    H132429   0.239  -0.087  16.417 -2.5431  0.1394  1.1155
 3646TIP3    H232430   0.338   0.008  16.480  1.9672 -1.9755 -2.5107
 3647TIP3   OH232431   5.602   3.411  13.688  0.2354 -0.3225  0.1678
 3647TIP3    H132432   5.633   3.398  13.777  1.4821  1.3501  0.0150
 3647TIP3    H232433   5.662   3.476  13.651 -2.1581  1.4054 -0.8419
 3648TIP3   OH232434   1.027   3.829   4.066 -0.1739 -0.0058 -0.1232
 3648TIP3    H132435   0.995   3.765   4.003  0.0919 -0.7826  0.5258
 3648TIP3    H232436   1.122   3.816   4.069  0.1152  1.6494 -1.3297
 3649TIP3   OH232437   1.548   4.089   0.030  0.0188  0.0618  0.3616
 3649TIP3    H132438   1.536   4.033  -0.047 -0.3171  1.6820 -0.8042
 3649TIP3    H232439   1.554   4.178  -0.006  1.5361  0.6831  2.0890
 3650TIP3   OH232440   1.803   5.899  14.044 -0.1986 -0.4274  0.1645
 3650TIP3    H132441   1.860   5.844  13.989  0.5962 -1.0463  1.5877
 3650TIP3    H232442   1.732   5.926  13.985  1.2503 -0.1199 -1.4901
 3651TIP3   OH232443   1.274   4.807  16.985 -0.3723 -0.5274 -0.1937
 3651TIP3    H132444   1.276   4.902  16.975 -0.3342 -0.5841 -0.7492
 3651TIP3    H232445   1.367   4.781  16.989 -0.3779 -0.5866 -0.4706
 3652TIP3   OH232446   2.928   2.402  13.828  0.0252 -0.2728 -0.1443
 3652TIP3    H132447   2.930   2.375  13.736 -5.0318 -2.1873  0.1273
 3652TIP3    H232448   2.970   2.330  13.875  0.5290 -0.3802 -0.7581
 3653TIP3   OH232449   0.169   1.703   5.490 -0.6965  0.2671  0.3233
 3653TIP3    H132450   0.139   1.660   5.410 -1.2682 -0.3739  0.8801
 3653TIP3    H232451   0.091   1.712   5.544  0.0404 -1.2286  1.6867
 3654TIP3   OH232452   5.111   4.990  10.309 -0.4484  0.0265  0.3703
 3654TIP3    H132453   5.075   4.907  10.339 -0.1847 -0.0801  0.3908
 3654TIP3    H232454   5.042   5.054  10.327 -1.3886 -0.4823 -1.3275
 3655TIP3   OH232455   3.399   6.714   1.212 -0.6720  0.2354 -0.3361
 3655TIP3    H132456   3.368   6.627   1.187 -0.5422 -0.1464  0.8033
 3655TIP3    H232457   3.320   6.763   1.232 -0.7461  0.3964 -0.9968
 3656TIP3   OH232458   3.507   2.496  11.991  0.3700  0.0751  0.7652
 3656TIP3    H132459   3.413   2.502  12.007  0.3491  0.6294  0.4725
 3656TIP3    H232460   3.538   2.586  12.002  0.3222  0.5383 -2.3620
 3657TIP3   OH232461   5.483   0.999  16.239  0.3357 -0.1226 -0.5470
 3657TIP3    H132462   5.520   1.064  16.299 -0.4770 -0.6303  0.5060
 3657TIP3    H232463   5.444   0.933  16.296 -0.4888 -0.5764 -1.6342
 3658TIP3   OH232464   4.038   0.227  10.508  0.0108  0.0062  0.3695
 3658TIP3    H132465   3.980   0.214  10.583  0.4080 -1.7947  0.3714
 3658TIP3    H232466   4.092   0.148  10.504 -0.5070 -0.2858 -2.2641
 3659TIP3   OH232467   4.727   4.341   4.919  0.1398 -0.1144 -0.2679
 3659TIP3    H132468   4.655   4.384   4.874  0.7256  1.7570  0.5325
 3659TIP3    H232469   4.702   4.248   4.923 -1.4197  0.2487 -1.4767
 3660TIP3   OH232470   2.970   1.980   5.104  0.2727 -0.4258 -0.5775
 3660TIP3    H132471   2.976   1.953   5.195  3.7066 -0.8000 -0.8347
 3660TIP3    H232472   2.989   1.900   5.054 -2.8320 -0.5368 -1.7110
 3661TIP3   OH232473   3.621   3.201   2.167  0.1872 -0.1309 -0.4348
 3661TIP3    H132474   3.564   3.130   2.138  0.1040  0.3193 -1.4050
 3661TIP3    H232475   3.590   3.278   2.119  0.5365  0.4694  0.2991
 3662TIP3   OH232476   0.782   1.897  11.203  0.4200  0.0062 -0.3594
 3662TIP3    H132477   0.688   1.883  11.190  0.7707 -0.7411 -2.4031
 3662TIP3    H232478   0.814   1.920  11.115  2.6830 -3.0859 -0.4065
 3663TIP3   OH232479   4.434   6.445   1.757  0.5025  0.2528  0.7629
 3663TIP3    H132480   4.400   6.513   1.814  1.0620  2.4182 -1.4227
 3663TIP3    H232481   4.527   6.438   1.780  0.3712 -0.0171  1.2141
 3664TIP3   OH232482   5.399   0.372   0.517 -0.2065 -0.2530 -0.1561
 3664TIP3    H132483   5.329   0.376   0.583  0.5564 -0.7820  0.6873
 3664TIP3    H232484   5.387   0.287   0.475 -0.7367  0.1142 -0.7541
 3665TIP3   OH232485   3.132   1.945  12.653  0.9901  0.4279  0.3223
 3665TIP3    H132486   3.131   2.018  12.715  1.6335  0.7790 -0.0806
 3665TIP3    H232487   3.145   1.867  12.707  2.8717  0.8595  0.5029
 3666TIP3   OH232488   1.312   0.146   4.598 -0.1019  0.3015 -0.0071
 3666TIP3    H132489   1.241   0.187   4.647  0.1225 -1.0668  1.5089
 3666TIP3    H232490   1.381   0.132   4.663  0.5555 -0.6874 -0.9041
 3667TIP3   OH232491   2.794   1.237   0.578  0.1180  0.8545 -0.0097
 3667TIP3    H132492   2.755   1.299   0.517  0.4118  1.2515  0.2083
 3667TIP3    H232493   2.789   1.153   0.532  0.8203  1.2383 -0.8147
 3668TIP3   OH232494   1.521   1.233   3.885 -0.4557  0.2522 -0.3171
 3668TIP3    H132495   1.555   1.323   3.887  0.3644 -0.0419 -1.2402
 3668TIP3    H232496   1.589   1.182   3.843 -0.6878 -0.9191  0.7091
 3669TIP3   OH232497   0.721   0.097  11.885  0.1651  0.2597 -0.3103
 3669TIP3    H132498   0.754   0.105  11.974 -1.0765  1.5342  0.0518
 3669TIP3    H232499   0.664   0.020  11.887  3.8372 -2.6584 -1.2137
 3670TIP3   OH232500   3.488   2.587   0.497  0.1432 -0.6309 -0.1526
 3670TIP3    H132501   3.541   2.546   0.565  1.3615  0.1405 -0.6148
 3670TIP3    H232502   3.411   2.620   0.543  1.4972  0.9091  1.0712
 3671TIP3   OH232503   2.960   2.405  11.972 -0.8098  0.0425 -0.1027
 3671TIP3    H132504   2.899   2.478  11.959 -1.8797 -0.9673 -0.8331
 3671TIP3    H232505   2.918   2.331  11.930  1.3047 -0.5161 -1.2865
 3672TIP3   OH232506   4.017   0.018   3.008 -0.4650 -0.2886 -0.1414
 3672TIP3    H132507   3.933   0.064   3.007 -0.6314 -0.5682  0.9333
 3672TIP3    H232508   4.079   0.080   2.969 -1.4432 -0.6193 -2.2753
 3673TIP3   OH232509   6.767   1.720   0.817 -0.4760 -0.4740  1.1107
 3673TIP3    H132510   6.848   1.671   0.806 -0.8528 -0.9591  0.4194
 3673TIP3    H232511   6.716   1.700   0.738 -0.9589  0.4058  1.1928
 3674TIP3   OH232512   5.142   6.097  16.932 -0.4115 -0.4465 -0.3532
 3674TIP3    H132513   5.198   6.166  16.897 -1.9938  1.8422  1.4933
 3674TIP3    H232514   5.124   6.040  16.857  1.1735  0.9533 -1.8379
 3675TIP3   OH232515   3.510   1.922  15.299 -0.2791  1.0801 -0.4470
 3675TIP3    H132516   3.596   1.919  15.256  0.5066  2.5428  0.9340
 3675TIP3    H232517   3.507   2.010  15.338 -3.2838  1.7991 -2.2042
 3676TIP3   OH232518   3.384   4.284  14.150 -0.3274 -0.2643 -0.0929
 3676TIP3    H132519   3.435   4.208  14.176  0.4292  0.3034  0.1167
 3676TIP3    H232520   3.448   4.354  14.142 -0.8849  0.1405 -1.1547
 3677TIP3   OH232521   1.241   2.488   1.396  0.1418 -0.1318  0.1828
 3677TIP3    H132522   1.150   2.500   1.368 -0.3572  1.1786  2.2153
 3677TIP3    H232523   1.282   2.573   1.383  0.9922 -0.6272 -0.4067
 3678TIP3   OH232524   3.228   1.314   5.063  0.0155 -0.1100 -0.1645
 3678TIP3    H132525   3.255   1.401   5.034  1.0080  0.5905  2.6988
 3678TIP3    H232526   3.136   1.324   5.087  0.2312  0.2753  0.5278
 3679TIP3   OH232527   5.016   1.955   3.205  0.4096 -0.5094 -0.2219
 3679TIP3    H132528   5.093   1.975   3.151  0.1890  1.2429  0.0682
 3679TIP3    H232529   4.943   1.995   3.157  0.3140  1.8152  1.7416
 3680TIP3   OH232530   4.333   0.757   4.039  0.1434  0.0758 -0.0891
 3680TIP3    H132531   4.380   0.673   4.036 -1.2880 -0.7245 -0.1953
 3680TIP3    H232532   4.294   0.766   3.952 -0.6846  0.2804  0.2979
 3681TIP3   OH232533   4.257   4.678   0.116  0.2560  0.0571 -0.3918
 3681TIP3    H132534   4.350   4.678   0.096 -0.0607  0.5363 -1.9745
 3681TIP3    H232535   4.218   4.625   0.046 -0.9381  2.0125 -1.2323
 3682TIP3   OH232536   3.201   2.695  14.354 -0.1343  0.4346 -0.3756
 3682TIP3    H132537   3.226   2.602  14.353  0.4143  0.5823 -0.4781
 3682TIP3    H232538   3.199   2.718  14.447  0.6236  0.5566 -0.3886
 3683TIP3   OH232539   4.102   6.431  15.000  0.2165  0.2951 -0.3712
 3683TIP3    H132540   4.191   6.435  15.036 -0.2225  1.0295  0.6275
 3683TIP3    H232541   4.088   6.517  14.961 -0.3457  0.4584  0.1793
 3684TIP3   OH232542   2.209   6.641   2.760 -0.0288  0.3158 -0.3304
 3684TIP3    H132543   2.264   6.638   2.839  0.0087  1.3246 -0.3086
 3684TIP3    H232544   2.260   6.694   2.698 -1.1094  1.5279 -0.2027
 3685TIP3   OH232545   4.544   0.120   3.225 -0.3961  0.0233  0.5553
 3685TIP3    H132546   4.605   0.065   3.176  0.5194 -0.4995  2.2085
 3685TIP3    H232547   4.545   0.204   3.180  1.1069 -0.1667  0.2173
 3686TIP3   OH232548   0.029   2.168  14.492 -0.0764  0.0712  0.7276
 3686TIP3    H132549  -0.004   2.138  14.407 -0.3357 -0.8837  1.1562
 3686TIP3    H232550   0.077   2.248  14.472  1.2510 -1.0099 -0.5409
 3687TIP3   OH232551   6.772   3.573   5.086  0.2567  0.1019  0.2380
 3687TIP3    H132552   6.825   3.632   5.140  1.2777  1.3786 -2.0814
 3687TIP3    H232553   6.746   3.627   5.011 -2.6410 -1.1118  0.3081
 3688TIP3   OH232554   4.339   4.983   3.674  0.3166  0.6385 -0.2712
 3688TIP3    H132555   4.374   4.951   3.591 -0.3214 -1.9524  0.3963
 3688TIP3    H232556   4.354   4.911   3.736  0.4874  2.3799  1.7824
 3689TIP3   OH232557   4.992   4.307  12.527  0.1423 -0.7745  0.6062
 3689TIP3    H132558   4.957   4.332  12.612 -0.1669 -1.3191  0.6338
 3689TIP3    H232559   4.954   4.222  12.508 -0.1230 -0.4682 -0.2699
 3690TIP3   OH232560   0.198   3.175   2.984  0.5213 -0.6528  0.7660
 3690TIP3    H132561   0.149   3.099   3.014  0.3436 -0.4890  0.8922
 3690TIP3    H232562   0.236   3.213   3.064  0.8850 -0.7991  0.6665
 3691TIP3   OH232563   0.294   4.802   3.001 -0.2034 -0.8824  0.1584
 3691TIP3    H132564   0.253   4.850   2.928  1.7152 -1.4626 -1.3436
 3691TIP3    H232565   0.349   4.867   3.044 -0.1002 -0.9345  0.1053
 3692TIP3   OH232566   2.590   3.086   4.491  0.1810  0.7977 -0.4256
 3692TIP3    H132567   2.678   3.099   4.525 -0.0052 -0.5639  0.5923
 3692TIP3    H232568   2.560   3.175   4.468  1.8591  1.2437 -0.9561
 3693TIP3   OH232569   0.234   4.104   3.510 -0.4083  0.2747 -0.3569
 3693TIP3    H132570   0.165   4.125   3.447 -0.9923  0.9934  0.5094
 3693TIP3    H232571   0.315   4.135   3.468 -0.8414  1.0893 -0.6018
 3694TIP3   OH232572   3.314   2.428   4.649  0.4680 -0.5423  0.4095
 3694TIP3    H132573   3.381   2.433   4.717  1.9946  0.9322 -1.1488
 3694TIP3    H232574   3.362   2.412   4.568 -0.8947  1.8443 -0.9438
 3695TIP3   OH232575   1.370   1.024   4.249 -0.3741  0.0949 -0.2029
 3695TIP3    H132576   1.284   1.030   4.291 -1.9937  1.9954 -3.5779
 3695TIP3    H232577   1.397   1.115   4.236  2.7062 -0.4722  1.7916
 3696TIP3   OH232578   2.140   6.617  13.231  0.2254 -0.1792  0.5016
 3696TIP3    H132579   2.208   6.559  13.197 -0.4509 -0.4884 -0.3276
 3696TIP3    H232580   2.074   6.558  13.268  0.7605  0.1408  1.9886
 3697TIP3   OH232581   0.763   0.154  12.931  0.1553  0.0584  0.3802
 3697TIP3    H132582   0.757   0.233  12.985 -0.2149  0.1765  0.1653
 3697TIP3    H232583   0.857   0.141  12.918  0.1852  1.1972 -0.6580
 3698TIP3   OH232584   2.245   6.214   4.146 -0.0614  0.3110  0.1535
 3698TIP3    H132585   2.181   6.239   4.080  0.8487  0.8228 -0.5443
 3698TIP3    H232586   2.323   6.189   4.096  1.0225  1.8025  1.0400
 3699TIP3   OH232587   5.815   5.556   0.913  0.7825  0.6182 -0.5274
 3699TIP3    H132588   5.761   5.505   0.853 -0.6906 -0.3111  1.5108
 3699TIP3    H232589   5.859   5.621   0.858  0.2178 -0.8038 -2.7070
 3700TIP3   OH232590   0.200   6.791   5.401  0.7009 -0.6200  0.1819
 3700TIP3    H132591   0.143   6.714   5.400  0.6471 -0.5749 -0.8937
 3700TIP3    H232592   0.253   6.781   5.480 -0.8035 -0.6667  1.2058
 3701TIP3   OH232593   1.873   2.290   3.517 -0.0807  0.6579  0.0403
 3701TIP3    H132594   1.801   2.278   3.579 -0.0841 -1.9071 -0.3901
 3701TIP3    H232595   1.872   2.210   3.464  2.5361  0.9910 -0.5560
 3702TIP3   OH232596   0.032   4.166   4.516  0.0610  0.4124  0.6260
 3702TIP3    H132597   0.055   4.196   4.429  0.9704  1.1612  1.1155
 3702TIP3    H232598   0.109   4.119   4.546 -0.5648 -0.5903  0.7004
 3703TIP3   OH232599   0.060   6.570   0.808  0.4139  0.0516  0.3452
 3703TIP3    H132600  -0.000   6.496   0.803 -0.8220  1.0141  0.7950
 3703TIP3    H232601   0.134   6.544   0.752 -1.6290 -0.0240 -2.4329
 3704TIP3   OH232602   1.073   6.760  12.885  0.7259  0.7923 -0.2537
 3704TIP3    H132603   1.047   6.732  12.973  0.7111  1.1728 -0.1384
 3704TIP3    H232604   1.042   6.690  12.828 -0.8699  1.3990 -0.1554
 3705TIP3   OH232605   6.281   1.594  13.036 -0.3760 -0.4598 -0.5521
 3705TIP3    H132606   6.272   1.548  13.120  1.9931  0.8525  0.4550
 3705TIP3    H232607   6.192   1.621  13.015 -0.9192 -0.2177  1.8909
 3706TIP3   OH232608   6.611   6.503  11.336  0.0026  0.1820 -0.6979
 3706TIP3    H132609   6.649   6.589  11.321 -2.0263  0.9273 -1.7014
 3706TIP3    H232610   6.537   6.498  11.275 -1.3414 -1.3206  0.9980
 3707TIP3   OH232611   4.722   0.583  16.171  0.7250  0.3331 -0.4302
 3707TIP3    H132612   4.661   0.521  16.129 -0.8088  1.4194  0.1649
 3707TIP3    H232613   4.758   0.534  16.245 -2.1226  0.8257  1.3453
 3708TIP3   OH232614   6.508   4.966  11.989  0.2419 -0.9205  0.0041
 3708TIP3    H132615   6.598   4.974  12.022 -0.0625  1.8710  0.3219
 3708TIP3    H232616   6.457   4.942  12.066  0.0913  1.9705  0.8870
 3709TIP3   OH232617   4.696   3.800  13.054  0.2722 -0.5862 -0.3771
 3709TIP3    H132618   4.632   3.839  13.114 -0.0831 -0.3547 -0.9067
 3709TIP3    H232619   4.712   3.713  13.089 -0.8649 -0.9083 -0.6344
 3710TIP3   OH232620   3.992   1.053  14.035 -0.2276  0.8413  0.0120
 3710TIP3    H132621   3.983   0.957  14.042  0.0834  0.6306 -2.2275
 3710TIP3    H232622   3.937   1.087  14.106 -0.9875 -0.9711  0.3291
 3711TIP3   OH232623   0.017   3.914   9.811  0.2941 -0.6197 -0.4176
 3711TIP3    H132624  -0.003   4.007   9.821 -2.5909 -0.9838 -2.1331
 3711TIP3    H232625   0.042   3.886   9.899 -2.8371  0.9088  1.0555
 3712TIP3   OH232626   3.970   4.868  15.890 -0.1777 -0.3959 -0.1443
 3712TIP3    H132627   3.955   4.801  15.824 -0.8983 -0.7952  0.4216
 3712TIP3    H232628   4.014   4.823  15.962 -2.2663 -0.6827  0.9969
 3713TIP3   OH232629   3.258   5.775  13.614  0.2829 -0.3486 -0.4713
 3713TIP3    H132630   3.296   5.728  13.540  0.0943  0.1798 -0.9101
 3713TIP3    H232631   3.166   5.785  13.591  0.0878 -0.7404  0.1273
 3714TIP3   OH232632   3.852   2.434  15.776 -0.5735  0.0143  0.2257
 3714TIP3    H132633   3.939   2.445  15.814  0.2684 -1.7956 -1.1280
 3714TIP3    H232634   3.792   2.448  15.850  0.9226 -0.7718  1.6228
 3715TIP3   OH232635   6.608   0.295   5.234 -0.3709 -0.2433 -0.2920
 3715TIP3    H132636   6.538   0.320   5.294 -0.2947  0.9062 -0.6659
 3715TIP3    H232637   6.644   0.214   5.271 -0.8356  0.0328  0.7771
 3716TIP3   OH232638   1.173   5.850   1.654 -0.4550 -0.1346  0.2007
 3716TIP3    H132639   1.125   5.931   1.671  0.3116  0.0017  1.8335
 3716TIP3    H232640   1.107   5.788   1.626 -1.1026  0.9759 -0.7678
 3717TIP3   OH232641   5.173   3.368   6.109  0.3509 -0.2645 -0.8050
 3717TIP3    H132642   5.174   3.403   6.198 -0.7033  0.5556 -1.1098
 3717TIP3    H232643   5.164   3.274   6.120 -2.9734  0.0712 -0.0789
 3718TIP3   OH232644   4.918   5.108  11.866  0.3366 -0.2711 -0.4953
 3718TIP3    H132645   4.865   5.042  11.912  0.9349 -0.2947  0.1680
 3718TIP3    H232646   4.874   5.119  11.782 -1.4497  0.6231  0.5215
 3719TIP3   OH232647   0.574   2.761  11.851 -0.4132 -0.1051 -0.0296
 3719TIP3    H132648   0.566   2.855  11.864 -3.6064 -0.4658  1.2418
 3719TIP3    H232649   0.549   2.747  11.760  0.5888  0.2953 -0.3777
 3720TIP3   OH232650   5.894   2.807   1.438  0.3854 -0.2298  0.3955
 3720TIP3    H132651   5.844   2.795   1.357  2.7047 -1.4151 -0.9008
 3720TIP3    H232652   5.984   2.821   1.409  0.9628  1.1637  2.7182
 3721TIP3   OH232653   5.615   6.226   5.399  0.3767  0.4733  0.2297
 3721TIP3    H132654   5.640   6.297   5.458  1.5795 -0.0748  0.3966
 3721TIP3    H232655   5.668   6.152   5.427 -1.0309 -0.5668  0.2053
 3722TIP3   OH232656   6.308   3.707  11.862  0.0491  0.1824  0.1737
 3722TIP3    H132657   6.330   3.753  11.782  0.0735  0.6187  0.4290
 3722TIP3    H232658   6.378   3.731  11.924 -0.3661  0.4309  0.5495
 3723TIP3   OH232659   4.717   6.540  11.080 -0.1273  0.2267 -0.2826
 3723TIP3    H132660   4.743   6.624  11.117  0.3978 -0.2751  0.5166
 3723TIP3    H232661   4.626   6.529  11.108 -0.9043  1.5281 -2.2414
 3724TIP3   OH232662   1.690   3.491  12.796  0.4855 -0.2610  0.3165
 3724TIP3    H132663   1.716   3.401  12.781 -0.2859 -0.1211 -2.0808
 3724TIP3    H232664   1.771   3.542  12.786  0.8439 -0.6214  1.2921
 3725TIP3   OH232665   3.659   5.777  14.921 -0.3221  0.3971  0.4956
 3725TIP3    H132666   3.580   5.811  14.962 -0.4473  1.7290 -0.7984
 3725TIP3    H232667   3.722   5.767  14.993 -1.7573 -1.0033  1.5799
 3726TIP3   OH232668   6.186   4.531  16.675 -0.1542  0.4651 -0.1499
 3726TIP3    H132669   6.191   4.593  16.748 -0.4593  2.0587 -1.4560
 3726TIP3    H232670   6.093   4.527  16.654 -0.1749 -0.7326  0.1688
 3727TIP3   OH232671   0.335   0.163  10.704 -0.2346  0.1392  0.2517
 3727TIP3    H132672   0.395   0.135  10.635 -0.7888 -0.2585 -0.0778
 3727TIP3    H232673   0.341   0.259  10.704 -1.3058  0.2278 -1.3453
 3728TIP3   OH232674   5.825   4.831  16.924 -0.5478  0.5931 -0.2202
 3728TIP3    H132675   5.882   4.790  16.989 -1.1764  0.3056  0.1497
 3728TIP3    H232676   5.864   4.917  16.909 -2.1651  1.9403  2.9237
 3729TIP3   OH232677   2.789   0.179  16.661  0.3749 -0.0745  0.0679
 3729TIP3    H132678   2.871   0.183  16.612  0.4865 -0.2018  0.2470
 3729TIP3    H232679   2.778   0.086  16.683 -0.1980 -0.1681 -0.5980
 3730TIP3   OH232680   6.714   1.987   4.675 -0.2350  0.1761  0.3531
 3730TIP3    H132681   6.793   2.021   4.717  0.4702 -2.3637  1.1874
 3730TIP3    H232682   6.732   1.993   4.581 -0.1153  1.9823  0.4630
 3731TIP3   OH232683   0.966   6.059  12.906  0.0547  0.7110  0.3529
 3731TIP3    H132684   0.932   6.049  12.817 -0.2188  1.8089  0.3339
 3731TIP3    H232685   0.924   5.988  12.956  0.4577 -0.1057 -0.4537
 3732TIP3   OH232686   1.214   5.276  16.260 -0.1198  0.4245  0.3168
 3732TIP3    H132687   1.288   5.221  16.232  0.1645  0.3713  1.1504
 3732TIP3    H232688   1.150   5.214  16.295 -1.2960  0.3088 -1.9296
 3733TIP3   OH232689   6.410   4.195  10.561 -0.0674  0.1552 -0.0784
 3733TIP3    H132690   6.330   4.144  10.551  0.7765 -0.9865 -1.1020
 3733TIP3    H232691   6.387   4.283  10.531 -0.2830 -0.7721 -2.6800
 3734TIP3   OH232692   3.443   0.343  14.404  0.1209 -0.3784  0.3360
 3734TIP3    H132693   3.394   0.299  14.473 -1.4300 -1.7923 -1.6278
 3734TIP3    H232694   3.526   0.296  14.400 -0.5005 -1.4550  0.0288
 3735TIP3   OH232695   0.758   3.510  15.510 -0.2541  0.0567 -0.0566
 3735TIP3    H132696   0.846   3.525  15.545 -0.4125 -1.9611  1.2747
 3735TIP3    H232697   0.700   3.522  15.584 -1.0774  0.9529 -0.8367
 3736TIP3   OH232698   0.196   0.342   3.646 -0.3154  0.1555 -0.4765
 3736TIP3    H132699   0.255   0.276   3.684 -0.4896 -0.6377 -1.5460
 3736TIP3    H232700   0.147   0.376   3.721  0.0827 -0.6240  0.1526
 3737TIP3   OH232701   3.713   1.664  11.962 -0.6371  0.1339  0.3345
 3737TIP3    H132702   3.780   1.686  11.898 -0.5258  0.4578  0.5599
 3737TIP3    H232703   3.637   1.639  11.910  0.2662 -2.1629  0.0633
 3738TIP3   OH232704   1.172   5.981   3.195  0.4907 -0.3864 -0.4220
 3738TIP3    H132705   1.137   6.050   3.252  1.3263  1.3080 -1.9178
 3738TIP3    H232706   1.103   5.968   3.130  0.1843 -1.2316  0.0665
 3739TIP3   OH232707   2.147   3.882   3.148  0.0159 -0.3093  0.3221
 3739TIP3    H132708   2.106   3.952   3.097  0.8019  0.7799  1.1660
 3739TIP3    H232709   2.178   3.925   3.228 -0.0711 -1.7489  1.1516
 3740TIP3   OH232710   0.543   0.625  12.224  0.4601 -0.0790 -0.6993
 3740TIP3    H132711   0.617   0.571  12.196  0.1591 -0.6618 -0.3653
 3740TIP3    H232712   0.563   0.712  12.188  2.8395  0.5477  1.9463
 3741TIP3   OH232713   0.082   5.980   4.173  0.0342  0.0180 -0.2272
 3741TIP3    H132714   0.021   6.050   4.148 -1.2377 -1.4881 -1.4479
 3741TIP3    H232715   0.034   5.928   4.237  0.6854 -0.1857  0.0992
 3742TIP3   OH232716   5.185   2.997  14.344 -0.0958  0.0469 -0.2499
 3742TIP3    H132717   5.125   3.064  14.309  0.5088 -0.5703 -2.5871
 3742TIP3    H232718   5.201   2.939  14.269 -0.0295 -2.3101  1.5510
 3743TIP3   OH232719   3.804   0.217   2.560  0.4173  0.5605  0.1048
 3743TIP3    H132720   3.850   0.297   2.585 -2.5217  1.8795  1.6558
 3743TIP3    H232721   3.847   0.148   2.609  2.2118  1.3640 -0.2973
 3744TIP3   OH232722   0.235   2.831  15.764 -0.2640 -0.2994 -0.8692
 3744TIP3    H132723   0.325   2.849  15.789 -0.9279 -1.5834  2.8340
 3744TIP3    H232724   0.236   2.739  15.737 -0.0848  0.3179 -3.0674
 3745TIP3   OH232725   5.535   6.369  16.706 -0.1662  0.0524  0.3730
 3745TIP3    H132726   5.582   6.364  16.623 -0.0019 -0.4810  0.4951
 3745TIP3    H232727   5.518   6.462  16.718  0.3828  0.1938  0.0657
 3746TIP3   OH232728   3.204   6.279  14.323  0.0258 -0.0598 -0.3043
 3746TIP3    H132729   3.197   6.201  14.379  0.3873 -0.4304 -0.7655
 3746TIP3    H232730   3.126   6.330  14.342 -0.6497 -0.9626 -0.6419
 3747TIP3   OH232731   0.320   1.881   0.802  0.2244  0.2261 -0.2882
 3747TIP3    H132732   0.231   1.855   0.778 -0.1046  0.0876  1.0334
 3747TIP3    H232733   0.335   1.963   0.756 -0.9571  0.7528  0.2423
 3748TIP3   OH232734   3.222   2.314  16.256 -0.6189 -0.4707  0.0669
 3748TIP3    H132735   3.248   2.236  16.305 -0.7613  0.4613  1.6533
 3748TIP3    H232736   3.223   2.384  16.320 -1.4456  0.6678 -1.1358
 3749TIP3   OH232737   2.885   0.309  13.253 -0.0619 -0.0330  0.1496
 3749TIP3    H132738   2.830   0.350  13.187 -0.8351 -0.4126  0.5506
 3749TIP3    H232739   2.925   0.234  13.208 -0.6973 -0.3745  0.1486
 3750TIP3   OH232740   3.816   6.392  12.495 -0.1687  0.3446 -0.0402
 3750TIP3    H132741   3.863   6.351  12.568  0.6135  0.6118 -0.3887
 3750TIP3    H232742   3.771   6.319  12.452 -2.8033  0.5318  2.2615
 3751TIP3   OH232743   4.636   1.674  15.023  0.0810  0.5398 -0.8061
 3751TIP3    H132744   4.636   1.768  15.006 -0.6837  0.2982 -2.2007
 3751TIP3    H232745   4.548   1.657  15.058  0.8935  0.6637  1.3639
 3752TIP3   OH232746   2.137   4.620  14.635 -0.5688 -0.5288 -0.0294
 3752TIP3    H132747   2.099   4.670  14.708 -1.5114 -2.9047  1.1640
 3752TIP3    H232748   2.061   4.588  14.587  0.0560  1.8546 -2.6877
 3753TIP3   OH232749   5.293   1.428   0.119 -0.3010  0.0940 -0.2440
 3753TIP3    H132750   5.288   1.356   0.182 -0.0575  1.3421  1.2237
 3753TIP3    H232751   5.205   1.465   0.118 -0.1372  0.4920 -0.1186
 3754TIP3   OH232752   2.604   5.310   4.157 -0.7512 -0.9524  0.4673
 3754TIP3    H132753   2.681   5.310   4.215 -1.2854 -0.2653  1.1924
 3754TIP3    H232754   2.640   5.299   4.069  0.1853 -0.6190  0.8016
 3755TIP3   OH232755   3.490   6.703   5.603 -0.0565 -0.6176 -0.1244
 3755TIP3    H132756   3.518   6.614   5.582  0.7191 -0.2675 -0.6306
 3755TIP3    H232757   3.401   6.694   5.636  0.6812 -1.7974  1.6563
 3756TIP3   OH232758   3.244   5.106   0.526  0.3709 -0.2043  0.3647
 3756TIP3    H132759   3.224   5.039   0.461 -0.4446  0.7189 -0.3389
 3756TIP3    H232760   3.173   5.170   0.518  1.0311  0.6432  1.1718
 3757TIP3   OH232761   5.980   1.375   1.621  0.4772 -0.0808  0.0194
 3757TIP3    H132762   6.040   1.321   1.570 -0.7470 -0.5784 -0.9435
 3757TIP3    H232763   5.927   1.312   1.670  0.3505  0.3256  0.4056
 3758TIP3   OH232764   4.576   2.286  16.701  0.2386 -0.3471  0.5144
 3758TIP3    H132765   4.569   2.203  16.747 -2.1212  0.5234  1.8497
 3758TIP3    H232766   4.605   2.348  16.768  0.2711  0.2449 -0.0403
 3759TIP3   OH232767   1.338   2.961   1.873  0.4627 -0.1995  0.0978
 3759TIP3    H132768   1.285   2.905   1.815  1.2870 -0.7709 -0.1194
 3759TIP3    H232769   1.428   2.934   1.855  0.8500  1.0363  0.1863
 3760TIP3   OH232770   4.576   6.237   2.903  0.2779  0.1839 -0.4041
 3760TIP3    H132771   4.558   6.271   2.991  1.0635  1.0439 -0.5660
 3760TIP3    H232772   4.507   6.273   2.848 -1.9034 -2.6627  0.3661
 3761TIP3   OH232773   5.334   4.851   5.592  0.0031 -0.9525 -0.1206
 3761TIP3    H132774   5.384   4.819   5.667 -1.8994  1.3667  2.2238
 3761TIP3    H232775   5.360   4.793   5.520  3.1095 -2.2195  1.8985
 3762TIP3   OH232776   0.013   5.320  17.225  0.6108 -0.0743  0.0774
 3762TIP3    H132777   0.069   5.395  17.203  0.0036  0.2998 -0.2268
 3762TIP3    H232778   0.014   5.317  17.320 -1.3298  1.8712  0.2023
 3763TIP3   OH232779   1.949   3.218  12.068  0.0937 -0.4750  0.4174
 3763TIP3    H132780   1.864   3.195  12.029 -0.5013  2.2026  0.0509
 3763TIP3    H232781   1.998   3.136  12.067 -2.0939 -1.8350 -0.3775
 3764TIP3   OH232782   5.169   1.677  12.707  0.5810 -0.3097  0.4510
 3764TIP3    H132783   5.120   1.689  12.625  1.1275 -1.1200 -0.0073
 3764TIP3    H232784   5.254   1.643  12.678  0.9641 -0.1023  1.3266
 3765TIP3   OH232785   0.367   6.468  15.839 -0.0423  0.1275 -0.3138
 3765TIP3    H132786   0.312   6.532  15.884  0.7277  0.7355 -0.2187
 3765TIP3    H232787   0.370   6.498  15.748  0.7661  0.5457 -0.1548
 3766TIP3   OH232788   5.040   6.357  15.554  0.5731 -0.2319  0.5322
 3766TIP3    H132789   5.073   6.425  15.495  1.2989 -0.3407  0.8022
 3766TIP3    H232790   4.945   6.369  15.555  0.3790 -1.2088 -1.8804
 3767TIP3   OH232791   6.104   1.604   0.854  0.4429  0.5444  0.4335
 3767TIP3    H132792   6.173   1.563   0.906  0.7328  1.2968  0.6463
 3767TIP3    H232793   6.150   1.652   0.785  0.0512 -0.6781 -0.7113
 3768TIP3   OH232794   4.323   3.498  15.322  0.5159 -0.4978  0.5504
 3768TIP3    H132795   4.229   3.514  15.332  0.7993  1.2051  0.6441
 3768TIP3    H232796   4.345   3.439  15.394 -0.2552  0.0963  1.2854
 3769TIP3   OH232797   3.000   1.522  16.350  0.2946 -0.0711 -0.0474
 3769TIP3    H132798   3.033   1.597  16.299  0.7485 -1.6786 -2.2117
 3769TIP3    H232799   3.071   1.502  16.412  0.7416  0.4387 -0.3854
 3770TIP3   OH232800   0.027   2.429   2.034  0.1939  0.2088  0.1164
 3770TIP3    H132801   0.037   2.433   1.939  0.5019  0.6228  0.1639
 3770TIP3    H232802  -0.000   2.518   2.059 -1.8838 -0.4277  0.1938
 3771TIP3   OH232803   0.493   5.249  14.654 -0.2905  0.9741 -0.4281
 3771TIP3    H132804   0.501   5.286  14.742 -1.2434  1.7207 -0.6493
 3771TIP3    H232805   0.484   5.326  14.597 -0.9940  0.4433 -1.0362
 3772TIP3   OH232806   4.216   0.171  15.809 -0.3527  0.0672 -0.1396
 3772TIP3    H132807   4.260   0.103  15.759 -1.3014 -1.0782  0.5785
 3772TIP3    H232808   4.189   0.128  15.890 -3.4721  0.5425 -0.8921
 3773TIP3   OH232809   4.882   0.020  15.937  0.5640 -0.2118 -0.2090
 3773TIP3    H132810   4.951   0.048  15.877 -0.0125 -0.1641 -0.8505
 3773TIP3    H232811   4.889  -0.075  15.940  0.3984 -0.2347 -0.5832
 3774TIP3   OH232812   5.787   1.285  15.303  0.4877  0.3040 -0.5684
 3774TIP3    H132813   5.769   1.356  15.240 -0.0631  0.9187  0.2734
 3774TIP3    H232814   5.851   1.323  15.363  0.0663  0.1476 -0.0173
 3775TIP3   OH232815   3.263   4.724   1.794  0.3010  0.1939  0.7561
 3775TIP3    H132816   3.230   4.682   1.873  1.7456 -1.6591  0.3917
 3775TIP3    H232817   3.212   4.686   1.723 -0.3981  1.2252  0.6886
 3776TIP3   OH232818   1.585   5.603   5.450 -0.2727  0.0695  0.3444
 3776TIP3    H132819   1.559   5.529   5.395 -0.0909  0.2496  0.0188
 3776TIP3    H232820   1.678   5.588   5.467  0.2095  1.2112 -1.2481
 3777TIP3   OH232821   2.889   1.741   6.082 -0.2011  0.3670  0.1130
 3777TIP3    H132822   2.960   1.679   6.068 -0.5758  0.2658 -1.5375
 3777TIP3    H232823   2.928   1.813   6.132  1.0296  0.2530 -0.6607
 3778TIP3   OH232824   3.836   3.006  13.844 -0.0208  0.8233 -0.4552
 3778TIP3    H132825   3.749   2.998  13.805 -0.3952  0.5703  0.4294
 3778TIP3    H232826   3.883   2.927  13.816 -0.2400  0.7127 -0.5079
 3779TIP3   OH232827   3.921   1.690  11.396 -0.4535  0.3918 -0.7813
 3779TIP3    H132828   3.994   1.631  11.377  0.4049  1.8349 -2.0630
 3779TIP3    H232829   3.956   1.750  11.463 -1.1118 -0.1398  0.0459
 3780TIP3   OH232830   0.188   0.555  12.968 -0.3198 -0.7604 -0.9095
 3780TIP3    H132831   0.168   0.522  12.881  0.5643 -0.7035 -1.1416
 3780TIP3    H232832   0.252   0.624  12.953  0.8207 -1.6237 -0.1185
 3781TIP3   OH232833   1.794   0.520   2.213 -0.2373 -0.2065 -0.1052
 3781TIP3    H132834   1.706   0.515   2.251 -0.0977 -0.9446  0.1370
 3781TIP3    H232835   1.852   0.525   2.289 -0.1370  1.5340 -0.2862
 3782TIP3   OH232836   4.488   3.703   1.339 -0.3049 -0.2716  0.3507
 3782TIP3    H132837   4.533   3.784   1.362  0.1600 -0.2761 -0.5231
 3782TIP3    H232838   4.524   3.679   1.254 -1.5010 -0.6093 -0.0697
 3783TIP3   OH232839   6.169   2.162   2.481  0.3387  0.0618  0.0072
 3783TIP3    H132840   6.225   2.239   2.478 -0.6375  0.7507 -1.8335
 3783TIP3    H232841   6.126   2.161   2.395 -0.3031 -2.0466  0.3311
 3784TIP3   OH232842   4.261   5.399   0.831 -0.5366 -0.2988 -0.1370
 3784TIP3    H132843   4.182   5.374   0.879  1.0736 -0.6663  2.3389
 3784TIP3    H232844   4.277   5.326   0.771 -0.3721 -1.6202  1.4870
 3785TIP3   OH232845   0.403   5.907   5.400  0.4792  0.0647  0.1497
 3785TIP3    H132846   0.339   5.837   5.413  0.6697 -0.4214 -1.4014
 3785TIP3    H232847   0.362   5.984   5.440  0.1114 -0.8315  1.5561
 3786TIP3   OH232848   1.725   6.318  14.173 -0.2176 -0.1406 -0.3047
 3786TIP3    H132849   1.749   6.398  14.125 -0.1775  0.9103  1.4070
 3786TIP3    H232850   1.809   6.278  14.197 -0.2114  0.2136  0.2865
 3787TIP3   OH232851   5.747   2.809   0.246  0.6655  0.2616 -0.0905
 3787TIP3    H132852   5.792   2.865   0.310  1.1884  0.1891 -0.3961
 3787TIP3    H232853   5.788   2.831   0.162 -1.9894  2.4972 -0.8812
 3788TIP3   OH232854   5.819   2.385  12.983  0.2317  0.5957 -0.0185
 3788TIP3    H132855   5.766   2.306  12.971  1.1326 -0.1886  1.1022
 3788TIP3    H232856   5.831   2.418  12.894 -3.0648  1.4384 -0.2045
 3789TIP3   OH232857   0.673   2.000  15.537  0.1484 -0.3898  0.2775
 3789TIP3    H132858   0.596   2.053  15.519  0.4412 -0.0120  0.1199
 3789TIP3    H232859   0.640   1.911  15.547 -0.3180 -0.2119  0.3118
 3790TIP3   OH232860   1.902   3.284  14.576  0.2188 -0.8026  0.6078
 3790TIP3    H132861   1.902   3.374  14.544  2.2590 -0.4723  1.4104
 3790TIP3    H232862   1.955   3.235  14.513 -0.1244 -1.2617  0.6657
 3791TIP3   OH232863   3.598   2.933  16.565 -0.6200  0.5827 -0.1740
 3791TIP3    H132864   3.567   2.872  16.632 -0.6530 -0.1858 -0.8659
 3791TIP3    H232865   3.642   2.877  16.501 -0.6249  1.2980 -0.8113
 3792TIP3   OH232866   0.736   4.723   2.133  0.6854 -0.0738 -0.4872
 3792TIP3    H132867   0.699   4.712   2.220 -1.9345 -0.1330 -1.5710
 3792TIP3    H232868   0.722   4.815   2.111 -0.4917 -0.5139 -1.6340
 3793TIP3   OH232869   4.986   0.686   5.867 -0.0758  0.5482  0.0969
 3793TIP3    H132870   4.921   0.628   5.907  0.6408 -0.6901 -0.5008
 3793TIP3    H232871   5.010   0.747   5.937 -1.5398  0.7335  0.4531
 3794TIP3   OH232872   0.690   3.131   3.341  0.3610 -1.5662 -0.1463
 3794TIP3    H132873   0.624   3.095   3.281  0.1256 -0.7851 -0.3693
 3794TIP3    H232874   0.753   3.061   3.352  0.6738 -1.5512 -1.7362
 3795TIP3   OH232875   6.704   4.415  15.695 -0.0275 -0.2191 -0.5606
 3795TIP3    H132876   6.669   4.364  15.768 -0.0772  0.1985 -0.2876
 3795TIP3    H232877   6.675   4.368  15.617  0.1889 -0.7738 -0.3074
 3796TIP3   OH232878   1.070   4.785  11.582  0.0842 -0.4387 -0.1898
 3796TIP3    H132879   1.006   4.844  11.544  0.6582 -0.0414 -0.5464
 3796TIP3    H232880   1.092   4.824  11.667  0.5115 -0.0951 -0.4535
 3797TIP3   OH232881   6.077   6.268  16.227  0.0576 -0.2384 -0.0455
 3797TIP3    H132882   6.052   6.181  16.198 -0.0581 -0.9685  2.1338
 3797TIP3    H232883   6.114   6.310  16.149 -0.1540 -2.1141 -1.1822
 3798TIP3   OH232884   6.013   6.512   4.368  0.0166 -0.0734  0.5336
 3798TIP3    H132885   6.060   6.561   4.300 -0.5092 -0.3035 -0.0056
 3798TIP3    H232886   6.071   6.439   4.390  0.6306  0.5645  1.0575
 3799TIP3   OH232887   3.265   1.269   2.864  0.1841 -0.3214 -0.1940
 3799TIP3    H132888   3.174   1.299   2.875 -0.8500 -2.4225 -2.5149
 3799TIP3    H232889   3.274   1.199   2.929  0.4704  0.4948  0.6654
 3800TIP3   OH232890   4.697   5.689  15.454  0.4413 -0.5423 -0.0542
 3800TIP3    H132891   4.645   5.611  15.473  0.3321 -0.4122  0.1805
 3800TIP3    H232892   4.673   5.712  15.364  2.2659 -2.1703 -0.9810
 3801TIP3   OH232893   5.744   1.196  12.107 -0.2225 -0.7780  0.0603
 3801TIP3    H132894   5.687   1.264  12.143  0.9554  0.3856 -0.2261
 3801TIP3    H232895   5.771   1.144  12.184 -0.0561 -0.0896  0.4759
 3802TIP3   OH232896   0.027   0.277  14.262  0.1543 -0.4831 -0.3320
 3802TIP3    H132897   0.112   0.237  14.280  0.1248 -0.7068 -0.6940
 3802TIP3    H232898   0.047   0.370  14.251  0.3569 -0.5389 -0.4460
 3803TIP3   OH232899   6.022   0.567  12.369 -0.4158  0.0074 -0.4807
 3803TIP3    H132900   6.052   0.479  12.391 -2.0875 -0.4581 -0.0293
 3803TIP3    H232901   6.102   0.620  12.372  0.8380 -1.7083 -1.9915
 3804TIP3   OH232902   6.187   5.786  16.229 -0.3028  0.0666  0.1298
 3804TIP3    H132903   6.177   5.814  16.320 -1.2360 -0.2310  0.1228
 3804TIP3    H232904   6.177   5.691  16.231 -1.5736  0.1765 -0.4458
 3805TIP3   OH232905   3.401   3.545  13.741 -0.5712  0.1104  0.1060
 3805TIP3    H132906   3.428   3.629  13.703 -3.5325  1.2941  0.4364
 3805TIP3    H232907   3.480   3.491  13.740  1.5871  3.1241  0.4899
 3806TIP3   OH232908   0.740   1.854  16.847 -0.7068 -0.2732  0.3189
 3806TIP3    H132909   0.714   1.767  16.876  1.1336 -1.6265 -1.9387
 3806TIP3    H232910   0.799   1.886  16.914 -0.8684 -1.0299  0.8232
 3807TIP3   OH232911   3.910   4.493  13.816 -0.0868  0.2619  0.0513
 3807TIP3    H132912   4.000   4.502  13.785  0.5492  0.4647  1.8804
 3807TIP3    H232913   3.905   4.552  13.892 -1.5890 -0.1861  0.3243
 3808TIP3   OH232914   6.604   0.076  14.501  0.2971  0.2402  0.3640
 3808TIP3    H132915   6.548   0.016  14.550 -1.3536  0.7690 -0.8175
 3808TIP3    H232916   6.674   0.098  14.562  0.3822 -2.0837  1.1505
 3809TIP3   OH232917   4.540   3.403  15.686  0.1176 -0.5316  0.4394
 3809TIP3    H132918   4.481   3.383  15.613  0.9900  0.5243 -0.5784
 3809TIP3    H232919   4.487   3.457  15.745 -0.3450 -0.7088  0.1937
 3810TIP3   OH232920   1.529   4.493   2.250  0.5619 -0.3276  0.2347
 3810TIP3    H132921   1.550   4.435   2.177 -0.7326 -0.0430 -0.3889
 3810TIP3    H232922   1.476   4.563   2.211 -2.0497 -1.3550  1.7760
 3811TIP3   OH232923   2.769   0.839  11.407  0.2566  0.1752 -0.1647
 3811TIP3    H132924   2.709   0.864  11.337  2.2857  0.3523 -1.8949
 3811TIP3    H232925   2.748   0.897  11.480 -0.8543  1.0305 -1.1587
 3812TIP3   OH232926   0.415   1.004   5.309 -0.4039 -0.7085 -0.5751
 3812TIP3    H132927   0.493   0.991   5.362  0.3778  0.7368 -1.3398
 3812TIP3    H232928   0.349   0.946   5.347  0.4899 -0.5407  1.2490
 3813TIP3   OH232929   0.429   4.833   5.298  0.0551  0.5479 -0.1836
 3813TIP3    H132930   0.422   4.777   5.220  2.1437  1.1844 -0.8477
 3813TIP3    H232931   0.359   4.802   5.356  1.1588 -2.7576 -0.5241
 3814TIP3   OH232932   0.338   4.448   4.853  0.0826 -0.2317 -0.5992
 3814TIP3    H132933   0.346   4.395   4.933 -0.3496 -0.1988 -0.5348
 3814TIP3    H232934   0.428   4.475   4.834  0.2419 -0.5815 -0.3546
 3815TIP3   OH232935   6.325   2.321  14.692  0.4218  0.7264 -0.8851
 3815TIP3    H132936   6.284   2.249  14.740 -0.8931  1.1835 -1.3179
 3815TIP3    H232937   6.418   2.314  14.714  0.2591 -0.9005 -0.6514
 3816TIP3   OH232938   3.227   4.394  14.686  0.4971 -0.0924 -0.1239
 3816TIP3    H132939   3.292   4.366  14.622 -0.7973  1.1037 -2.0490
 3816TIP3    H232940   3.275   4.448  14.748  1.3905  0.5338 -1.3472
 3817TIP3   OH232941   6.448   1.578  14.109  0.0122  0.0281  0.4336
 3817TIP3    H132942   6.478   1.593  14.199 -1.5824  0.3407  0.9229
 3817TIP3    H232943   6.466   1.661  14.065  0.5518 -0.0349  0.5297
 3818TIP3   OH232944   6.444   5.663   4.621  0.0011 -0.2324 -0.9931
 3818TIP3    H132945   6.456   5.643   4.714  1.5721 -0.0074 -1.1292
 3818TIP3    H232946   6.421   5.580   4.581  1.4540 -0.7697 -0.7403
 3819TIP3   OH232947   2.710   4.858   3.809  0.0141  0.4589  0.2934
 3819TIP3    H132948   2.673   4.812   3.884 -0.3267 -0.1872 -0.2610
 3819TIP3    H232949   2.800   4.824   3.802 -0.4058 -0.5492 -0.4395
 3820TIP3   OH232950   6.663   1.772   2.594 -0.0282 -0.2152 -0.0245
 3820TIP3    H132951   6.671   1.769   2.689  0.6522  2.8010  0.0568
 3820TIP3    H232952   6.729   1.709   2.563  0.1588 -0.7819  1.4619
 3821TIP3   OH232953   3.095   4.695  11.654 -0.4181  0.1912  0.1962
 3821TIP3    H132954   3.169   4.747  11.621 -0.8682  1.0459  0.4991
 3821TIP3    H232955   3.076   4.634  11.584  0.0979  0.4651 -0.1924
 3822TIP3   OH232956   6.124   6.166  14.954  0.8906  0.4672  0.4755
 3822TIP3    H132957   6.130   6.244  14.899 -1.2794 -1.3798 -2.5698
 3822TIP3    H232958   6.043   6.178  15.004  0.1900 -0.0817 -0.5000
 3823TIP3   OH232959   5.927   3.320  12.074  0.4423 -0.9755 -0.0390
 3823TIP3    H132960   5.977   3.395  12.107 -1.3382  1.8005 -3.3129
 3823TIP3    H232961   5.993   3.265  12.032  1.6766 -0.9200  1.7462
 3824TIP3   OH232962   5.581   6.561  15.856  0.0871  0.0144  0.5738
 3824TIP3    H132963   5.506   6.504  15.839  0.9419 -0.5837 -1.3963
 3824TIP3    H232964   5.619   6.576  15.769  1.7627  0.9715  1.4514
 3825TIP3   OH232965   4.368   3.285  11.709 -0.3456 -0.1778 -0.5046
 3825TIP3    H132966   4.415   3.210  11.745  1.6610  1.2428 -0.0515
 3825TIP3    H232967   4.323   3.250  11.632  2.4982 -1.3493 -1.6909
 3826TIP3   OH232968   5.463   6.276  11.527  0.1049  0.2542  0.2707
 3826TIP3    H132969   5.464   6.371  11.535 -0.8075  0.1704  1.6176
 3826TIP3    H232970   5.552   6.253  11.501  0.4509  1.4383  0.3695
 3827TIP3   OH232971   5.773   1.691  15.167  0.6229  0.1537 -0.4285
 3827TIP3    H132972   5.841   1.739  15.120  0.0918  0.6889 -0.6564
 3827TIP3    H232973   5.793   1.706  15.260 -0.1536  1.6946 -0.5009
 3828TIP3   OH232974   4.721   3.266   2.730  0.3750  0.5403 -0.4131
 3828TIP3    H132975   4.643   3.277   2.675 -0.2275 -0.4387  0.2230
 3828TIP3    H232976   4.792   3.303   2.678 -0.3491  0.5431 -1.4286
 3829TIP3   OH232977   0.043   4.063   2.987  0.0631 -0.5079  0.5510
 3829TIP3    H132978   0.037   3.981   3.036  0.4002  0.1710  1.7425
 3829TIP3    H232979   0.137   4.080   2.980  0.0377 -0.8501 -0.7659
 3830TIP3   OH232980   0.842   5.894   3.633  0.1672  0.1877 -0.5878
 3830TIP3    H132981   0.791   5.975   3.629  0.8469  0.6207 -0.4615
 3830TIP3    H232982   0.889   5.891   3.550  0.3584  0.0592 -0.4744
 3831TIP3   OH232983   4.539   6.519   4.608 -0.1271 -0.2417  0.1730
 3831TIP3    H132984   4.498   6.433   4.600  0.8964 -0.6764 -0.4031
 3831TIP3    H232985   4.492   6.574   4.545  0.8631 -1.0041 -1.2408
 3832TIP3   OH232986   0.926   6.802   4.313 -0.4406  0.1941 -0.1666
 3832TIP3    H132987   0.856   6.744   4.284 -0.2281  0.0596 -0.4087
 3832TIP3    H232988   1.002   6.776   4.261  0.2405 -0.8108  1.2822
 3833TIP3   OH232989   2.697   3.919   2.846 -0.0306  0.1001  0.5962
 3833TIP3    H132990   2.645   3.839   2.837  0.2417  0.1966 -2.3708
 3833TIP3    H232991   2.634   3.990   2.835  0.0719  0.2776  1.1332
 3834TIP3   OH232992   3.138   3.479  14.940 -0.2018 -0.1759  0.0518
 3834TIP3    H132993   3.196   3.405  14.922  1.1407  0.9751 -0.4390
 3834TIP3    H232994   3.100   3.459  15.026  3.2532  0.4811  1.8216
 3835TIP3   OH232995   5.610   0.203  11.263  0.2051 -0.7501 -0.4275
 3835TIP3    H132996   5.623   0.183  11.170 -1.2179 -1.1030 -0.5552
 3835TIP3    H232997   5.543   0.271  11.264  1.4069  0.4598  0.2675
 3836TIP3   OH232998   5.539   3.296   1.053 -0.0337  0.0561 -0.0908
 3836TIP3    H132999   5.534   3.391   1.065  2.7404  0.2864 -0.3349
 3836TIP3    H233000   5.454   3.272   1.018 -0.1273  2.7504 -1.8838
 3837TIP3   OH233001   1.082   3.667  16.867 -0.3905  0.3656  0.2377
 3837TIP3    H133002   1.021   3.720  16.918 -0.5941 -0.3709  0.7766
 3837TIP3    H233003   1.096   3.589  16.921  0.9305  0.4720  0.0510
 3838TIP3   OH233004   4.581   3.220   2.116  1.2707 -0.0975 -0.3068
 3838TIP3    H133005   4.596   3.126   2.110 -1.4270 -0.5636 -0.3855
 3838TIP3    H233006   4.538   3.232   2.201 -1.6581  0.5444 -1.8182
 3839TIP3   OH233007   4.989   4.615  17.236 -0.1987 -0.1598 -0.1227
 3839TIP3    H133008   5.043   4.591  17.311  0.2062  0.9126 -0.0623
 3839TIP3    H233009   4.978   4.534  17.186 -1.1517 -1.0773  1.5217
 3840TIP3   OH233010   2.161   4.216  15.963 -0.1009  0.7685 -0.4065
 3840TIP3    H133011   2.113   4.264  16.031  0.4284 -0.3307  0.7497
 3840TIP3    H233012   2.233   4.274  15.939  0.4592  0.6341  0.8979
 3841TIP3   OH233013   4.268   1.632  13.976 -0.1676 -0.2600 -0.6235
 3841TIP3    H133014   4.280   1.700  14.043  0.5621 -0.8554 -0.1402
 3841TIP3    H233015   4.184   1.653  13.935 -0.7884 -0.0916  0.7210
 3842TIP3   OH233016   1.426   1.172  14.855 -0.0168 -0.7003  0.4480
 3842TIP3    H133017   1.410   1.240  14.921 -3.4633 -0.5701 -0.4445
 3842TIP3    H233018   1.459   1.220  14.779  2.5156 -0.6850  1.4950
 3843TIP3   OH233019   1.297   6.185   5.837  0.1178  0.2348  0.0531
 3843TIP3    H133020   1.289   6.160   5.929  1.1378 -0.5107 -0.0453
 3843TIP3    H233021   1.208   6.180   5.803  0.0932 -1.9963  0.3781
 3844TIP3   OH233022   6.272   5.310  13.529  0.4340 -0.2170  0.4073
 3844TIP3    H133023   6.351   5.267  13.497 -0.1711  0.1086 -1.5946
 3844TIP3    H233024   6.230   5.344  13.450 -2.2190 -1.2589  1.3159
 3845TIP3   OH233025   0.040   4.345   3.417  0.2485 -0.1769  0.3465
 3845TIP3    H133026  -0.034   4.406   3.417 -0.1196 -0.6087  1.5858
 3845TIP3    H233027   0.003   4.261   3.392  0.0377 -0.6938  2.2910
 3846TIP3   OH233028   0.753   0.534  16.290 -0.3055 -0.4357  0.4558
 3846TIP3    H133029   0.819   0.467  16.277  2.4347  2.3078 -0.4884
 3846TIP3    H233030   0.685   0.514  16.226  2.4836  0.0586 -2.8434
 3847TIP3   OH233031   0.656   2.446  16.149  0.1494  0.0439 -0.1549
 3847TIP3    H133032   0.564   2.433  16.123 -0.4380  0.8465  1.4823
 3847TIP3    H233033   0.679   2.365  16.196  0.3161 -0.1950 -0.6413
 3848TIP3   OH233034   2.790   6.206   0.855  0.3009 -0.7048  0.0588
 3848TIP3    H133035   2.788   6.252   0.771  1.3416  0.6667  0.7659
 3848TIP3    H233036   2.755   6.119   0.835  2.9959 -1.3178 -2.3912
 3849TIP3   OH233037   6.522   5.040  15.761  0.0216 -0.1582 -0.3974
 3849TIP3    H133038   6.601   5.080  15.798 -0.9184 -0.5150  2.0505
 3849TIP3    H233039   6.477   5.111  15.717  1.4916  0.1365 -1.4757
 3850TIP3   OH233040   2.592   2.473   1.690 -0.7983  0.1842 -0.1088
 3850TIP3    H133041   2.543   2.513   1.619  0.8264  0.6317 -1.0090
 3850TIP3    H233042   2.613   2.546   1.749 -2.7779 -0.2980  1.2523
 3851TIP3   OH233043   3.145   1.715   3.036  0.1364 -0.4239  0.1778
 3851TIP3    H133044   3.102   1.704   3.121  0.2494 -0.4757  0.2285
 3851TIP3    H233045   3.225   1.763   3.056  1.1814 -2.1900  0.3863
 3852TIP3   OH233046   2.164   1.184   4.810  0.4633  0.1891  0.0167
 3852TIP3    H133047   2.249   1.214   4.841  0.6136  1.1092 -1.2488
 3852TIP3    H233048   2.104   1.204   4.882  1.1073  0.6813  0.4215
 3853TIP3   OH233049   0.686   1.993  13.962  0.4488 -0.1002 -0.4009
 3853TIP3    H133050   0.628   1.993  14.039  2.0928  1.4576  0.8717
 3853TIP3    H233051   0.734   2.075  13.969  1.0613 -0.2321 -2.7969
 3854TIP3   OH233052   2.975   0.105  13.085 -0.2276 -0.2248 -0.2911
 3854TIP3    H133053   2.923   0.025  13.079 -0.0024 -0.4588  0.7548
 3854TIP3    H233054   3.053   0.088  13.032  1.4269 -1.9909  2.5602
 3855TIP3   OH233055   5.331   1.385  14.810 -0.3731  0.2465 -0.0382
 3855TIP3    H133056   5.303   1.314  14.753  2.1354 -0.0144 -1.0243
 3855TIP3    H233057   5.346   1.459  14.751 -1.9489  1.3027  0.8517
 3856TIP3   OH233058   6.663   1.653  16.865 -0.2875 -0.3518  0.0835
 3856TIP3    H133059   6.659   1.654  16.769  2.1369  0.4031 -0.0642
 3856TIP3    H233060   6.750   1.617  16.884  0.7048  2.7975  1.8881
 3857TIP3   OH233061   6.370   3.725  14.992  0.4706 -0.0090  0.0192
 3857TIP3    H133062   6.280   3.730  15.023 -0.3122 -2.1734 -1.7510
 3857TIP3    H233063   6.422   3.705  15.070 -0.7253  0.1307  0.8626
 3858TIP3   OH233064   0.973   6.658   5.425  0.8332 -0.1820 -0.7485
 3858TIP3    H133065   1.066   6.642   5.412  1.1835  1.0616  0.1747
 3858TIP3    H233066   0.968   6.715   5.502 -0.7349 -0.8697 -0.3175
 3859TIP3   OH233067   6.403   0.978   5.049  0.1518 -0.4618  0.2105
 3859TIP3    H133068   6.482   0.927   5.069 -0.0925 -0.9060  0.0629
 3859TIP3    H233069   6.351   0.974   5.130 -0.2904 -1.2409 -0.1054
 3860TIP3   OH233070   5.114   6.811  17.284 -0.2174 -0.0981  0.5363
 3860TIP3    H133071   5.114   6.716  17.299  0.2737 -0.4628 -1.5467
 3860TIP3    H233072   5.027   6.830  17.249  0.0880 -0.0022 -0.1923
 3861TIP3   OH233073   1.480   5.950   2.726  0.1996 -0.0905  0.2083
 3861TIP3    H133074   1.540   6.008   2.772  0.7903 -0.6331  0.1356
 3861TIP3    H233075   1.420   5.919   2.793 -1.2013  1.9351 -0.0600
 3862TIP3   OH233076   0.524   1.421  14.389  0.2899  0.0133 -0.0729
 3862TIP3    H133077   0.488   1.334  14.403  1.1139 -0.0376  1.8854
 3862TIP3    H233078   0.614   1.406  14.362  1.0567  0.2478  2.2066
 3863TIP3   OH233079   5.221   0.789   4.795 -0.3946 -0.0726 -0.2712
 3863TIP3    H133080   5.176   0.746   4.723  0.3011 -1.6071  0.1933
 3863TIP3    H233081   5.183   0.752   4.874  0.7949 -0.4720  0.1299
 3864TIP3   OH233082   3.921   5.056  16.773  0.3874 -0.3349 -0.1049
 3864TIP3    H133083   3.926   5.021  16.862 -1.3493 -0.6122 -0.0994
 3864TIP3    H233084   3.952   5.147  16.781 -1.2480  0.1487  1.1034
 3865TIP3   OH233085   0.229   3.357  15.662  0.0890  0.0010 -0.0156
 3865TIP3    H133086   0.274   3.279  15.694 -0.6705 -0.7394 -0.7303
 3865TIP3    H233087   0.294   3.427  15.668  0.7677 -0.6812  0.6348
 3866TIP3   OH233088   2.436   5.040  11.271 -1.2241  0.0530 -0.2318
 3866TIP3    H133089   2.515   5.037  11.325  0.0142 -0.7607 -2.0158
 3866TIP3    H233090   2.365   5.057  11.333 -0.0463 -2.2334  1.8450
 3867TIP3   OH233091   3.988   0.828  13.271  0.4510 -0.1559  0.1905
 3867TIP3    H133092   4.008   0.913  13.230 -0.2722  0.5870  1.3489
 3867TIP3    H233093   4.062   0.813  13.330  2.1800 -1.8779 -2.3228
 3868TIP3   OH233094   5.886   2.874  16.890 -0.2711 -0.3459  0.1310
 3868TIP3    H133095   5.932   2.799  16.926  0.9811  0.1273 -0.4423
 3868TIP3    H233096   5.803   2.876  16.936  0.7585 -0.5273  2.0520
 3869TIP3   OH233097   3.810   3.750  13.579  0.3437 -0.2724 -0.1651
 3869TIP3    H133098   3.828   3.660  13.550 -0.9620 -0.6522  0.1958
 3869TIP3    H233099   3.836   3.804  13.505  3.0975 -0.7846  0.3644
 3870TIP3   OH233100   0.800   5.589   0.965  0.0964  0.1941 -0.1533
 3870TIP3    H133101   0.875   5.530   0.958  1.0750  1.2957  0.8288
 3870TIP3    H233102   0.795   5.631   0.880 -1.6278 -2.4662 -1.4421
 3871TIP3   OH233103   0.594   4.724   3.461 -0.1579 -0.3485 -0.0421
 3871TIP3    H133104   0.547   4.708   3.379  0.7154  0.5534 -0.7316
 3871TIP3    H233105   0.525   4.732   3.527 -0.9409  0.2415 -0.9187
 3872TIP3   OH233106   1.440   0.115  15.986 -0.0208 -0.2437  0.1456
 3872TIP3    H133107   1.355   0.158  15.981 -0.0934 -0.3770  0.2328
 3872TIP3    H233108   1.492   0.155  15.916  0.0784  0.3509  0.5609
 3873TIP3   OH233109   1.529   2.023   6.328 -0.0428 -0.8917 -0.1303
 3873TIP3    H133110   1.542   1.929   6.317 -0.4829 -1.0112  0.3771
 3873TIP3    H233111   1.435   2.037   6.318 -0.2581 -0.7904  1.8393
 3874TIP3   OH233112   0.853   5.805   1.362 -0.3807 -0.4651  0.1077
 3874TIP3    H133113   0.901   5.879   1.398 -0.3778 -0.4171  0.0069
 3874TIP3    H233114   0.760   5.829   1.370 -0.3425  0.5610 -2.0249
 3875TIP3   OH233115   3.460   6.017   2.993  0.1742 -0.4556  0.2809
 3875TIP3    H133116   3.543   6.025   3.041  0.6731 -3.0400 -0.0631
 3875TIP3    H233117   3.418   6.102   3.003  1.4946 -0.0790  3.0192
 3876TIP3   OH233118   2.271   6.567   1.488  0.3619 -0.0797 -0.2213
 3876TIP3    H133119   2.247   6.546   1.398 -1.4526  2.2009 -0.2998
 3876TIP3    H233120   2.241   6.657   1.501  0.0435 -0.5773  2.8558
 3877TIP3   OH233121   6.489   1.846  11.556 -0.0741 -0.0996  0.0307
 3877TIP3    H133122   6.570   1.836  11.606 -0.9880  0.3561  1.6001
 3877TIP3    H233123   6.508   1.805  11.471  1.4380 -0.9330  0.7671
 3878TIP3   OH233124   3.453   1.483   2.526  0.4665 -0.3129 -0.0150
 3878TIP3    H133125   3.476   1.398   2.565 -1.0578 -1.1485 -0.9114
 3878TIP3    H233126   3.462   1.545   2.598 -0.8087 -1.6033  1.2842
 3879TIP3   OH233127   1.584   3.090   0.695  0.0053 -0.2135  0.5584
 3879TIP3    H133128   1.548   3.069   0.609  0.0876  0.6264  0.3171
 3879TIP3    H233129   1.519   3.147   0.736  1.0093  1.2681  0.1437
 3880TIP3   OH233130   1.412   1.560  16.411 -0.0775  0.2789  0.0742
 3880TIP3    H133131   1.329   1.584  16.452 -0.8515 -1.9158 -0.1083
 3880TIP3    H233132   1.441   1.483  16.461  0.5617 -0.5072 -1.4935
 3881TIP3   OH233133   1.483   2.760  16.431  0.3858 -0.1007 -1.1428
 3881TIP3    H133134   1.472   2.737  16.523 -1.5495 -0.3559 -1.4182
 3881TIP3    H233135   1.405   2.811  16.409  0.9884  0.2447 -2.5544
 3882TIP3   OH233136   1.582   4.802   3.572  0.3618  0.2731 -0.1916
 3882TIP3    H133137   1.579   4.821   3.478 -0.5710 -2.0063 -0.6486
 3882TIP3    H233138   1.522   4.866   3.611 -1.0940 -0.2949 -1.4429
 3883TIP3   OH233139   2.013   4.380  17.271  0.2266  0.5510  0.7225
 3883TIP3    H133140   2.074   4.443  17.232 -0.5423  0.1095 -1.2472
 3883TIP3    H233141   1.927   4.405  17.236 -0.1212 -1.4422  0.0914
 3884TIP3   OH233142   3.665   4.057   2.467 -0.5120  0.0298  0.1355
 3884TIP3    H133143   3.685   3.968   2.438 -0.0287  1.0743 -2.8382
 3884TIP3    H233144   3.664   4.051   2.563  1.3028 -2.7665  0.0261
 3885TIP3   OH233145   6.326   0.202   0.949 -0.1016  0.4635 -0.1398
 3885TIP3    H133146   6.360   0.145   1.018 -0.1877  2.3879  1.5155
 3885TIP3    H233147   6.348   0.155   0.868  0.8376 -1.3754  1.1222
 3886TIP3   OH233148   1.605   4.573  16.384  0.4547 -0.2896 -0.5637
 3886TIP3    H133149   1.699   4.583  16.401 -0.0115  2.2098  0.7813
 3886TIP3    H233150   1.596   4.587  16.290  1.4516 -0.9819 -0.7779
 3887TIP3   OH233151   4.091   0.835   0.589 -0.2513  0.0679 -0.1902
 3887TIP3    H133152   4.158   0.786   0.636 -0.8728  1.4481  2.2406
 3887TIP3    H233153   4.137   0.910   0.551 -0.4015  1.0383  1.5149
 3888TIP3   OH233154   1.588   3.359   4.478  0.2772 -0.2246  0.2882
 3888TIP3    H133155   1.556   3.432   4.531 -2.5463  0.3980 -2.1132
 3888TIP3    H233156   1.512   3.300   4.470  0.9341 -0.8280 -2.0628
 3889TIP3   OH233157   1.331   5.308   3.872  0.1031  0.4745 -0.3348
 3889TIP3    H133158   1.355   5.295   3.781  1.5213  0.7663 -0.0092
 3889TIP3    H233159   1.236   5.322   3.870 -0.4496 -3.0607 -1.3697
 3890TIP3   OH233160   2.236   4.314   3.849  0.2926  0.1186 -0.0366
 3890TIP3    H133161   2.322   4.325   3.889  0.6192 -0.2930 -0.6153
 3890TIP3    H233162   2.223   4.219   3.846  0.1071  0.1567 -0.5505
 3891TIP3   OH233163   6.489   5.408   6.173 -0.2806  0.0706 -0.3724
 3891TIP3    H133164   6.529   5.483   6.127  1.0216 -0.4772 -0.1600
 3891TIP3    H233165   6.505   5.425   6.265 -1.5959  0.4324 -0.2100
 3892TIP3   OH233166   3.538   4.254  15.880  0.0527  0.5645 -0.0571
 3892TIP3    H133167   3.605   4.256  15.811 -0.6386  0.7836 -0.7307
 3892TIP3    H233168   3.567   4.184  15.939  0.1318 -0.2957 -1.1012
 3893TIP3   OH233169   1.310   5.357   6.817 -0.0941 -0.4291 -0.1500
 3893TIP3    H133170   1.348   5.407   6.745  1.1389 -0.1643  0.6636
 3893TIP3    H233171   1.221   5.392   6.827  0.7512  1.6327  0.4215
 3894TIP3   OH233172   3.896   5.334   3.156 -0.1957  0.8295 -0.4347
 3894TIP3    H133173   3.975   5.294   3.121 -0.7746  0.8501 -1.8026
 3894TIP3    H233174   3.917   5.427   3.165 -0.1591  0.8825 -1.0740
 3895TIP3   OH233175   4.928   2.577   1.179  0.1327  0.7045  0.1538
 3895TIP3    H133176   5.020   2.592   1.157  0.3035  0.6715  0.8208
 3895TIP3    H233177   4.926   2.583   1.275 -0.3040 -0.6829  0.2443
 3896TIP3   OH233178   6.512   6.103  13.777 -0.2067  0.7424 -0.0539
 3896TIP3    H133179   6.563   6.151  13.711  0.5638 -0.2865 -0.2215
 3896TIP3    H233180   6.572   6.091  13.850 -0.5754  0.5397  0.2168
 3897TIP3   OH233181   2.762   6.518  15.325 -0.2674  0.0604  0.2872
 3897TIP3    H133182   2.815   6.582  15.371 -1.2263  1.8525 -1.0527
 3897TIP3    H233183   2.698   6.569  15.276 -1.1625 -1.9108 -0.6915
 3898TIP3   OH233184   0.922   1.399   0.698 -0.6694 -0.4007 -0.1118
 3898TIP3    H133185   0.981   1.329   0.669  0.0321  0.0513  0.2050
 3898TIP3    H233186   0.867   1.417   0.622  0.1020 -0.3175 -0.6557
 3899TIP3   OH233187   3.772   2.338   4.995 -0.6216  0.5020  0.6126
 3899TIP3    H133188   3.856   2.361   5.035 -0.4412 -0.3804  0.7447
 3899TIP3    H233189   3.776   2.376   4.908  0.9497 -1.6764 -0.3104
 3900TIP3   OH233190   5.980   2.521  14.958  0.5545 -0.7020  0.5419
 3900TIP3    H133191   6.019   2.452  14.904  1.5991  1.0018 -0.9494
 3900TIP3    H233192   5.886   2.515  14.940  0.6082 -1.8000  0.5510
 3901TIP3   OH233193   1.391   5.313   6.070  0.0494  0.0453 -0.0270
 3901TIP3    H133194   1.305   5.296   6.109 -1.4121  2.5102 -2.0619
 3901TIP3    H233195   1.390   5.263   5.988  0.4975  0.1967 -0.1258
 3902TIP3   OH233196   2.713   1.320  11.050  0.3477 -0.4629 -0.5842
 3902TIP3    H133197   2.704   1.382  10.978  0.8007  0.8830  0.5018
 3902TIP3    H233198   2.632   1.270  11.049 -0.2182  0.4525 -1.1923
 3903TIP3   OH233199   0.281   0.257   2.966 -0.0752  0.3142 -0.0310
 3903TIP3    H133200   0.332   0.275   3.045 -0.0363  0.8886 -0.1866
 3903TIP3    H233201   0.347   0.233   2.901 -0.0875  0.0695  0.0465
 3904TIP3   OH233202   1.052   6.116   0.135 -0.2980  0.7626 -0.1464
 3904TIP3    H133203   1.035   6.046   0.199  0.0721 -0.8902 -1.8013
 3904TIP3    H233204   0.968   6.161   0.126 -0.9734 -0.4764 -0.2015
 3905TIP3   OH233205   2.806   4.265   0.299 -0.2612  0.1283 -0.9351
 3905TIP3    H133206   2.827   4.320   0.224 -0.5004  0.8096 -0.5171
 3905TIP3    H233207   2.810   4.325   0.374 -2.0973 -0.0601 -0.6637
 3906TIP3   OH233208   0.985   0.581   0.983 -0.3442 -0.0746  0.0678
 3906TIP3    H133209   0.913   0.533   0.942  0.8150 -1.2078 -0.6658
 3906TIP3    H233210   1.054   0.581   0.917  0.5884  0.3965  1.0336
 3907TIP3   OH233211   3.572   1.038  16.096  0.0210 -0.3338  0.0793
 3907TIP3    H133212   3.638   1.092  16.139  1.1165 -0.8538 -0.9351
 3907TIP3    H233213   3.577   0.953  16.140  0.3775 -0.5298 -0.3419
 3908TIP3   OH233214   3.028   5.266   2.552  1.1903  0.0085 -0.5058
 3908TIP3    H133215   3.022   5.173   2.573 -1.7901  0.0549 -0.8839
 3908TIP3    H233216   2.967   5.308   2.612  1.0655  1.4855 -1.6341
 3909TIP3   OH233217   4.146   3.632  11.227 -0.3387  0.4013  0.1557
 3909TIP3    H133218   4.187   3.605  11.145 -0.9846 -1.5313  0.4257
 3909TIP3    H233219   4.076   3.567  11.240 -3.9227  3.9196 -0.6419
 3910TIP3   OH233220   3.998   6.668  15.866  0.3651  0.0720  0.6046
 3910TIP3    H133221   4.008   6.573  15.874 -2.2701 -0.1073  2.3176
 3910TIP3    H233222   3.936   6.680  15.794  2.4073  0.6273 -1.1114
 3911TIP3   OH233223   4.224   6.111   1.166  0.4890  0.3434 -0.2093
 3911TIP3    H133224   4.204   6.018   1.162 -0.6526  0.5474  0.6245
 3911TIP3    H233225   4.286   6.120   1.238 -0.6055  0.4259  0.7366
 3912TIP3   OH233226   5.428   5.273   0.685 -0.2385 -0.0983 -0.5631
 3912TIP3    H133227   5.428   5.254   0.592 -0.1582 -1.2337 -0.3439
 3912TIP3    H233228   5.473   5.198   0.725  0.1026  0.5811  0.3380
 3913TIP3   OH233229   4.624   5.601   4.670  0.8457  0.1531 -0.1367
 3913TIP3    H133230   4.584   5.688   4.674  0.9514  0.2589 -1.2620
 3913TIP3    H233231   4.713   5.613   4.702  1.3090  0.7418 -1.6003
 3914TIP3   OH233232   4.237   6.580  15.397  0.5690  0.5520 -0.8898
 3914TIP3    H133233   4.231   6.509  15.334  1.9553  0.6156 -1.1117
 3914TIP3    H233234   4.300   6.641  15.358  1.6009  0.4897  0.6483
 3915TIP3   OH233235   1.085   3.732  14.020  0.5088  0.2011 -0.4614
 3915TIP3    H133236   1.028   3.730  14.097  0.7380 -0.4742 -0.3086
 3915TIP3    H233237   1.136   3.813  14.030  1.8727 -0.8137  1.0705
 3916TIP3   OH233238   5.328   5.952   4.538  0.1229  0.1437 -0.1213
 3916TIP3    H133239   5.413   5.982   4.570 -0.6828 -1.0408  3.2384
 3916TIP3    H233240   5.276   6.031   4.528  1.0432  0.7042 -0.5357
 3917TIP3   OH233241   4.198   0.734  13.430 -0.7015 -0.0190  0.2150
 3917TIP3    H133242   4.151   0.659  13.468  2.1079 -2.2331 -0.5429
 3917TIP3    H233243   4.269   0.750  13.492  1.4159 -0.9494 -1.9302
 3918TIP3   OH233244   1.124   4.029  12.806 -0.0868 -0.0044  0.5389
 3918TIP3    H133245   1.209   4.068  12.786  0.8258 -1.5162  1.4055
 3918TIP3    H233246   1.105   3.973  12.730 -0.2688  0.2396  0.4003
 3919TIP3   OH233247   6.083   4.906   3.763  0.4024 -0.1962 -0.5783
 3919TIP3    H133248   5.992   4.881   3.783  0.9032 -0.3885  1.6504
 3919TIP3    H233249   6.109   4.847   3.693 -0.3608 -1.9809  0.5920
 3920TIP3   OH233250   4.921   5.313   5.221 -0.0210 -0.1180 -0.0060
 3920TIP3    H133251   4.983   5.364   5.272  1.1567 -1.0190 -0.5076
 3920TIP3    H233252   4.863   5.273   5.286 -1.3615  2.3079  0.3650
 3921TIP3   OH233253   5.832   5.084   1.340 -0.1999  0.5175  0.3842
 3921TIP3    H133254   5.875   5.169   1.345  0.7569 -0.0611  2.2947
 3921TIP3    H233255   5.739   5.104   1.353 -0.2633  1.4940 -1.3721
 3922TIP3   OH233256   1.990   3.383   3.587 -0.1791 -0.2803 -0.3353
 3922TIP3    H133257   2.072   3.417   3.622 -1.2095 -0.5211  2.3810
 3922TIP3    H233258   1.938   3.461   3.567 -1.1538 -0.1571  2.5312
 3923TIP3   OH233259   2.428   6.703   0.582 -0.5861 -0.4784 -0.2673
 3923TIP3    H133260   2.476   6.635   0.630  0.6950 -0.5207 -1.5873
 3923TIP3    H233261   2.474   6.784   0.603  0.3930 -0.5832 -1.9177
 3924TIP3   OH233262   3.911   2.111  11.576 -0.0889 -0.3864  0.1195
 3924TIP3    H133263   4.004   2.123  11.594  0.4781 -2.5087 -1.2020
 3924TIP3    H233264   3.882   2.048  11.642  0.0716 -1.8352 -1.1655
 3925TIP3   OH233265   4.444   6.115  16.203 -0.1728  0.0730 -0.3305
 3925TIP3    H133266   4.452   6.112  16.107  2.1867 -0.7933 -0.1431
 3925TIP3    H233267   4.458   6.025  16.231 -2.6733 -0.0354  0.7625
 3926TIP3   OH233268   4.903   4.160  10.797 -0.3591  0.2953  0.0936
 3926TIP3    H133269   4.816   4.175  10.833 -0.0157 -1.2081  1.6054
 3926TIP3    H233270   4.929   4.074  10.831  1.3801  0.3545 -1.0050
 3927TIP3   OH233271   5.321   0.358  13.475 -0.1619 -0.2440  0.4739
 3927TIP3    H133272   5.306   0.449  13.449 -2.9831 -0.5497  0.9271
 3927TIP3    H233273   5.372   0.364  13.556 -0.0112  0.9176  0.3020
 3928TIP3   OH233274   3.893   4.811  13.774 -0.2512  0.2082 -0.0012
 3928TIP3    H133275   3.919   4.874  13.706 -0.4073  0.0711 -0.1908
 3928TIP3    H233276   3.941   4.731  13.753 -0.6555  0.0223 -0.2265
 3929TIP3   OH233277   4.968   5.430  15.302 -0.3401 -0.5366  0.0824
 3929TIP3    H133278   4.916   5.446  15.224  0.2784  2.3076  0.2165
 3929TIP3    H233279   5.040   5.374  15.272 -0.2230  0.3600 -1.3573
 3930TIP3   OH233280   5.599   0.775   4.544  0.3833  0.1312 -0.4797
 3930TIP3    H133281   5.617   0.734   4.629 -0.8597  1.6430  0.5369
 3930TIP3    H233282   5.684   0.803   4.512  1.0462 -1.7454 -0.4176
 3931TIP3   OH233283   1.940   5.039   6.562  0.6153 -0.0117 -0.0326
 3931TIP3    H133284   1.996   5.063   6.636 -1.0503  2.0678  0.6159
 3931TIP3    H233285   1.971   5.095   6.491  0.3069  0.1210 -0.0635
 3932TIP3   OH233286   1.224   6.600  13.080 -0.2815  0.5788  0.3025
 3932TIP3    H133287   1.247   6.511  13.104 -0.3757  0.2630 -0.7390
 3932TIP3    H233288   1.297   6.653  13.111  0.4539 -0.0441 -0.3550
 3933TIP3   OH233289   5.136   3.473  12.834 -0.1237  0.2598  0.6210
 3933TIP3    H133290   5.230   3.486  12.843 -0.3521  1.6781  1.2163
 3933TIP3    H233291   5.101   3.561  12.822 -1.3661 -0.2610  0.3607
 3934TIP3   OH233292   3.824   5.934   6.231 -0.0353 -0.0312  0.0701
 3934TIP3    H133293   3.730   5.943   6.217 -0.0271 -0.4006 -0.1993
 3934TIP3    H233294   3.864   5.968   6.151  0.0580  0.0211  0.1387
 3935TIP3   OH233295   2.281   0.593  10.786  0.0287  0.1649 -0.1727
 3935TIP3    H133296   2.255   0.670  10.836 -0.7698 -1.6184  2.2475
 3935TIP3    H233297   2.377   0.596  10.786  0.0065  1.1785 -0.1797
 3936TIP3   OH233298   6.177   0.425   1.038 -0.4344 -0.3234 -0.4788
 3936TIP3    H133299   6.098   0.427   0.984 -0.0964  1.4058 -0.9474
 3936TIP3    H233300   6.225   0.348   1.006 -1.1796 -0.4785 -1.2625
 3937TIP3   OH233301   2.176   2.475  12.432 -0.3386  0.0920 -0.7748
 3937TIP3    H133302   2.142   2.390  12.405  0.3750  0.5456 -3.2038
 3937TIP3    H233303   2.227   2.506  12.357  2.9477  0.7869  1.6005
 3938TIP3   OH233304   1.930   5.077   5.903 -0.0427 -0.0197  0.6724
 3938TIP3    H133305   1.998   5.100   5.839 -0.6422 -0.0473  0.0163
 3938TIP3    H233306   1.848   5.101   5.860 -0.4433  0.1437  1.5182
 3939TIP3   OH233307   5.382   4.037   6.586  0.1553 -0.0124 -0.5058
 3939TIP3    H133308   5.444   4.028   6.514  1.1950 -0.6536  0.4592
 3939TIP3    H233309   5.343   3.950   6.595 -0.8385  0.3655 -1.0552
 3940TIP3   OH233310   0.167   4.823  10.311  0.3112  0.0342  0.3355
 3940TIP3    H133311   0.107   4.844  10.239 -0.0991 -1.1306  0.3430
 3940TIP3    H233312   0.199   4.909  10.340 -0.5769  0.6012 -0.3203
 3941TIP3   OH233313   2.820   4.412  16.708 -0.3063  0.0341  0.6877
 3941TIP3    H133314   2.824   4.389  16.801 -1.4457  1.4780  1.1060
 3941TIP3    H233315   2.912   4.421  16.682 -0.0102  1.4437  2.1422
 3942TIP3   OH233316   3.613   1.818  16.203 -0.4036 -0.0278  0.0471
 3942TIP3    H133317   3.675   1.755  16.240 -1.0274 -0.2818  0.6824
 3942TIP3    H233318   3.650   1.904  16.223 -0.6220 -0.1674  1.0866
 3943TIP3   OH233319   2.472   6.743  15.534  0.4844  0.5116 -0.4867
 3943TIP3    H133320   2.470   6.837  15.551 -0.3571  0.5253 -0.6142
 3943TIP3    H233321   2.415   6.731  15.458 -0.3852 -0.2402  0.2748
 3944TIP3   OH233322   3.531   2.905  17.147  0.7171 -0.0892 -0.0164
 3944TIP3    H133323   3.564   2.908  17.237  2.6494 -2.1195 -0.5930
 3944TIP3    H233324   3.592   2.959  17.097  0.9030 -0.6841 -0.4414
 3945TIP3   OH233325   1.642   5.226   2.780  0.1956  0.0945  0.8461
 3945TIP3    H133326   1.662   5.237   2.873  1.8043 -1.8763  0.7423
 3945TIP3    H233327   1.686   5.300   2.737  0.5920  0.2426  1.5023
 3946TIP3   OH233328   2.812   3.696   1.075  0.1467 -0.9167 -0.0610
 3946TIP3    H133329   2.882   3.691   1.140  0.1610  0.0670  0.0014
 3946TIP3    H233330   2.845   3.645   1.001  0.9809 -0.3694 -0.0752
 3947TIP3   OH233331   2.856   2.833   1.706  0.1519 -0.1693 -0.0721
 3947TIP3    H133332   2.774   2.788   1.723 -0.4154  0.8947  0.1066
 3947TIP3    H233333   2.918   2.797   1.769 -0.0688 -1.2599 -0.4781
 3948TIP3   OH233334   4.222   6.292  16.070 -0.1272 -0.5428  0.4542
 3948TIP3    H133335   4.134   6.315  16.041  0.4992  1.5779  0.1758
 3948TIP3    H233336   4.224   6.196  16.065 -2.1357 -0.5772 -0.3119
 3949TIP3   OH233337   4.721   6.032   2.014  0.1119 -0.1877  0.9047
 3949TIP3    H133338   4.626   6.032   2.019  0.1390 -0.4449  1.5685
 3949TIP3    H233339   4.749   6.082   2.091  0.4980  0.5207  0.3114
 3950TIP3   OH233340   5.833   2.939  16.619  0.0700  0.6705 -0.0563
 3950TIP3    H133341   5.874   2.902  16.697  0.8075  1.0989 -0.2367
 3950TIP3    H233342   5.757   2.882  16.603 -0.2388  0.7375  1.1186
 3951TIP3   OH233343   2.404   4.835   3.281 -0.0947  0.2674 -0.0145
 3951TIP3    H133344   2.318   4.814   3.317  0.2883  0.6166  1.1480
 3951TIP3    H233345   2.459   4.761   3.307  0.9764  2.0056  3.0671
 3952TIP3   OH233346   3.537   1.016  13.156 -0.4848  0.0064  0.0986
 3952TIP3    H133347   3.583   1.035  13.238  1.1805 -1.8128 -0.3603
 3952TIP3    H233348   3.492   0.933  13.173 -0.8474  0.0745 -0.5282
 3953TIP3   OH233349   4.983   1.262  13.319 -0.6134  0.0279 -0.8349
 3953TIP3    H133350   4.897   1.225  13.338 -0.8660  1.5855  1.1657
 3953TIP3    H233351   4.967   1.355  13.303  0.9030  0.7544  1.5328
 3954TIP3   OH233352   6.206   2.678   2.256  0.2124 -0.4603  0.5809
 3954TIP3    H133353   6.301   2.687   2.263  0.1866  0.7069 -0.3080
 3954TIP3    H233354   6.192   2.625   2.177  0.0801  1.9957 -1.1104
 3955TIP3   OH233355   3.929   1.294   1.743  0.0393  0.4412  0.0923
 3955TIP3    H133356   3.868   1.352   1.789 -0.2006 -0.3568  0.7902
 3955TIP3    H233357   3.899   1.206   1.764  2.8458 -0.0280  2.4342
 3956TIP3   OH233358   1.996   5.593   4.005  0.5563 -0.0494  0.1998
 3956TIP3    H133359   2.022   5.611   3.915 -1.7431  1.7567 -0.1491
 3956TIP3    H233360   1.948   5.510   4.000 -0.1913  0.4064 -0.3873
 3957TIP3   OH233361   0.899   0.376  11.038  0.4683  0.3458 -0.0638
 3957TIP3    H133362   0.846   0.322  10.980  1.2932 -0.8230  0.2582
 3957TIP3    H233363   0.895   0.332  11.123 -0.3762  1.8099  0.6821
 3958TIP3   OH233364   4.264   3.362   5.354  0.7398 -0.1756 -0.4911
 3958TIP3    H133365   4.252   3.396   5.442  0.8481  0.8060 -0.8515
 3958TIP3    H233366   4.182   3.383   5.309  0.8044 -0.4044 -0.7184
 3959TIP3   OH233367   1.930   5.002  16.452  0.1910 -1.0259 -0.3211
 3959TIP3    H133368   1.979   4.991  16.370  0.5127  0.3992 -0.3394
 3959TIP3    H233369   1.972   4.942  16.513  0.0810 -1.9551 -1.1403
 3960TIP3   OH233370   2.138   6.179   4.873 -0.2337  0.6063  0.5181
 3960TIP3    H133371   2.090   6.120   4.931 -1.0084  1.9257  1.2381
 3960TIP3    H233372   2.156   6.257   4.926 -1.5208  2.1158 -1.1810
 3961TIP3   OH233373   0.267   2.103   4.894 -0.1647  0.4865 -0.7559
 3961TIP3    H133374   0.314   2.121   4.975 -0.8324 -1.7043  0.1509
 3961TIP3    H233375   0.330   2.120   4.825  0.4375  2.3035  0.2189
 3962TIP3   OH233376   2.243   5.487   2.936  0.2804  0.3651  0.1227
 3962TIP3    H133377   2.154   5.491   2.971  0.3669  1.3538  0.2401
 3962TIP3    H233378   2.252   5.567   2.884  0.8048 -0.1560 -0.5930
 3963TIP3   OH233379   2.633   5.375  11.639 -0.0788 -0.6359  0.2040
 3963TIP3    H133380   2.569   5.407  11.575  0.4185  0.7642  0.3836
 3963TIP3    H233381   2.693   5.321  11.588 -1.0599 -1.4711 -0.0731
 3964TIP3   OH233382   5.280   6.274   5.857 -0.1916  0.1384 -0.4263
 3964TIP3    H133383   5.363   6.320   5.858 -0.4243  0.5685 -0.6673
 3964TIP3    H233384   5.263   6.256   5.765 -0.1429 -0.3556 -0.3415
 3965TIP3   OH233385   5.343   3.579  13.864 -0.8609 -0.5818  0.1405
 3965TIP3    H133386   5.307   3.667  13.869  0.3963  0.0022 -1.0203
 3965TIP3    H233387   5.391   3.568  13.945 -2.7807 -1.0034  1.2623
 3966TIP3   OH233388   6.179   0.334   5.705  0.5574  0.2401 -0.0762
 3966TIP3    H133389   6.145   0.350   5.617 -0.4861  1.0204  0.4641
 3966TIP3    H233390   6.185   0.421   5.745 -0.0858 -0.2181  1.0290
 3967TIP3   OH233391   2.399   5.871   5.737 -0.1531 -0.4974 -0.3612
 3967TIP3    H133392   2.348   5.849   5.815  1.6438  1.0209  1.3188
 3967TIP3    H233393   2.482   5.824   5.749  0.7740  1.0665 -0.5011
 3968TIP3   OH233394   4.772   6.301   6.709  0.0704  0.4731 -0.3961
 3968TIP3    H133395   4.865   6.293   6.684  0.1079  1.4048 -0.5629
 3968TIP3    H233396   4.730   6.228   6.664  0.5169  0.8139 -1.3918
 3969TIP3   OH233397   6.273   0.369  11.936  0.0609  0.1481 -0.3651
 3969TIP3    H133398   6.186   0.394  11.967  1.0649  2.6545  0.5899
 3969TIP3    H233399   6.274   0.395  11.844 -0.3416 -0.2554 -0.4826
 3970TIP3   OH233400   4.182   1.506   0.095 -0.2929 -0.2682  0.3371
 3970TIP3    H133401   4.218   1.494   0.007 -1.4015  0.6166 -0.2545
 3970TIP3    H233402   4.254   1.541   0.146 -0.3152  1.5995 -0.8623
 3971TIP3   OH233403   2.825   0.633   3.729  0.4294  0.1803  0.0427
 3971TIP3    H133404   2.891   0.596   3.788  0.4488  0.4138  0.1665
 3971TIP3    H233405   2.778   0.697   3.782  0.1884  0.1084 -0.0836
 3972TIP3   OH233406   0.840   5.591  12.443 -0.0292 -0.3241  0.0932
 3972TIP3    H133407   0.785   5.537  12.500 -0.7391  0.4118  0.1175
 3972TIP3    H233408   0.928   5.554  12.451  0.0640  0.3492  2.3694
 3973TIP3   OH233409   6.112   3.113   1.481  0.7132  0.0724 -0.0826
 3973TIP3    H133410   6.132   3.057   1.406  1.1808  1.4724 -1.0239
 3973TIP3    H233411   6.099   3.200   1.443 -0.8719  0.4425  1.2599
 3974TIP3   OH233412   6.782   3.356  15.736 -0.4716 -0.6611  0.2297
 3974TIP3    H133413   6.735   3.405  15.669  0.5127 -1.1372 -0.8283
 3974TIP3    H233414   6.864   3.404  15.748 -0.1217 -1.2571  0.2167
 3975TIP3   OH233415   3.427   5.609   3.964 -0.9606 -0.0491  0.3653
 3975TIP3    H133416   3.459   5.600   3.875 -0.4718  1.4410  0.3760
 3975TIP3    H233417   3.361   5.679   3.959 -2.3858 -1.3337  0.8102
 3976TIP3   OH233418   4.501   3.165  11.429  0.3711 -0.8144 -0.1876
 3976TIP3    H133419   4.595   3.149  11.432  0.6628  0.9819  0.7060
 3976TIP3    H233420   4.466   3.114  11.502  1.0107  0.7153  1.2149
 3977TIP3   OH233421   0.861   1.403   1.057  0.4135  0.1340 -0.0169
 3977TIP3    H133422   0.923   1.330   1.049  0.6685  0.4085 -0.5567
 3977TIP3    H233423   0.915   1.477   1.086  0.2534  0.2529 -0.0215
 3978TIP3   OH233424   6.489   1.137   5.832  0.3024 -0.3048  0.1451
 3978TIP3    H133425   6.416   1.124   5.892  0.5072  1.8479  0.9322
 3978TIP3    H233426   6.565   1.148   5.889  1.1267 -1.7430 -0.6401
 3979TIP3   OH233427   5.379   4.918  15.406  0.2123  0.4451  0.3331
 3979TIP3    H133428   5.405   5.000  15.448  0.2283  0.7661 -0.2880
 3979TIP3    H233429   5.322   4.945  15.335  1.6907  0.0742 -1.0394
 3980TIP3   OH233430   2.824   6.556   1.770  0.2597  0.2437  0.0673
 3980TIP3    H133431   2.786   6.475   1.802  0.8811  0.0048  0.2131
 3980TIP3    H233432   2.857   6.600   1.849 -2.8271  2.1189  0.3871
 3981TIP3   OH233433   4.609   5.124   3.276 -0.5291 -0.2887 -0.3763
 3981TIP3    H133434   4.558   5.059   3.229 -0.8516  0.5858 -1.2520
 3981TIP3    H233435   4.685   5.076   3.309 -1.1416 -1.2593 -0.3851
 3982TIP3   OH233436   3.995   4.290   3.496 -0.4022  0.1908 -0.2621
 3982TIP3    H133437   3.932   4.253   3.558  1.4030 -1.4989  0.6214
 3982TIP3    H233438   3.942   4.322   3.424 -2.2628 -1.3904  0.3658
 3983TIP3   OH233439   5.596   0.775  14.300 -0.0569 -0.0925 -0.1462
 3983TIP3    H133440   5.666   0.796  14.362 -0.2369  1.4439 -0.4383
 3983TIP3    H233441   5.554   0.859  14.282 -0.2632 -0.5698 -2.0471
 3984TIP3   OH233442   5.691   2.394   2.656 -0.0342 -0.6066  0.3538
 3984TIP3    H133443   5.748   2.322   2.629 -0.4057 -1.7623  2.5415
 3984TIP3    H233444   5.714   2.410   2.748 -2.9175 -0.8582  1.1938
 3985TIP3   OH233445   6.360   0.942   4.403 -0.5773  0.4272 -0.1039
 3985TIP3    H133446   6.277   0.990   4.396  0.1920  1.8407  0.2123
 3985TIP3    H233447   6.427   1.008   4.383  0.5552 -0.3205  1.1652
 3986TIP3   OH233448   6.772   3.627  11.175 -0.2168  0.6084 -0.4312
 3986TIP3    H133449   6.833   3.700  11.175 -0.6033  0.9354 -0.5851
 3986TIP3    H233450   6.827   3.549  11.187  0.1832  0.9309 -0.1710
 3987TIP3   OH233451   5.358   0.579   5.698  0.1001 -0.1741  0.0998
 3987TIP3    H133452   5.312   0.503   5.734  0.0919 -0.0380  0.3746
 3987TIP3    H233453   5.433   0.542   5.652  1.1501 -0.2302  1.8158
 3988TIP3   OH233454   0.276   3.116   0.208  0.1718 -0.1732  0.1703
 3988TIP3    H133455   0.317   3.202   0.195  0.3790  0.2698  3.3457
 3988TIP3    H233456   0.184   3.136   0.227 -0.0372 -0.7275 -0.2512
 3989TIP3   OH233457   0.495   0.520   2.028  0.1171  0.5558 -0.0974
 3989TIP3    H133458   0.412   0.562   2.006  0.2509  0.4194 -0.8750
 3989TIP3    H233459   0.500   0.444   1.969  0.8322  0.6199 -0.1219
 3990TIP3   OH233460   4.776   6.097  15.611  0.4733 -0.5439  1.0550
 3990TIP3    H133461   4.851   6.042  15.587 -1.5080 -2.6415 -0.5181
 3990TIP3    H233462   4.747   6.135  15.528 -0.8917 -0.6661  1.4734
 3991TIP3   OH233463   6.757   2.630   2.543 -0.6576  0.1343 -0.0996
 3991TIP3    H133464   6.782   2.552   2.494 -2.4952 -0.6235  0.1150
 3991TIP3    H233465   6.719   2.596   2.624  0.2455  1.3168  0.8429
 3992TIP3   OH233466   3.000   5.020   5.676  0.5820 -0.2375  0.0095
 3992TIP3    H133467   2.926   5.076   5.654 -0.0504 -1.0963 -0.0202
 3992TIP3    H233468   3.043   5.066   5.748  0.2630  0.4665 -0.2456
 3993TIP3   OH233469   2.934   5.638   3.653  0.3270  0.3757  0.1829
 3993TIP3    H133470   2.962   5.683   3.573 -0.8087 -3.3790 -2.4838
 3993TIP3    H233471   2.841   5.618   3.638  0.0347 -0.1868  2.5497
 3994TIP3   OH233472   3.253   2.691   1.103 -0.1850 -0.3200 -0.5450
 3994TIP3    H133473   3.242   2.754   1.175 -0.1515 -1.1255  0.1667
 3994TIP3    H233474   3.304   2.739   1.037  0.0790  0.3102  0.1118
 3995TIP3   OH233475   6.347   6.737   5.735  0.0342 -0.3898  0.3825
 3995TIP3    H133476   6.418   6.800   5.724  0.6800 -1.4672 -1.8326
 3995TIP3    H233477   6.367   6.693   5.818  1.4135  0.0040  0.2774
 3996TIP3   OH233478   4.009   6.481   2.784 -0.3148  0.5322  0.2143
 3996TIP3    H133479   4.049   6.488   2.697  1.0773 -0.6423  0.7428
 3996TIP3    H233480   3.973   6.392   2.786 -2.1339  1.2531  0.1031
 3997TIP3   OH233481   3.699   2.060  13.523 -0.0632 -0.6912 -0.0436
 3997TIP3    H133482   3.718   1.979  13.570  0.7345 -0.6425 -0.2854
 3997TIP3    H233483   3.755   2.126  13.564  0.8145 -0.6956 -1.2050
 3998TIP3   OH233484   3.569   1.400   4.105  0.2352 -0.3067 -0.2942
 3998TIP3    H133485   3.542   1.401   4.197  1.0694  1.0539 -0.0541
 3998TIP3    H233486   3.487   1.387   4.056 -0.6337  1.8947  0.5066
 3999TIP3   OH233487   2.793   0.859  13.739  0.2128  0.0172  0.3070
 3999TIP3    H133488   2.836   0.783  13.701 -1.3201 -1.5803  1.6946
 3999TIP3    H233489   2.722   0.879  13.679 -0.2465 -0.5252  0.6676
 4000TIP3   OH233490   0.005   1.161  11.757  0.2329 -0.0521  0.7809
 4000TIP3    H133491  -0.086   1.145  11.732 -0.4110  1.7974  1.8542
 4000TIP3    H233492   0.049   1.186  11.675 -0.5206  0.3272  0.4947
 4001TIP3   OH233493   1.066   2.390   2.939  0.4186  0.5773 -0.3278
 4001TIP3    H133494   1.070   2.454   2.869 -1.1253  2.1891  1.0212
 4001TIP3    H233495   1.069   2.441   3.020 -1.4969 -0.9659  0.7763
 4002TIP3   OH233496   3.939   2.329   2.906  0.2059  0.5381 -0.8678
 4002TIP3    H133497   4.007   2.279   2.951 -1.9655 -1.9405 -0.2368
 4002TIP3    H233498   3.860   2.314   2.957 -0.8673  3.3903 -1.5832
 4003TIP3   OH233499   0.232   4.265   5.808 -0.3158  0.0350 -0.0740
 4003TIP3    H133500   0.236   4.196   5.742  1.1444  1.4647 -1.5026
 4003TIP3    H233501   0.322   4.275   5.839 -0.5270  1.2383  0.1824
 4004TIP3   OH233502   2.455   4.860   0.692 -0.5363  0.6263  0.1145
 4004TIP3    H133503   2.435   4.768   0.673  3.2583 -0.0562 -1.0959
 4004TIP3    H233504   2.458   4.902   0.606  0.6687  1.2090  0.4302
 4005TIP3   OH233505   0.052   0.728  14.368  0.0518 -0.3693  0.1640
 4005TIP3    H133506  -0.032   0.759  14.403  0.7505  0.0373  1.5267
 4005TIP3    H233507   0.081   0.798  14.310 -0.2631 -0.2369  0.1640
 4006TIP3   OH233508   5.830   4.633   2.441 -0.5938  0.0860 -0.5249
 4006TIP3    H133509   5.811   4.598   2.528 -2.9132  1.0457 -0.6215
 4006TIP3    H233510   5.821   4.727   2.451  0.7079  0.3167 -1.4550
 4007TIP3   OH233511   5.926   5.806  17.103  0.2125 -0.1959  0.5674
 4007TIP3    H133512   5.874   5.746  17.156 -0.0418  0.0622  0.6124
 4007TIP3    H233513   5.911   5.892  17.142  1.9547 -0.3293  1.5896
 4008TIP3   OH233514   1.537   2.273   0.524 -0.1562  0.4299  0.8525
 4008TIP3    H133515   1.502   2.297   0.610  0.7242  0.9092  1.0797
 4008TIP3    H233516   1.575   2.353   0.490  0.9544 -0.1394  0.7259
 4009TIP3   OH233517   6.306   6.210   0.941  0.0399 -0.5577 -0.4701
 4009TIP3    H133518   6.230   6.158   0.965 -0.4705  1.1531  1.8104
 4009TIP3    H233519   6.380   6.149   0.949 -0.7276 -1.3746  0.4882
 4010TIP3   OH233520   4.063   1.538  14.430 -0.7225 -0.0095 -0.1236
 4010TIP3    H133521   4.090   1.488  14.507 -0.2664  1.2381  0.5335
 4010TIP3    H233522   4.094   1.486  14.356  2.4868  0.7707  0.5849
 4011TIP3   OH233523   6.142   0.964   3.045  0.1066  0.1998  0.2800
 4011TIP3    H133524   6.118   1.032   3.108 -0.8150 -1.1197  1.3867
 4011TIP3    H233525   6.173   0.891   3.100 -0.4363 -0.8641 -0.8097
 4012TIP3   OH233526   5.079   0.001   5.852  0.2555  0.2075 -0.4479
 4012TIP3    H133527   5.126   0.048   5.920  2.4432 -0.7722 -1.2165
 4012TIP3    H233528   5.099  -0.091   5.869 -1.1858 -0.2029 -0.9511
 4013TIP3   OH233529   0.564   6.736   0.097  0.2999 -0.3368 -0.0793
 4013TIP3    H133530   0.603   6.704   0.178  1.2101  1.1434  0.0836
 4013TIP3    H233531   0.533   6.657   0.052 -0.4526 -1.1425  1.8159
 4014TIP3   OH233532   1.660   4.027   1.245 -0.7180  0.6450  0.8511
 4014TIP3    H133533   1.644   4.112   1.203  2.1102  0.5943 -0.4841
 4014TIP3    H233534   1.748   4.035   1.282 -0.5051 -1.6306  0.9271
 4015TIP3   OH233535   5.408   0.885   0.072 -0.1590 -0.1784  0.4210
 4015TIP3    H133536   5.391   0.972   0.035  0.4570  0.1197  0.8346
 4015TIP3    H233537   5.420   0.901   0.165 -0.7339 -0.8046  0.5969
 4016TIP3   OH233538   3.001   3.947  10.831  0.2618  0.2485 -0.0477
 4016TIP3    H133539   3.053   3.934  10.752  0.3003 -0.5908  0.1174
 4016TIP3    H233540   2.962   3.862  10.849  1.6712 -0.0167  1.8582
 4017TIP3   OH233541   3.443   2.523   1.178  0.1979  0.1909 -0.4356
 4017TIP3    H133542   3.522   2.570   1.150  0.4856  0.2588  0.4534
 4017TIP3    H233543   3.372   2.585   1.165  0.5083  0.6908  0.2454
 4018TIP3   OH233544   1.450   4.723  15.808 -0.4957 -0.2356  0.3736
 4018TIP3    H133545   1.410   4.781  15.872 -0.6728  1.6879 -1.4113
 4018TIP3    H233546   1.375   4.686  15.760 -0.2992 -0.1736  0.0195
 4019TIP3   OH233547   3.498   4.354   5.498  0.1460  0.1038  0.7491
 4019TIP3    H133548   3.516   4.447   5.508 -0.0572  0.4506 -1.7298
 4019TIP3    H233549   3.580   4.317   5.464 -0.2593 -0.3344  0.2315
 4020TIP3   OH233550   5.648   4.443   3.571 -0.0375 -0.0864 -0.6781
 4020TIP3    H133551   5.567   4.416   3.615 -0.4820 -1.1950 -2.0982
 4020TIP3    H233552   5.718   4.412   3.628 -0.6116  0.6944  0.4613
 4021TIP3   OH233553   1.297   0.638   1.575 -0.4012 -0.0500 -0.6322
 4021TIP3    H133554   1.339   0.657   1.659 -2.2969  0.6195  0.1903
 4021TIP3    H233555   1.283   0.544   1.576 -0.1256 -0.0892 -0.3457
 4022TIP3   OH233556   5.698   4.992   4.695 -0.0351 -0.0205  0.2061
 4022TIP3    H133557   5.680   5.026   4.783 -1.8028 -1.1105  0.2969
 4022TIP3    H233558   5.776   4.938   4.705 -0.2725 -0.1926  1.1284
 4023TIP3   OH233559   2.109   5.647  11.050  0.6321 -0.2492  0.0280
 4023TIP3    H133560   2.139   5.645  10.959 -2.4319  0.0181 -1.0421
 4023TIP3    H233561   2.046   5.575  11.056 -1.9748  2.0325  0.8925
 4024TIP3   OH233562   4.654   0.570   0.463  0.5220 -0.0149  0.3881
 4024TIP3    H133563   4.699   0.515   0.400  1.2485  1.1430 -0.1160
 4024TIP3    H233564   4.719   0.635   0.489 -1.0275  2.0805 -0.8426
 4025TIP3   OH233565   3.507   1.717  12.909 -0.2370 -0.1696 -0.2684
 4025TIP3    H133566   3.579   1.776  12.930 -1.0908 -0.0116  2.4154
 4025TIP3    H233567   3.434   1.776  12.887 -0.2207 -0.2743 -0.5986
 4026TIP3   OH233568   5.053   3.062   6.685 -0.2562 -0.9548 -0.5188
 4026TIP3    H133569   4.994   3.137   6.687  0.9069 -0.0009 -1.0661
 4026TIP3    H233570   5.002   2.989   6.720 -1.0129  0.3751  1.1650
 4027TIP3   OH233571   1.498   6.532   2.664 -0.3250  0.2017 -0.0516
 4027TIP3    H133572   1.580   6.532   2.615 -1.2175 -1.7956 -1.6414
 4027TIP3    H233573   1.461   6.445   2.648 -0.4509 -0.7146  4.5892
 4028TIP3   OH233574   3.197   4.585   5.415  0.5082 -0.3086 -0.4509
 4028TIP3    H133575   3.170   4.659   5.469 -0.1965 -1.8531  1.3827
 4028TIP3    H233576   3.284   4.609   5.383 -0.4084  2.0117 -1.2611
 4029TIP3   OH233577   6.201   4.389  11.393 -0.1796 -0.6942 -0.2588
 4029TIP3    H133578   6.205   4.474  11.436 -0.8204 -0.0798 -1.3920
 4029TIP3    H233579   6.143   4.403  11.318 -0.5773 -2.2165 -0.2523
 4030TIP3   OH233580   0.837   3.321  10.893 -0.0123 -0.1246  0.0221
 4030TIP3    H133581   0.911   3.323  10.832 -1.7183 -1.3123 -2.1780
 4030TIP3    H233582   0.792   3.239  10.872 -1.6319  0.3071  1.7166
 4031TIP3   OH233583   5.623   1.767  12.896 -0.0478  0.0042 -0.0211
 4031TIP3    H133584   5.717   1.769  12.911  0.1404 -1.0134 -1.0345
 4031TIP3    H233585   5.610   1.812  12.813 -0.4877  0.4202  0.2700
 4032TIP3   OH233586   5.487   1.393   3.974  0.0792 -0.3781  0.9402
 4032TIP3    H133587   5.507   1.483   3.949 -0.5652 -0.3466  0.5330
 4032TIP3    H233588   5.490   1.394   4.070  2.3212 -0.4475  0.9113
 4033TIP3   OH233589   4.698   2.782  16.025  0.1795 -0.0045  0.4388
 4033TIP3    H133590   4.608   2.752  16.033  0.4274 -0.4411  1.6696
 4033TIP3    H233591   4.699   2.834  15.944 -1.3594  0.6747  0.8411
 4034TIP3   OH233592   1.251   6.567   1.582  0.0287  0.0538  0.4908
 4034TIP3    H133593   1.212   6.587   1.497 -1.0200 -0.1444  0.9142
 4034TIP3    H233594   1.276   6.652   1.618 -1.8816  0.3645  1.0968
 4035TIP3   OH233595   2.001   3.121   3.693  0.1696  0.0929  0.0401
 4035TIP3    H133596   1.989   3.209   3.659 -0.2351 -0.1160 -0.3585
 4035TIP3    H233597   1.984   3.128   3.787  1.6246  0.7392  0.2706
 4036TIP3   OH233598   0.240   4.871  11.625 -0.6588 -0.3583 -0.0987
 4036TIP3    H133599   0.282   4.870  11.711  1.8283 -0.0096 -1.2851
 4036TIP3    H233600   0.269   4.953  11.585 -0.3238 -1.3981 -2.0023
 4037TIP3   OH233601   0.178   3.736  16.100 -0.3638 -0.0169 -0.0168
 4037TIP3    H133602   0.201   3.658  16.151  0.9756  0.9534  0.8733
 4037TIP3    H233603   0.096   3.766  16.138 -0.6014 -0.6779 -0.0054
 4038TIP3   OH233604   4.550   4.558  16.975  0.3484  0.6352  0.4568
 4038TIP3    H133605   4.474   4.576  16.920  1.3465  1.9027 -0.5537
 4038TIP3    H233606   4.515   4.510  17.050 -1.5565  1.8101  0.3538
 4039TIP3   OH233607   5.430   6.116  14.157 -0.6386  0.2896  0.2384
 4039TIP3    H133608   5.358   6.125  14.094 -0.4174  0.1967 -0.0317
 4039TIP3    H233609   5.399   6.160  14.236 -1.2727 -0.3784  0.3637
 4040TIP3   OH233610   6.370   1.554   5.278 -0.6971 -0.7532  0.0615
 4040TIP3    H133611   6.332   1.599   5.353  2.1980 -1.4522  2.0601
 4040TIP3    H233612   6.383   1.464   5.308 -0.1436 -1.2128 -1.5044
 4041TIP3   OH233613   5.059   5.900   5.667 -0.4220  0.4982  0.4464
 4041TIP3    H133614   5.068   5.987   5.705 -1.5336  0.0282  1.7883
 4041TIP3    H233615   4.967   5.892   5.644  0.1175  0.5719 -1.8984
 4042TIP3   OH233616   5.352   1.693  17.151 -0.7052 -0.1305 -0.1748
 4042TIP3    H133617   5.398   1.613  17.127  0.7394  0.3284  1.0178
 4042TIP3    H233618   5.414   1.763  17.132 -0.1320  0.3709  3.1967
 4043TIP3   OH233619   2.456   0.111  13.151 -0.1968  0.6280 -0.4300
 4043TIP3    H133620   2.363   0.102  13.173 -0.0900  0.7634  0.0870
 4043TIP3    H233621   2.464   0.075  13.063 -0.8318  1.0661 -0.6681
 4044TIP3   OH233622   3.893   6.103  14.587  0.5206 -0.0951  0.0576
 4044TIP3    H133623   3.854   6.070  14.506  0.1420 -1.1764  0.6592
 4044TIP3    H233624   3.875   6.034  14.652  0.7963  0.7570  1.0627
 4045TIP3   OH233625   1.935   2.932   2.680 -0.4183  0.0494  0.4272
 4045TIP3    H133626   1.949   2.864   2.614  0.6487 -0.3647  1.0579
 4045TIP3    H233627   1.890   2.886   2.751  0.3948 -0.0285  0.8965
 4046TIP3   OH233628   0.571   0.439   2.698 -0.2326  0.0013 -0.0906
 4046TIP3    H133629   0.623   0.405   2.771 -0.6511 -0.8474 -0.1720
 4046TIP3    H233630   0.577   0.370   2.632 -0.3850  0.4836 -0.6047
 4047TIP3   OH233631   6.159   5.436   0.016  0.2504  0.3523  0.0243
 4047TIP3    H133632   6.077   5.441   0.066 -1.5206 -1.5935 -2.5502
 4047TIP3    H233633   6.224   5.475   0.074 -2.0808  0.0384  3.0025
 4048TIP3   OH233634   3.072   4.106  13.389  0.1434  0.3395  0.4696
 4048TIP3    H133635   3.016   4.139  13.459  2.4036 -0.6847  2.8623
 4048TIP3    H233636   3.123   4.182  13.362 -0.4426  0.6418  0.2045
 4049TIP3   OH233637   5.190   4.011  15.904  0.0370 -0.4222  0.8184
 4049TIP3    H133638   5.151   4.094  15.878 -0.4084 -0.9105 -0.0767
 4049TIP3    H233639   5.248   3.988  15.831  2.2380  0.4431  2.2538
 4050TIP3   OH233640   2.934   0.636  12.397 -0.1355 -0.3771 -0.3147
 4050TIP3    H133641   2.872   0.673  12.461 -0.4334 -0.6388 -0.4562
 4050TIP3    H233642   2.992   0.709  12.377  0.6969 -0.6251  1.1618
 4051TIP3   OH233643   0.792   6.342   0.912 -0.3115 -0.3135 -0.3475
 4051TIP3    H133644   0.717   6.365   0.857 -0.4749 -1.4393 -0.6068
 4051TIP3    H233645   0.783   6.399   0.989 -2.4149 -1.5980  0.4218
 4052TIP3   OH233646   4.336   4.978  11.647 -0.1099 -0.0379  0.0200
 4052TIP3    H133647   4.245   4.984  11.676 -0.0801 -0.4659  0.2107
 4052TIP3    H233648   4.387   4.986  11.727 -0.0050 -0.5426  0.0038
 4053TIP3   OH233649   2.414   2.290   3.535  0.1677 -0.1297 -0.6103
 4053TIP3    H133650   2.348   2.270   3.601  1.7384 -1.8598  0.4749
 4053TIP3    H233651   2.484   2.335   3.583  0.4791  0.3216 -1.4623
 4054TIP3   OH233652   5.489   6.245   3.044 -0.2842  0.3960 -0.4706
 4054TIP3    H133653   5.468   6.323   3.095 -1.7811 -0.7757  0.7718
 4054TIP3    H233654   5.437   6.254   2.964 -1.3728  0.1324  0.1917
 4055TIP3   OH233655   1.153   4.120  14.589  1.0968 -0.5814 -0.0612
 4055TIP3    H133656   1.105   4.041  14.565  0.5625 -0.0784 -0.6684
 4055TIP3    H233657   1.240   4.089  14.613  1.0182 -1.3067 -0.7067
 4056TIP3   OH233658   1.075   1.202  14.931 -0.3394 -0.3900 -0.3904
 4056TIP3    H133659   1.130   1.189  15.009 -1.7289 -0.2475  0.6433
 4056TIP3    H233660   1.048   1.114  14.906  1.0720 -0.5408 -1.4537
 4057TIP3   OH233661   3.712   4.139  16.846  0.2275 -0.4605  0.4738
 4057TIP3    H133662   3.771   4.074  16.886 -0.1228 -0.6659  0.6581
 4057TIP3    H233663   3.629   4.093  16.838  0.0050 -0.0620  0.5103
 4058TIP3   OH233664   3.741   4.016  14.325 -0.0225  0.1962  0.3818
 4058TIP3    H133665   3.820   4.070  14.321  0.5465 -0.5862  0.7510
 4058TIP3    H233666   3.757   3.957  14.399 -1.5973  1.0098  1.3799
 4059TIP3   OH233667   1.004   2.523  15.185 -0.8078  0.2819 -0.7876
 4059TIP3    H133668   0.966   2.599  15.229  1.0924  1.6565 -1.4480
 4059TIP3    H233669   0.930   2.478  15.145 -2.2395  0.5164  1.4840
 4060TIP3   OH233670   4.774   2.859   4.538  0.1486  0.1206  0.1000
 4060TIP3    H133671   4.814   2.804   4.606 -2.1414 -1.7909 -0.0283
 4060TIP3    H233672   4.695   2.894   4.579 -0.6675 -0.1630 -1.1954
 4061TIP3   OH233673   4.328   4.881   6.491 -0.0561  0.5320 -0.3841
 4061TIP3    H133674   4.257   4.941   6.466  0.2443  0.9683 -0.1925
 4061TIP3    H233675   4.349   4.835   6.409 -0.2572  0.7184 -0.5440
 4062TIP3   OH233676   5.374   6.175  12.063  0.5695  0.1216  0.1565
 4062TIP3    H133677   5.348   6.119  12.137 -0.2434  0.7956  0.3924
 4062TIP3    H233678   5.458   6.211  12.089  1.3119 -1.3427 -0.1917
 4063TIP3   OH233679   1.012   6.607   1.098  0.1173 -0.7337 -0.2413
 4063TIP3    H133680   0.997   6.679   1.037 -0.0897  1.2780  2.1056
 4063TIP3    H233681   0.930   6.557   1.097 -0.4540  0.1940 -0.4370
 4064TIP3   OH233682   4.182   0.768   4.934 -0.3591  0.2339 -0.3937
 4064TIP3    H133683   4.213   0.851   4.972  0.7537 -0.7804  0.9797
 4064TIP3    H233684   4.087   0.773   4.939 -0.2568  0.6647  1.3785
 4065TIP3   OH233685   1.066   0.614  16.577 -0.7702  0.3488  0.0650
 4065TIP3    H133686   0.991   0.669  16.553 -1.0242  0.0658  0.2074
 4065TIP3    H233687   1.142   0.662  16.544 -1.1395 -0.2278 -1.6668
 4066TIP3   OH233688   3.546   5.147   4.623  0.0947  0.2477 -0.1456
 4066TIP3    H133689   3.589   5.067   4.592  0.3200  0.0367  0.7088
 4066TIP3    H233690   3.471   5.157   4.564  0.9089  0.2400 -1.2066
 4067TIP3   OH233691   2.844   2.911   1.173  0.0052 -0.1138 -0.4422
 4067TIP3    H133692   2.797   2.967   1.235 -0.0790 -0.9327  0.2395
 4067TIP3    H233693   2.902   2.857   1.228 -0.6705 -1.4261 -0.9951
 4068TIP3   OH233694   1.439   1.108   2.934  0.1662  0.0373 -0.4871
 4068TIP3    H133695   1.375   1.051   2.976 -0.8032  0.8370 -0.8398
 4068TIP3    H233696   1.435   1.190   2.984 -0.5666  0.7884 -1.7474
 4069TIP3   OH233697   1.959   6.595   0.631 -0.3583 -0.0963 -0.2935
 4069TIP3    H133698   2.003   6.576   0.548 -0.1259 -0.8416 -0.0038
 4069TIP3    H233699   1.900   6.668   0.610 -0.3769 -0.3389 -1.1340
 4070TIP3   OH233700   4.185   3.971   6.298  0.2643 -0.7499 -0.9044
 4070TIP3    H133701   4.205   4.034   6.367 -0.8173  0.6702 -1.8522
 4070TIP3    H233702   4.268   3.958   6.252  0.5647 -0.3017 -0.4902
 4071TIP3   OH233703   4.479   6.280   6.833  0.0541 -0.3629 -0.4117
 4071TIP3    H133704   4.514   6.228   6.760 -2.7656 -0.9281 -1.4332
 4071TIP3    H233705   4.384   6.273   6.824 -0.4312  3.9741  0.1263
 4072TIP3   OH233706   0.374   6.040  13.922 -0.3614 -0.1375 -0.1267
 4072TIP3    H133707   0.294   6.077  13.959  0.3978  1.9996 -0.5873
 4072TIP3    H233708   0.355   6.030  13.829 -0.3621 -0.3998 -0.0998
 4073TIP3   OH233709   1.347   0.607   5.252 -0.3295 -0.1586  0.0126
 4073TIP3    H133710   1.418   0.625   5.191  1.0689 -1.9377  1.0691
 4073TIP3    H233711   1.301   0.532   5.214 -0.3613 -0.3273  0.3794
 4074TIP3   OH233712   4.532   2.314  11.855 -0.1199 -0.2915  0.0001
 4074TIP3    H133713   4.544   2.219  11.854  0.0171 -0.2679 -0.8130
 4074TIP3    H233714   4.544   2.341  11.764 -5.7140 -0.1751 -0.8607
 4075TIP3   OH233715   6.357   1.670   2.065  0.4680 -0.4264 -0.1871
 4075TIP3    H133716   6.441   1.646   2.025  0.8179  0.9947 -0.3161
 4075TIP3    H233717   6.326   1.588   2.104  0.4017 -1.7386 -2.8287
 4076TIP3   OH233718   2.975   1.012   5.128 -0.3455  0.6183  0.2266
 4076TIP3    H133719   2.981   0.948   5.200  0.5199 -0.5528 -0.8586
 4076TIP3    H233720   3.032   0.976   5.060 -2.3684  0.8920 -1.6685
 4077TIP3   OH233721   2.124   6.655  13.887 -0.1436  0.9577 -0.0186
 4077TIP3    H133722   2.201   6.599  13.895 -1.1154 -0.1734  1.7390
 4077TIP3    H233723   2.159   6.744  13.894  1.0875  0.4761  0.1467
 4078TIP3   OH233724   5.185   0.483  12.514 -0.3535  0.5929 -0.5051
 4078TIP3    H133725   5.106   0.456  12.468 -1.1002  0.0782  1.0534
 4078TIP3    H233726   5.254   0.478  12.448 -0.8865 -2.9391 -0.8594
 4079TIP3   OH233727   1.507   3.155  13.161  0.1818  0.1198  0.0534
 4079TIP3    H133728   1.517   3.078  13.105  1.2361 -0.9648  1.7228
 4079TIP3    H233729   1.524   3.124  13.249  1.9979  2.5255  0.6051
 4080TIP3   OH233730   6.818   3.425   2.487  0.5187  0.0704 -0.5468
 4080TIP3    H133731   6.738   3.439   2.537 -0.5368 -2.1986 -1.5038
 4080TIP3    H233732   6.844   3.512   2.458 -1.9367  0.7993 -0.7040
 4081TIP3   OH233733   1.167   1.670   2.198 -0.4825 -0.0245  0.5579
 4081TIP3    H133734   1.261   1.652   2.199 -0.7765 -1.6717  0.8747
 4081TIP3    H233735   1.145   1.685   2.290 -0.6196 -0.1274  0.5416
 4082TIP3   OH233736   5.024   5.035  14.645 -0.0461 -0.5307 -1.1604
 4082TIP3    H133737   5.052   4.959  14.593 -0.7681  0.1351 -2.5261
 4082TIP3    H233738   4.941   5.007  14.685 -0.6363 -0.2338 -2.1758
 4083TIP3   OH233739   3.007   2.583   5.782 -0.7121  1.1475 -0.2284
 4083TIP3    H133740   2.920   2.548   5.764  0.0466 -0.7154 -0.4026
 4083TIP3    H233741   3.006   2.602   5.876 -0.1615 -2.2917  0.5234
 4084TIP3   OH233742   6.691   6.357   0.840 -0.6621 -0.0491  0.1597
 4084TIP3    H133743   6.752   6.314   0.780  0.2948  1.9601 -0.3307
 4084TIP3    H233744   6.711   6.318   0.925  0.5486 -0.2030 -0.1852
 4085TIP3   OH233745   0.202   5.016  10.819  0.7475 -0.3368  0.2538
 4085TIP3    H133746   0.124   5.016  10.764 -0.3176  2.5136  1.6712
 4085TIP3    H233747   0.261   5.079  10.778  0.9618 -0.0537  0.9851
 4086TIP3   OH233748   1.078   3.845  11.513 -0.2704  0.0268  0.0822
 4086TIP3    H133749   1.091   3.884  11.426 -2.1704 -1.4493 -0.9135
 4086TIP3    H233750   1.059   3.920  11.570  2.7832  1.2018 -0.3627
 4087TIP3   OH233751   4.410   6.719   5.898 -0.2319  0.0286 -0.1005
 4087TIP3    H133752   4.405   6.639   5.950 -1.3731 -0.3203 -0.7376
 4087TIP3    H233753   4.349   6.779   5.941  0.1798  0.3629  0.0248
 4088TIP3   OH233754   6.741   3.098  12.862 -0.1591  0.3325  0.9844
 4088TIP3    H133755   6.799   3.158  12.909 -0.1486 -0.3225  1.8199
 4088TIP3    H233756   6.770   3.011  12.890  1.4656 -0.1809 -2.0876
 4089TIP3   OH233757   2.524   6.118   1.981  0.4654  0.0187 -0.5593
 4089TIP3    H133758   2.445   6.094   2.031  1.8213 -2.3222  0.5292
 4089TIP3    H233759   2.533   6.212   1.995 -0.2780 -0.2581  2.0561
 4090TIP3   OH233760   5.119   6.338   1.379 -1.3340  0.1759 -0.3047
 4090TIP3    H133761   5.079   6.263   1.422 -0.5254  0.6538  1.2975
 4090TIP3    H233762   5.092   6.330   1.287  0.0784 -2.9575 -0.5190
 4091TIP3   OH233763   1.673   3.430  13.754 -0.1884 -0.0306 -0.2552
 4091TIP3    H133764   1.660   3.507  13.698 -1.0084 -0.2066 -0.3160
 4091TIP3    H233765   1.619   3.447  13.831 -0.2842 -0.4974 -0.2181
 4092TIP3   OH233766   6.804   4.682   2.736  0.3126  0.2835 -0.1895
 4092TIP3    H133767   6.836   4.613   2.679  0.2891 -0.7720  1.0431
 4092TIP3    H233768   6.804   4.643   2.823  0.8678  2.0360  0.6207
 4093TIP3   OH233769   0.955   0.789  13.989 -0.2556 -0.2755 -0.5993
 4093TIP3    H133770   0.873   0.831  14.015 -0.0551 -0.1644 -0.1269
 4093TIP3    H233771   0.948   0.700  14.024 -0.7431 -0.6776 -1.7289
 4094TIP3   OH233772   2.415   6.715  14.767  0.7698 -0.5139  0.3309
 4094TIP3    H133773   2.361   6.689  14.693 -0.5604  0.2800  0.9895
 4094TIP3    H233774   2.490   6.656  14.765  0.7910 -0.4485 -1.6828
 4095TIP3   OH233775   3.493   6.223  15.943  0.5796  0.0489  0.0637
 4095TIP3    H133776   3.538   6.213  16.027  0.3690  1.7792  0.3965
 4095TIP3    H233777   3.401   6.201  15.962  0.5661  0.2601  0.2445
 4096TIP3   OH233778   5.492   3.312   4.413  0.1163 -0.4500  0.3144
 4096TIP3    H133779   5.457   3.223   4.404  1.0249 -0.9889  1.9121
 4096TIP3    H233780   5.568   3.302   4.471 -1.3252  1.7537  2.6619
 4097TIP3   OH233781   0.292   0.690   1.966 -0.2734  0.0956 -0.3070
 4097TIP3    H133782   0.223   0.649   2.018  0.8934 -1.8928 -0.2850
 4097TIP3    H233783   0.267   0.673   1.876  0.1075 -0.5301 -0.3006
 4098TIP3   OH233784   0.947   4.757  13.727 -0.0571  0.2740 -0.0305
 4098TIP3    H133785   0.935   4.668  13.693  0.0057  1.2626 -2.8130
 4098TIP3    H233786   0.865   4.801  13.705 -0.3940  0.7243  2.0437
 4099TIP3   OH233787   5.816   4.034  17.259  0.6282 -0.0052  0.3949
 4099TIP3    H133788   5.814   4.079  17.344 -0.1684 -0.2838  0.5300
 4099TIP3    H233789   5.778   3.948  17.277 -0.2914  0.2241 -0.4123
 4100TIP3   OH233790   6.366   1.247  15.635 -0.0126  0.5315  0.4578
 4100TIP3    H133791   6.393   1.215  15.721  0.9538  0.7574  0.2511
 4100TIP3    H233792   6.415   1.329  15.625  1.5287 -0.5757 -1.2105
 4101TIP3   OH233793   2.580   3.890   1.464  0.8212 -0.6072  0.9528
 4101TIP3    H133794   2.672   3.886   1.490  0.3315 -1.2808  2.5991
 4101TIP3    H233795   2.539   3.949   1.527  0.3109  0.5295 -0.4021
 4102TIP3   OH233796   0.998   6.318  13.922 -0.1008  0.1312 -0.1979
 4102TIP3    H133797   1.090   6.332  13.943 -0.2258  0.0228  0.4150
 4102TIP3    H233798   0.998   6.243  13.862  0.0780 -0.8833  1.0540
 4103TIP3   OH233799   5.992   2.274   4.988  0.1206  0.5596  0.1494
 4103TIP3    H133800   5.913   2.328   4.981  0.5422  1.0783 -0.7076
 4103TIP3    H233801   6.030   2.275   4.900  0.8958  0.0267  0.4702
 4104TIP3   OH233802   5.676   3.177  14.245  0.0088 -0.3816  0.4249
 4104TIP3    H133803   5.673   3.179  14.149 -0.1513 -0.3539  0.4309
 4104TIP3    H233804   5.769   3.163  14.266  0.9187  4.3814  0.3186
 4105TIP3   OH233805   0.657   2.796   2.215  0.8080 -0.0713  0.0701
 4105TIP3    H133806   0.633   2.816   2.306 -3.1192 -3.0789 -0.1803
 4105TIP3    H233807   0.707   2.714   2.222 -2.4196 -2.1965 -0.6375
 4106TIP3   OH233808   5.671   6.696   2.973 -0.4179  0.3413  0.0294
 4106TIP3    H133809   5.692   6.630   3.038  0.8217 -0.0323 -0.7328
 4106TIP3    H233810   5.730   6.769   2.992 -2.5256  1.7320  1.5643
 4107TIP3   OH233811   5.385   0.325   6.435  0.1778 -0.1527  0.5166
 4107TIP3    H133812   5.447   0.363   6.497  1.6313  1.0418 -1.5986
 4107TIP3    H233813   5.397   0.231   6.443  1.5372  0.0444  0.8516
 4108TIP3   OH233814   2.582   4.825   0.970 -0.2774 -0.4005  0.5071
 4108TIP3    H133815   2.539   4.743   0.945 -0.0347 -1.2446  2.7011
 4108TIP3    H233816   2.510   4.888   0.978 -0.9272 -1.3052  2.2182
 4109TIP3   OH233817   5.409   1.710   0.782 -0.1947  0.4561 -0.5520
 4109TIP3    H133818   5.408   1.711   0.878  1.2536 -0.1273 -0.5336
 4109TIP3    H233819   5.320   1.736   0.758 -0.2983  1.6091  0.9421
 4110TIP3   OH233820   2.588   5.400   6.095  0.1567 -0.2866  0.4540
 4110TIP3    H133821   2.510   5.455   6.101  0.8609  0.7187  0.6553
 4110TIP3    H233822   2.579   5.337   6.167 -0.4187 -0.1126  0.5368
 4111TIP3   OH233823   1.900   2.023   4.555 -0.1893  0.0185 -0.3691
 4111TIP3    H133824   1.877   2.101   4.607 -0.6558 -1.1752  1.2480
 4111TIP3    H233825   1.817   1.997   4.514 -0.2955 -0.3330  0.0653
 4112TIP3   OH233826   0.399   6.528   3.717  0.1163  0.6755  0.2430
 4112TIP3    H133827   0.407   6.623   3.726  1.4021  0.6650 -0.6359
 4112TIP3    H233828   0.472   6.494   3.769 -0.2776  0.1762  0.4636
 4113TIP3   OH233829   4.342   4.896  13.517 -0.4178 -0.1019 -0.0662
 4113TIP3    H133830   4.418   4.899  13.459  0.0505  0.3981  0.5693
 4113TIP3    H233831   4.333   4.803  13.539 -0.5397 -0.2810 -0.8580
 4114TIP3   OH233832   3.573   2.050  10.595 -0.9540  0.2215 -0.7520
 4114TIP3    H133833   3.485   2.069  10.627 -0.2885 -0.8258  1.8272
 4114TIP3    H233834   3.578   1.954  10.595  1.1392  0.2662  1.9998
 4115TIP3   OH233835   0.232   0.768   0.875  0.2987  0.5037 -0.1833
 4115TIP3    H133836   0.225   0.858   0.907  1.4582  0.3096  0.6101
 4115TIP3    H233837   0.245   0.715   0.953  0.9583 -0.2162 -0.7752
 4116TIP3   OH233838   1.088   4.119   0.932  0.2275  0.0414  0.5424
 4116TIP3    H133839   1.161   4.137   0.871  0.2327  3.1001  1.3585
 4116TIP3    H233840   1.094   4.189   0.997  0.1850 -3.1219  4.1189
 4117TIP3   OH233841   2.530   3.220   4.054  0.6762 -0.2848 -0.7512
 4117TIP3    H133842   2.537   3.203   3.960  0.9776 -0.8564 -0.6219
 4117TIP3    H233843   2.576   3.148   4.095 -1.2915 -1.1938 -0.0921
 4118TIP3   OH233844   2.529   5.780   2.967  0.1006  0.2436  0.3357
 4118TIP3    H133845   2.583   5.712   2.928  1.4428  0.8642  1.1004
 4118TIP3    H233846   2.481   5.735   3.037  0.8175  0.0469  0.6977
 4119TIP3   OH233847   4.740   0.363   4.936  0.0555  0.3076 -0.5088
 4119TIP3    H133848   4.814   0.389   4.881  0.8524 -0.8170  0.0061
 4119TIP3    H233849   4.721   0.440   4.990  0.2360  0.9130 -1.3132
 4120TIP3   OH233850   3.891   2.752  14.447 -0.4826 -0.1411 -0.3164
 4120TIP3    H133851   3.841   2.771  14.526  0.7558  1.7217  0.0528
 4120TIP3    H233852   3.828   2.765  14.376 -1.4069 -1.0976  0.3131
 4121TIP3   OH233853   5.079   0.184  15.794  0.5957  0.0633 -0.5295
 4121TIP3    H133854   5.058   0.230  15.713  0.9350  0.6452 -0.2922
 4121TIP3    H233855   5.122   0.104  15.765 -1.1749 -0.7386 -0.9783
 4122TIP3   OH233856   1.834   0.791  13.721  0.1658  0.1828 -0.6545
 4122TIP3    H133857   1.881   0.730  13.665  1.0296  0.9011 -0.7289
 4122TIP3    H233858   1.842   0.876  13.676 -1.1152  0.3289 -0.6202
 4123TIP3   OH233859   5.272   4.039  11.631  0.2309 -0.0184  0.2814
 4123TIP3    H133860   5.261   3.980  11.556 -0.1579 -0.0708  0.3812
 4123TIP3    H233861   5.224   4.118  11.607 -1.0868 -0.5696  1.0750
 4124TIP3   OH233862   0.031   6.127  10.906  0.0673 -0.0566 -0.0551
 4124TIP3    H133863   0.052   6.147  10.815  0.4323  1.4140  0.3321
 4124TIP3    H233864  -0.061   6.100  10.905 -0.1282  0.6129 -0.7843
 4125TIP3   OH233865   0.898   2.970   3.029 -0.3461 -0.1601 -0.3534
 4125TIP3    H133866   0.808   3.000   3.021 -0.6290 -1.4805 -2.5121
 4125TIP3    H233867   0.948   3.034   2.978 -0.1414  0.1556  0.2361
 4126TIP3   OH233868   0.657   3.786  13.620  0.8232  0.2135  0.0485
 4126TIP3    H133869   0.712   3.833  13.682  0.7829  1.8324 -1.1061
 4126TIP3    H233870   0.691   3.811  13.534 -1.5035  0.9732 -0.6684
 4127TIP3   OH233871   1.429   5.785  12.905 -0.1630 -0.2236 -0.2098
 4127TIP3    H133872   1.509   5.800  12.854 -0.6330  0.4846 -0.7502
 4127TIP3    H233873   1.371   5.857  12.879 -1.0851 -0.9090 -0.0438
 4128TIP3   OH233874   4.519   2.076   1.397 -0.0522  0.3620  0.1909
 4128TIP3    H133875   4.540   2.168   1.383  0.0827 -0.0945 -3.0307
 4128TIP3    H233876   4.603   2.034   1.416  0.4513  0.3133 -2.0361
 4129TIP3   OH233877   0.336   4.777   4.448 -0.5303  0.6030 -0.0585
 4129TIP3    H133878   0.284   4.851   4.481  0.3790  1.1425  0.1795
 4129TIP3    H233879   0.426   4.799   4.471 -0.2370 -0.5256 -0.1076
 4130TIP3   OH233880   3.192   1.669   4.221 -0.0454 -0.0736  0.0429
 4130TIP3    H133881   3.140   1.595   4.254  0.0756 -0.7998 -1.3385
 4130TIP3    H233882   3.164   1.679   4.130 -1.5039  2.8932  0.7861
 4131TIP3   OH233883   2.248   3.804   0.646  0.2460  0.2016 -0.0130
 4131TIP3    H133884   2.278   3.894   0.634  0.5733 -0.0431 -1.0953
 4131TIP3    H233885   2.328   3.753   0.660  0.2517 -0.2402 -1.5507
 4132TIP3   OH233886   5.090   2.846  12.370 -0.6061  0.2707  0.2963
 4132TIP3    H133887   5.161   2.874  12.313  0.3925 -2.9947 -0.1438
 4132TIP3    H233888   5.127   2.848  12.458 -0.5088  0.1359  0.2570
 4133TIP3   OH233889   1.437   4.639  14.136  0.4905 -0.6813 -0.1928
 4133TIP3    H133890   1.494   4.563  14.150  0.0643 -1.2082 -1.2248
 4133TIP3    H233891   1.397   4.655  14.221  0.2035 -1.9449 -0.0754
 4134TIP3   OH233892   0.723   5.018  11.693 -0.1043 -0.5558 -0.0390
 4134TIP3    H133893   0.704   4.956  11.763 -1.9121  0.6218  0.5519
 4134TIP3    H233894   0.733   5.102  11.738  2.0907 -0.3496 -0.8444
 4135TIP3   OH233895   4.058   2.079   4.163 -0.5968  0.1471  0.0305
 4135TIP3    H133896   4.067   2.037   4.077  1.1773  0.3108  0.1000
 4135TIP3    H233897   4.065   2.172   4.145  1.1045  0.1303  0.4598
 4136TIP3   OH233898   4.775   0.081   4.980  0.1899 -0.2456 -0.4634
 4136TIP3    H133899   4.693   0.051   4.941 -0.4170  0.2028  0.4484
 4136TIP3    H233900   4.770   0.176   4.979 -0.2050 -0.2318  1.4471
 4137TIP3   OH233901   4.441   2.092   1.748  0.1775 -0.2487  0.5589
 4137TIP3    H133902   4.435   2.001   1.779 -0.7479 -0.9572 -1.6283
 4137TIP3    H233903   4.465   2.085   1.656 -2.4312  1.6055 -0.3278
 4138TIP3   OH233904   6.528   6.660  15.300  0.2764 -0.2484  0.0397
 4138TIP3    H133905   6.605   6.612  15.333  0.4782  0.1461  0.1404
 4138TIP3    H233906   6.565   6.733  15.250 -0.0334 -0.4036 -0.4155
 4139TIP3   OH233907   5.319   1.240   5.541 -0.3376 -0.0326  0.3000
 4139TIP3    H133908   5.346   1.279   5.624  1.0024  1.1924 -0.6750
 4139TIP3    H233909   5.397   1.194   5.510 -0.9717 -0.8746 -0.0587
 4140TIP3   OH233910   0.549   6.095   3.384 -0.4734 -0.1782  0.1843
 4140TIP3    H133911   0.632   6.119   3.344  0.3319 -0.8044  1.4284
 4140TIP3    H233912   0.535   6.161   3.452  0.4069 -1.6265  1.8204
 4141TIP3   OH233913   1.867   6.185  15.710 -0.4627  0.0349 -0.0210
 4141TIP3    H133914   1.848   6.275  15.734  0.3129  0.0804  0.4301
 4141TIP3    H233915   1.959   6.185  15.685 -0.5675 -0.5483 -0.4382
 4142TIP3   OH233916   5.565   5.791   4.713  0.4189  0.2195  0.0422
 4142TIP3    H133917   5.471   5.775   4.710  0.6389 -1.0464 -1.5953
 4142TIP3    H233918   5.601   5.733   4.645  2.4640  0.0556  1.2002
 4143TIP3   OH233919   4.645   0.372   1.982  0.1385 -0.1597  0.1591
 4143TIP3    H133920   4.622   0.326   2.062 -0.1697  1.0469  0.7705
 4143TIP3    H233921   4.607   0.459   1.992 -1.8650 -0.6983 -2.2676
 4144TIP3   OH233922   5.769   3.737   5.638 -0.1018 -0.2211  0.6782
 4144TIP3    H133923   5.834   3.698   5.579 -1.1834 -0.9935 -0.0247
 4144TIP3    H233924   5.719   3.662   5.671 -1.3818  0.4387  0.2924
 4145TIP3   OH233925   6.283   1.859  16.038 -0.6315  0.7390  0.3133
 4145TIP3    H133926   6.362   1.898  16.074  0.2388  0.0105 -0.7445
 4145TIP3    H233927   6.306   1.839  15.947 -1.0019 -2.2579  0.8157
 4146TIP3   OH233928   2.152   4.038   3.386 -0.4928  0.3025 -0.2003
 4146TIP3    H133929   2.102   4.115   3.359 -0.3555  0.4696  0.0182
 4146TIP3    H233930   2.227   4.074   3.434 -2.2791 -0.0908  2.9792
 4147TIP3   OH233931   0.211   0.153  15.583 -0.7723 -0.1127 -0.1911
 4147TIP3    H133932   0.211   0.066  15.542 -2.6721 -0.2942  0.1094
 4147TIP3    H233933   0.127   0.156  15.630  0.8936  0.4367  2.8976
 4148TIP3   OH233934   0.289   1.537   5.004 -0.1016  0.2319 -0.0431
 4148TIP3    H133935   0.252   1.461   4.959  1.4479 -1.3352  1.3195
 4148TIP3    H233936   0.294   1.604   4.935 -2.1881 -0.6193 -1.0747
 4149TIP3   OH233937   5.987   5.909   3.130 -1.6539  0.3787 -0.6603
 4149TIP3    H133938   6.058   5.858   3.090  0.4155  1.1963  1.8093
 4149TIP3    H233939   5.986   5.991   3.081  0.4313  1.1167  0.4362
 4150TIP3   OH233940   0.593   1.637  11.093 -0.6034  0.5844 -0.8147
 4150TIP3    H133941   0.639   1.557  11.119  0.6698  1.0888 -1.4931
 4150TIP3    H233942   0.528   1.607  11.029 -1.7098 -0.2252  0.6582
 4151TIP3   OH233943   4.559   2.584   5.400  0.3659 -0.2428  0.2141
 4151TIP3    H133944   4.485   2.624   5.354  1.9690  1.9168 -0.5883
 4151TIP3    H233945   4.592   2.653   5.457  2.5529 -0.7459 -0.4057
 4152TIP3   OH233946   6.561   3.629  13.142  0.5206  0.4746 -0.4247
 4152TIP3    H133947   6.628   3.640  13.209  0.8172 -0.7868 -0.4863
 4152TIP3    H233948   6.575   3.540  13.109 -1.1800  0.1785 -0.4388
 4153TIP3   OH233949   0.794   2.622   2.978  0.0237 -0.4283  0.9185
 4153TIP3    H133950   0.840   2.688   3.029 -1.7612  0.6298  1.2240
 4153TIP3    H233951   0.771   2.554   3.042 -0.1623 -0.2263  1.0674
 4154TIP3   OH233952   6.611   5.951   6.160  0.2732  0.2895  0.1298
 4154TIP3    H133953   6.644   6.040   6.146  0.9630  0.0859  0.4470
 4154TIP3    H233954   6.657   5.920   6.238 -1.4436  0.3741  1.1883
 4155TIP3   OH233955   0.491   5.629  16.129  0.5721 -0.5912  0.1796
 4155TIP3    H133956   0.448   5.648  16.046  0.2333  0.8229  0.6623
 4155TIP3    H233957   0.420   5.621  16.192  0.8618 -0.8953  0.4704
 4156TIP3   OH233958   0.497   0.357  17.246 -0.3800 -0.2902  0.0284
 4156TIP3    H133959   0.434   0.422  17.279  0.5330 -0.1555  1.5284
 4156TIP3    H233960   0.476   0.349  17.152 -1.0203  1.5825 -0.0151
 4157TIP3   OH233961   4.056   2.090   3.269 -0.3373  0.3510 -0.2729
 4157TIP3    H133962   4.043   2.150   3.196 -0.5201 -1.1300 -1.5009
 4157TIP3    H233963   3.977   2.036   3.270  0.3578 -0.6972 -0.0332
 4158TIP3   OH233964   6.409   2.597   1.712  0.0287 -0.2767 -0.4823
 4158TIP3    H133965   6.446   2.550   1.638  1.0552  2.0832 -1.5147
 4158TIP3    H233966   6.361   2.669   1.673  1.1598  1.4087  1.1525
 4159TIP3   OH233967   5.358   3.437   1.627 -0.4115 -0.4678 -0.4935
 4159TIP3    H133968   5.275   3.476   1.656  1.1019  0.4635  2.7753
 4159TIP3    H233969   5.331   3.362   1.574 -3.3542 -0.5491  0.9857
 4160TIP3   OH233970   4.365   2.556  13.638 -0.2427 -0.0206 -0.0879
 4160TIP3    H133971   4.383   2.512  13.722  1.1557 -2.9101 -1.8086
 4160TIP3    H233972   4.452   2.577  13.603 -0.7652  0.1205 -1.3240
 4161TIP3   OH233973   1.218   0.561  16.831  0.6317  0.1788  0.7044
 4161TIP3    H133974   1.251   0.650  16.844  0.9530  0.0841  0.5279
 4161TIP3    H233975   1.175   0.564  16.746  1.5594 -0.1040  0.2175
 4162TIP3   OH233976   0.720   3.508   4.144 -0.6202 -0.6708 -0.2738
 4162TIP3    H133977   0.752   3.523   4.055  1.8744  2.2292  1.0369
 4162TIP3    H233978   0.798   3.486   4.194 -1.6489  0.0784  1.7052
 4163TIP3   OH233979   5.174   3.666  11.925 -0.3874 -0.3794  0.2125
 4163TIP3    H133980   5.242   3.642  11.987 -0.4610 -0.5571  0.2262
 4163TIP3    H233981   5.168   3.761  11.930  3.0080  0.1079 -3.0916
 4164TIP3   OH233982   0.682   0.199   1.667 -0.0308  0.0257 -0.3533
 4164TIP3    H133983   0.736   0.250   1.727  0.6532 -0.6204 -0.4233
 4164TIP3    H233984   0.713   0.224   1.579  0.8918 -1.1450 -0.3711
 4165TIP3   OH233985   6.521   6.554   2.000 -0.3289 -0.4702  0.4523
 4165TIP3    H133986   6.498   6.596   2.083 -0.0625 -0.6188  0.6006
 4165TIP3    H233987   6.523   6.625   1.936 -3.5590 -0.7512 -0.0532
 4166TIP3   OH233988   5.627   4.032   2.478 -0.2557 -0.1907  0.6901
 4166TIP3    H133989   5.711   4.076   2.464 -0.1920 -0.5983 -0.2838
 4166TIP3    H233990   5.631   3.955   2.421 -0.2933 -1.5620  2.4754
 4167TIP3   OH233991   4.788   6.000   5.558  0.7430  0.9098  0.1789
 4167TIP3    H133992   4.766   6.093   5.552 -1.4429  0.4292  0.2697
 4167TIP3    H233993   4.717   5.962   5.611  0.2010 -1.2186 -1.9689
 4168TIP3   OH233994   0.226   0.637   4.670  0.1064 -0.1416 -0.6642
 4168TIP3    H133995   0.276   0.579   4.727  0.2014  1.0011  0.4616
 4168TIP3    H233996   0.135   0.618   4.691  0.1491  1.1018  0.7800
 4169TIP3   OH233997   6.598   0.929   0.822  0.6464  0.3036 -0.4914
 4169TIP3    H133998   6.639   0.844   0.802  1.2977  0.7395 -1.0203
 4169TIP3    H233999   6.514   0.926   0.778  0.8690  0.1187 -0.9094
 4170TIP3   OH234000   4.779   5.378   3.070 -0.2136  0.4729 -0.6337
 4170TIP3    H134001   4.789   5.388   2.976 -0.5635  0.0197 -0.7234
 4170TIP3    H234002   4.814   5.291   3.089 -2.1594 -0.3527 -0.6857
 4171TIP3   OH234003   2.353   6.514  11.688  0.2248  0.2865 -0.4250
 4171TIP3    H134004   2.388   6.586  11.635  0.1868 -0.5415 -1.5843
 4171TIP3    H234005   2.407   6.513  11.766  2.8624 -0.9920 -2.2000
 4172TIP3   OH234006   3.276   6.464   5.899  0.4487  1.0501 -0.0206
 4172TIP3    H134007   3.236   6.384   5.931 -2.0141  2.5064  0.6949
 4172TIP3    H234008   3.290   6.449   5.805 -1.3687  0.3447 -0.1800
 4173TIP3   OH234009   5.073   6.420  11.891 -0.3076  0.2663 -0.4349
 4173TIP3    H134010   5.051   6.374  11.811  4.5475 -1.1783 -1.0700
 4173TIP3    H234011   5.133   6.489  11.864  2.0001 -0.6937  1.9698
 4174TIP3   OH234012   3.554   6.585   4.114 -0.8256 -0.3057  0.7267
 4174TIP3    H134013   3.611   6.513   4.141 -1.0440 -0.2630  1.3021
 4174TIP3    H234014   3.610   6.663   4.120  0.1941 -0.7346 -2.4060
 4175TIP3   OH234015   4.885   3.648   0.490 -0.0419 -0.3967  0.0183
 4175TIP3    H134016   4.909   3.644   0.582  1.6268 -1.1236 -0.4265
 4175TIP3    H234017   4.837   3.567   0.474  0.7430 -0.8655 -0.0225
 4176TIP3   OH234018   4.865   6.715  13.736 -0.0577 -0.3567 -0.0730
 4176TIP3    H134019   4.787   6.740  13.786  0.1920 -1.9556  1.1440
 4176TIP3    H234020   4.833   6.705  13.646 -0.9427  0.5088  0.1409
 4177TIP3   OH234021   1.427   3.796   0.105 -0.3007  0.2565 -0.4206
 4177TIP3    H134022   1.424   3.892   0.110  0.1180  0.3185 -1.2002
 4177TIP3    H234023   1.411   3.777   0.012 -0.4002 -0.4265 -0.2639
 4178TIP3   OH234024   3.026   6.412   0.094  0.2333  0.2549  0.2146
 4178TIP3    H134025   3.070   6.406   0.009 -1.3936 -1.5602 -0.5560
 4178TIP3    H234026   3.051   6.497   0.129  0.9978  0.9968 -2.0731
 4179TIP3   OH234027   1.366   5.602  14.435 -0.2197 -0.4243  0.7885
 4179TIP3    H134028   1.327   5.579  14.519 -0.9749 -0.9868  0.2987
 4179TIP3    H234029   1.293   5.636  14.383  0.2126 -0.2026  0.3177
 4180TIP3   OH234030   3.692   2.692   0.765 -0.0184  0.3942 -0.0127
 4180TIP3    H134031   3.618   2.712   0.822 -0.6677  0.2013 -0.7790
 4180TIP3    H234032   3.682   2.599   0.745  0.5772  0.3087  0.0801
 4181TIP3   OH234033   0.932   0.045  11.071  0.4889 -0.0704  0.0204
 4181TIP3    H134034   0.839   0.023  11.071  0.6190 -0.6894  1.3460
 4181TIP3    H234035   0.941   0.109  11.143  0.7455  1.5288 -1.3974
 4182TIP3   OH234036   3.147   0.788   4.775 -0.0958  0.3740 -0.5596
 4182TIP3    H134037   3.183   0.853   4.836 -1.3875 -1.2350  1.9747
 4182TIP3    H234038   3.053   0.807   4.772 -0.6322 -1.8687  0.8957
 4183TIP3   OH234039   0.594   0.415  12.973  0.0703 -0.3392  0.7914
 4183TIP3    H134040   0.593   0.507  12.999  0.8695 -0.5396  1.5256
 4183TIP3    H234041   0.603   0.417  12.878 -2.0160  0.3739  0.5715
 4184TIP3   OH234042   0.953   6.118   0.864  0.3082 -0.1347  0.2247
 4184TIP3    H134043   0.957   6.155   0.776 -0.6499 -1.1451 -0.2632
 4184TIP3    H234044   0.929   6.192   0.920 -2.5141 -0.1326 -0.8752
 4185TIP3   OH234045   4.095   3.805  13.679  0.3175  0.4057 -0.0662
 4185TIP3    H134046   4.037   3.858  13.733  1.6755 -0.4073  2.2705
 4185TIP3    H234047   4.067   3.822  13.589 -0.5519  3.5444  0.7426
 4186TIP3   OH234048   3.186   3.580  14.399  0.0584 -1.0509  0.4966
 4186TIP3    H134049   3.217   3.496  14.365  1.8442 -0.6208  0.9758
 4186TIP3    H234050   3.262   3.617  14.444 -0.4043  1.2538 -0.5355
 4187TIP3   OH234051   2.521   0.993  13.579  0.3472  0.2080 -0.1716
 4187TIP3    H134052   2.471   1.064  13.620 -0.1585 -0.4870  0.4231
 4187TIP3    H234053   2.483   0.913  13.615  1.0395 -0.3638 -0.7003
 4188TIP3   OH234054   1.161   6.689  13.414  0.1158 -0.0325 -0.1357
 4188TIP3    H134055   1.194   6.770  13.454 -0.4027  0.0555  0.1180
 4188TIP3    H234056   1.240   6.644  13.383  0.4655  0.2231  0.3731
 4189TIP3   OH234057   0.718   6.126  11.456 -0.0357 -0.0185  0.0621
 4189TIP3    H134058   0.731   6.046  11.405  0.9346  0.3062 -0.2177
 4189TIP3    H234059   0.642   6.107  11.511 -0.1373 -0.9429 -0.3773
 4190TIP3   OH234060   0.534   1.754  17.134 -0.4552 -0.0598  0.4681
 4190TIP3    H134061   0.522   1.725  17.044 -1.7043 -0.4011  0.7391
 4190TIP3    H234062   0.594   1.690  17.172 -1.7172 -1.2226  0.5195
 4191TIP3   OH234063   2.561   6.427  14.657  0.3449 -0.0583  0.6099
 4191TIP3    H134064   2.574   6.384  14.741  2.8972 -1.7627 -0.5681
 4191TIP3    H234065   2.512   6.364  14.604  2.5584 -0.8754 -0.5495
 4192TIP3   OH234066   2.198   0.133  12.778  0.0338  0.0269 -0.0530
 4192TIP3    H134067   2.116   0.181  12.784 -1.5919 -2.3975 -1.7206
 4192TIP3    H234068   2.265   0.199  12.761 -1.5231  2.0571  1.5501
 4193TIP3   OH234069   1.903   6.551   3.289 -0.3334 -0.4124 -0.2398
 4193TIP3    H134070   1.852   6.549   3.370  1.2306 -1.2628  0.7625
 4193TIP3    H234071   1.848   6.598   3.227 -1.9470 -0.5341  1.0565
 4194TIP3   OH234072   4.051   6.660   1.285 -0.0238  0.1918  0.3148
 4194TIP3    H134073   3.981   6.612   1.239  1.8300 -1.0700 -1.2521
 4194TIP3    H234074   4.093   6.593   1.340 -1.4904  1.4437  3.0932
 4195TIP3   OH234075   2.747   6.569   3.213  0.4404 -0.0140  0.0958
 4195TIP3    H134076   2.757   6.509   3.287  0.3135 -0.8397 -0.5504
 4195TIP3    H234077   2.812   6.637   3.228  1.3864 -0.9440  0.2272
 4196TIP3   OH234078   5.270   6.423   2.518 -0.7584  0.1058 -0.4770
 4196TIP3    H134079   5.357   6.397   2.549 -1.6188  0.3444  2.2777
 4196TIP3    H234080   5.231   6.341   2.486  0.1772 -0.1365 -1.0359
 4197TIP3   OH234081   5.339   5.775   4.173  0.1662  0.3259  0.0710
 4197TIP3    H134082   5.332   5.690   4.217 -1.4504  2.7257  4.7870
 4197TIP3    H234083   5.250   5.793   4.143  0.4752  0.4707 -0.7718
 4198TIP3   OH234084   2.847   1.387   1.721  0.2716  0.0768  0.1887
 4198TIP3    H134085   2.812   1.399   1.810 -0.0404  1.1297 -0.0639
 4198TIP3    H234086   2.933   1.430   1.724  0.5347 -0.4476  0.1566
 4199TIP3   OH234087   6.810   4.094  11.810 -0.1742  0.3850 -0.1624
 4199TIP3    H134088   6.806   4.045  11.892  1.3601  0.7019  0.1285
 4199TIP3    H234089   6.824   4.185  11.837  1.3235  0.3543 -0.7646
 4200TIP3   OH234090   4.611   2.119  15.312  0.2832 -0.0287  0.0608
 4200TIP3    H134091   4.558   2.094  15.236  0.3637  3.6457 -1.3124
 4200TIP3    H234092   4.549   2.124  15.384 -0.2692 -1.0225 -0.3400
 4201TIP3   OH234093   2.396   4.911  16.688  0.2479  0.0051 -0.3754
 4201TIP3    H134094   2.354   4.995  16.673 -0.3086 -0.1588  0.2548
 4201TIP3    H234095   2.479   4.934  16.731 -0.8789  0.1274  1.8211
 4202TIP3   OH234096   5.808   3.566  15.864 -0.2211  0.1117 -0.6153
 4202TIP3    H134097   5.802   3.661  15.859  1.8987  0.3642  1.0183
 4202TIP3    H234098   5.884   3.543  15.811  1.0320 -0.3719  1.3447
 4203TIP3   OH234099   4.623   3.217   0.577  0.7171  0.0124  0.2551
 4203TIP3    H134100   4.605   3.168   0.657  1.1636  0.2017  0.4688
 4203TIP3    H234101   4.571   3.172   0.510  1.0411 -0.6917  0.4700
 4204TIP3   OH234102   5.152   4.561   2.751 -0.4763  0.1667 -0.1750
 4204TIP3    H134103   5.217   4.617   2.792 -0.3774  0.5164 -0.8099
 4204TIP3    H234104   5.068   4.603   2.771 -0.2958  1.5153 -2.1313
 4205TIP3   OH234105   1.226   4.815   0.439 -0.1171 -0.5068 -0.0531
 4205TIP3    H134106   1.262   4.727   0.452  0.9375 -0.3410 -1.7150
 4205TIP3    H234107   1.167   4.806   0.364 -0.7544  0.0116  0.3778
 4206TIP3   OH234108   3.804   0.560   6.829  0.3063  0.1088  0.2248
 4206TIP3    H134109   3.731   0.538   6.771  2.1415 -0.1952 -2.0613
 4206TIP3    H234110   3.764   0.567   6.916 -2.6885  1.4661 -1.1681
 4207TIP3   OH234111   4.495   4.962   1.253  0.9888  0.1262 -0.1892
 4207TIP3    H134112   4.468   5.026   1.187  1.1111 -1.1133 -1.4702
 4207TIP3    H234113   4.525   4.886   1.202  2.7063 -0.2101  1.2618
 4208TIP3   OH234114   3.883   4.316   2.784  0.3317  0.2494  0.3042
 4208TIP3    H134115   3.907   4.224   2.775 -0.3750  0.0416  0.5084
 4208TIP3    H234116   3.897   4.352   2.696 -0.8991 -0.4231 -0.1869
 4209TIP3   OH234117   6.622   5.671   1.545 -1.1083  0.2855  0.4824
 4209TIP3    H134118   6.571   5.591   1.555 -0.2317 -0.1753  1.3647
 4209TIP3    H234119   6.632   5.705   1.634 -1.0855  1.1300  0.1625
 4210TIP3   OH234120   2.033   4.914  10.904  0.1634 -0.4130  0.3820
 4210TIP3    H134121   2.012   4.844  10.966  1.9765 -1.4148 -0.0922
 4210TIP3    H234122   2.126   4.929  10.916  0.7113 -1.1202 -2.5766
 4211TIP3   OH234123   3.661   5.042   6.085  0.3257 -0.1095 -0.4789
 4211TIP3    H134124   3.742   5.085   6.056  0.6388 -0.1119  0.3782
 4211TIP3    H234125   3.675   5.026   6.178 -0.1293 -1.3186 -0.6102
 4212TIP3   OH234126   3.165   4.026   4.788  0.0617 -0.7303  0.0446
 4212TIP3    H134127   3.132   3.976   4.863  1.6678 -0.8892  0.6846
 4212TIP3    H234128   3.216   3.962   4.738  0.8727 -0.1037  0.0530
 4213TIP3   OH234129   2.383   5.329   0.559  0.0957  0.1053  0.0482
 4213TIP3    H134130   2.459   5.382   0.585  0.3222 -0.7336  1.1506
 4213TIP3    H234131   2.309   5.370   0.603  0.4610 -1.2410  1.9657
 4214TIP3   OH234132   1.522   3.189  13.936 -0.1426  0.9241  0.2325
 4214TIP3    H134133   1.498   3.279  13.914 -0.4258  0.2978 -2.1133
 4214TIP3    H234134   1.542   3.148  13.852 -1.1249 -1.5247  1.1523
 4215TIP3   OH234135   5.063   5.725  13.364 -0.3793  0.9665 -0.0946
 4215TIP3    H134136   5.010   5.659  13.320  0.0622  0.7155 -0.2636
 4215TIP3    H234137   5.111   5.768  13.293  0.4080  0.4976  0.1428
 4216TIP3   OH234138   5.197   0.594  12.015  0.3455  0.2172 -0.6630
 4216TIP3    H134139   5.251   0.661  12.056 -0.3665  0.9672 -0.9563
 4216TIP3    H234140   5.250   0.514  12.021  1.6351  1.0134 -1.2663
 4217TIP3   OH234141   5.026   5.806  12.302  0.3828  0.1055  0.0036
 4217TIP3    H134142   5.042   5.809  12.396  0.4246 -1.9732  0.0866
 4217TIP3    H234143   4.931   5.801  12.294  0.4223 -0.6648 -0.0226
 4218TIP3   OH234144   6.314   4.903  12.232 -0.4375  0.3104 -0.2017
 4218TIP3    H134145   6.260   4.980  12.246  0.4436  1.0721 -0.9320
 4218TIP3    H234146   6.252   4.831  12.222 -1.2965  1.1177 -0.6996
 4219TIP3   OH234147   1.646   1.860   2.248 -0.2732 -0.1917  0.2891
 4219TIP3    H134148   1.681   1.824   2.329  1.2301  0.0203 -0.2622
 4219TIP3    H234149   1.681   1.949   2.243 -1.5248  0.3123  0.1238
 4220TIP3   OH234150   2.540   0.632  13.977 -0.2263 -0.1065 -0.2704
 4220TIP3    H134151   2.573   0.721  13.959  0.4186 -0.3671 -0.4053
 4220TIP3    H234152   2.619   0.582  13.997 -0.5151 -0.8356 -0.9679
 4221TIP3   OH234153   5.447   6.432  11.137  0.0657  0.3354  0.3811
 4221TIP3    H134154   5.396   6.420  11.056 -0.7695 -1.5466  1.1602
 4221TIP3    H234155   5.538   6.417  11.110 -0.1253  0.4229 -0.3412
 4222TIP3   OH234156   2.204   4.866   2.730 -0.0491 -0.5336 -0.4597
 4222TIP3    H134157   2.147   4.794   2.701  1.3597 -1.9719  0.2453
 4222TIP3    H234158   2.195   4.867   2.825  1.6657 -1.2912 -0.2694
 4223TIP3   OH234159   4.279   2.233   1.502 -0.3662 -0.7541 -0.0402
 4223TIP3    H134160   4.324   2.157   1.464  1.7020  1.7374 -2.9157
 4223TIP3    H234161   4.193   2.233   1.461 -1.4202 -3.0662  2.0969
 4224TIP3   OH234162   2.143   1.929  13.427 -0.3045  0.0969  0.0514
 4224TIP3    H134163   2.225   1.881  13.433  0.1104  0.7969  0.0578
 4224TIP3    H234164   2.112   1.933  13.518 -0.7915 -0.9302 -0.0703
 4225TIP3   OH234165   3.571   5.319   3.114  0.6564  0.3832 -0.0174
 4225TIP3    H134166   3.478   5.310   3.135  1.0695 -1.5596  1.1650
 4225TIP3    H234167   3.612   5.246   3.160  2.4286 -0.3682 -2.7105
 4226TIP3   OH234168   3.826   3.694   0.490  0.3801  0.0682  0.1136
 4226TIP3    H134169   3.758   3.648   0.439 -0.8450 -0.2885  1.9943
 4226TIP3    H234170   3.795   3.784   0.495 -0.9570 -0.4721  2.5163
 4227TIP3   OH234171   4.298   3.442   0.458  0.3925  0.1535 -0.5102
 4227TIP3    H134172   4.220   3.493   0.479 -0.9170 -1.7574 -0.5979
 4227TIP3    H234173   4.342   3.429   0.543 -1.6408 -2.3192  0.2452
 4228TIP3   OH234174   2.098   4.485   2.287  0.1726 -0.4003 -0.2911
 4228TIP3    H134175   2.065   4.428   2.217 -2.4459  0.4221  0.2251
 4228TIP3    H234176   2.020   4.515   2.332  1.7618  0.3130  2.0582
 4229TIP3   OH234177   0.513   0.563   0.504 -0.2724  0.0757  0.0465
 4229TIP3    H134178   0.445   0.628   0.486 -0.5036  0.0569  0.8450
 4229TIP3    H234179   0.552   0.545   0.418  0.5995  2.1360  0.0068
 4230TIP3   OH234180   1.411   0.795  11.806 -0.1917  0.5887 -0.1383
 4230TIP3    H134181   1.461   0.727  11.760  0.4707  1.4925 -0.7890
 4230TIP3    H234182   1.453   0.877  11.780 -2.3510  1.4211 -1.1045
 4231TIP3   OH234183   3.525   2.831  12.863  0.0683  0.2249  0.4479
 4231TIP3    H134184   3.598   2.771  12.877 -0.8027 -0.6247  1.4983
 4231TIP3    H234185   3.462   2.779  12.812  0.4924  1.1897 -1.0950
 4232TIP3   OH234186   1.913   1.637  12.299 -0.0842 -0.2686  0.5215
 4232TIP3    H134187   1.889   1.606  12.386 -0.4440 -0.2815  0.4178
 4232TIP3    H234188   1.830   1.646  12.253  0.0948 -0.1155  0.2284
 4233TIP3   OH234189   6.799   2.446  13.692  0.3522 -0.0008  0.0663
 4233TIP3    H134190   6.720   2.488  13.657  0.7347 -0.8224 -1.8672
 4233TIP3    H234191   6.849   2.517  13.732 -0.3605  0.8862 -0.6030
 4234TIP3   OH234192   0.775   4.663   2.951  0.4754  0.3972 -0.3147
 4234TIP3    H134193   0.747   4.755   2.957  3.0687  1.1905 -0.0829
 4234TIP3    H234194   0.731   4.621   3.024 -1.8050  1.1282 -1.1840
 4235TIP3   OH234195   5.156   5.372   4.145 -0.5142  0.2303  0.9712
 4235TIP3    H134196   5.061   5.385   4.146 -0.4192  0.9945  0.4868
 4235TIP3    H234197   5.168   5.279   4.165 -1.3819  0.0220  0.5480
 4236TIP3   OH234198   2.355   0.764  12.066  0.2556 -0.0732 -0.0174
 4236TIP3    H134199   2.446   0.737  12.081  0.9983  2.3926  0.1049
 4236TIP3    H234200   2.360   0.858  12.050 -2.1247 -0.1692 -1.5731
 4237TIP3   OH234201   0.256   5.994  12.635 -0.1556 -0.0718  0.4631
 4237TIP3    H134202   0.215   6.081  12.627 -0.7837 -0.3001  1.1799
 4237TIP3    H234203   0.223   5.945  12.560 -0.4251  0.0560  0.5011
 4238TIP3   OH234204   6.335   5.220  11.770  0.3110  0.2653  0.4985
 4238TIP3    H134205   6.381   5.222  11.854 -0.2835  1.9329  0.8214
 4238TIP3    H234206   6.262   5.281  11.782  1.5667  2.3560 -1.9713
 4239TIP3   OH234207   5.132   3.120   3.632 -0.7390 -0.2756 -0.2110
 4239TIP3    H134208   5.153   3.028   3.646 -2.3587 -0.7198 -0.5685
 4239TIP3    H234209   5.173   3.166   3.705 -0.2205 -1.3239  0.1666
 4240TIP3   OH234210   1.509   0.581  11.650 -0.0676 -0.4753  0.2465
 4240TIP3    H134211   1.572   0.509  11.646 -0.3214 -0.6510 -0.8569
 4240TIP3    H234212   1.479   0.591  11.559 -0.2147  0.8629  0.4357
 4241TIP3   OH234213   0.669   0.700  14.054  0.0094  0.1825  0.0123
 4241TIP3    H134214   0.606   0.758  14.096 -0.4758  1.9746 -3.0333
 4241TIP3    H234215   0.626   0.672  13.973  2.7757  0.9129 -1.8105
 4242TIP3   OH234216   0.941   2.200  12.188  1.0098 -0.1187  0.5178
 4242TIP3    H134217   0.992   2.134  12.141  0.9649  0.0271  0.2637
 4242TIP3    H234218   0.986   2.282  12.169 -0.7672  0.3642 -1.7788
 4243TIP3   OH234219   1.947   4.236  15.597 -0.6323 -0.2438 -0.2336
 4243TIP3    H134220   1.990   4.302  15.542  0.0668  0.3508  1.0010
 4243TIP3    H234221   1.854   4.253  15.585 -0.5024 -0.4510 -1.6282
 4244TIP3   OH234222   6.104   6.071  13.570 -0.1592  0.0891  0.2691
 4244TIP3    H134223   6.014   6.052  13.543 -0.0634  0.9874 -0.6795
 4244TIP3    H234224   6.113   6.166  13.561  0.7382  0.0608  0.8092
 4245TIP3   OH234225   0.201   1.650   4.117 -0.4124  0.2685 -0.0356
 4245TIP3    H134226   0.139   1.663   4.045 -0.7171  2.7028  0.6509
 4245TIP3    H234227   0.148   1.653   4.196  0.5475  2.4339  0.5658
 4246TIP3   OH234228   0.709   3.214  11.901  0.3129 -0.1725 -0.4062
 4246TIP3    H134229   0.755   3.183  11.979  2.2321 -0.1091 -1.4726
 4246TIP3    H234230   0.779   3.241  11.841 -1.1741  1.4853 -1.4571
 4247TIP3   OH234231   4.207   3.163   0.289  0.4216 -0.1906 -0.4014
 4247TIP3    H134232   4.170   3.115   0.215 -0.6893 -0.3945  0.2842
 4247TIP3    H234233   4.192   3.255   0.268 -0.5516 -0.2766 -0.0850
 4248TIP3   OH234234   1.300   6.792   2.130  0.3967 -0.5016 -0.4754
 4248TIP3    H134235   1.281   6.795   2.036 -0.5812  0.3177 -0.2544
 4248TIP3    H234236   1.215   6.781   2.171  0.7396 -0.0185  0.3658
 4249TIP3   OH234237   0.067   0.964   0.925  0.1472  0.2526  0.4339
 4249TIP3    H134238   0.056   0.980   0.831  0.6002  0.3326  0.3949
 4249TIP3    H234239  -0.023   0.964   0.959  0.0012  0.6324  0.0662
 4250TIP3   OH234240   3.874   5.699   5.774  0.1878  1.1272  0.2909
 4250TIP3    H134241   3.897   5.773   5.718  1.9034 -0.2712 -0.8659
 4250TIP3    H234242   3.957   5.662   5.801 -0.6490 -1.3921 -0.4770
 4251TIP3   OH234243   1.699   1.393  13.102 -0.9881 -0.3929  0.1040
 4251TIP3    H134244   1.731   1.456  13.038 -0.0722  0.4141  1.3395
 4251TIP3    H234245   1.609   1.375  13.075 -0.8185  0.4172 -1.0363
 4252TIP3   OH234246   2.940   3.319   5.707  0.3279 -0.0828 -0.1653
 4252TIP3    H134247   2.972   3.280   5.626 -0.5348  1.7144 -1.4160
 4252TIP3    H234248   3.015   3.317   5.766  1.4593  0.1316 -1.5766
 4253TIP3   OH234249   1.739   1.305  15.914 -0.1043  0.3195  0.0164
 4253TIP3    H134250   1.673   1.262  15.970  1.6980 -2.1104  0.3673
 4253TIP3    H234251   1.700   1.303  15.827 -0.0617 -2.1928  0.0006
 4254TIP3   OH234252   1.595   3.391  13.420 -0.4681  0.3622  0.3088
 4254TIP3    H134253   1.507   3.406  13.387 -0.4589  1.6306  0.8351
 4254TIP3    H234254   1.583   3.342  13.501 -0.6327 -0.3362 -0.1372
 4255TIP3   OH234255   5.259   2.288   5.897  0.2197 -0.1446  0.1651
 4255TIP3    H134256   5.224   2.201   5.920 -0.4967  0.0599 -0.1425
 4255TIP3    H234257   5.226   2.304   5.808 -0.7862  1.0320  0.7389
 4256TIP3   OH234258   1.394   5.717   1.566  0.5630  0.0174 -0.0236
 4256TIP3    H134259   1.340   5.781   1.612 -0.3745 -1.2081  0.6331
 4256TIP3    H234260   1.420   5.654   1.634  2.1337  0.1324 -0.4897
 4257TIP3   OH234261   5.445   1.590  12.587 -0.1066  0.6903  0.0589
 4257TIP3    H134262   5.504   1.526  12.549 -0.1953 -0.2010  1.3679
 4257TIP3    H234263   5.482   1.675  12.563  1.0459  0.1427 -0.1348
 4258TIP3   OH234264   5.570   5.406  13.898  0.8074  0.1175 -0.1609
 4258TIP3    H134265   5.535   5.489  13.929 -0.2044 -0.6583  0.8148
 4258TIP3    H234266   5.651   5.394  13.947  1.1729  0.7349 -0.6174
 4259TIP3   OH234267   1.936   0.177  12.480 -0.1032 -0.1330 -0.3225
 4259TIP3    H134268   1.849   0.192  12.444  0.9251 -0.6456 -3.2163
 4259TIP3    H234269   1.956   0.257  12.530 -1.8461  0.3621 -0.3872
 4260TIP3   OH234270   6.483   5.317   0.482 -0.0712  0.4368 -0.3569
 4260TIP3    H134271   6.438   5.307   0.566  0.3857 -1.7490 -0.3464
 4260TIP3    H234272   6.439   5.255   0.424  0.5619  0.8988 -1.3381
 4261TIP3   OH234273   5.442   6.647   0.240  0.3440  0.1051  0.5931
 4261TIP3    H134274   5.509   6.715   0.234  0.6379 -0.2657 -0.3755
 4261TIP3    H234275   5.364   6.692   0.271 -0.0168  1.2793 -1.9218
 4262TIP3   OH234276   5.211   2.445  16.035  0.2666 -0.3091 -0.7286
 4262TIP3    H134277   5.153   2.373  16.009 -0.5517 -1.2589  3.4629
 4262TIP3    H234278   5.152   2.518  16.053  0.5995 -0.3874  0.7131
 4263TIP3   OH234279   4.517   5.502   2.805 -0.1200  0.1729  0.1810
 4263TIP3    H134280   4.537   5.477   2.715  0.2768  0.9039  0.0534
 4263TIP3    H234281   4.603   5.509   2.847 -0.2122  1.2442  0.2162
 4264TIP3   OH234282   1.564   5.733   2.579 -0.1413 -0.0959 -0.5069
 4264TIP3    H134283   1.544   5.754   2.488  2.5554 -0.0520 -1.1176
 4264TIP3    H234284   1.545   5.814   2.627  0.9240  0.6981 -1.4119
 4265TIP3   OH234285   1.292   0.054  10.509  0.2353  0.0881 -0.2246
 4265TIP3    H134286   1.265  -0.037  10.499 -0.7881  0.1598  1.6605
 4265TIP3    H234287   1.214   0.105  10.485  0.6865  0.4523 -0.9212
 4266TIP3   OH234288   5.192   3.192  10.673  0.7151  0.0856 -0.0125
 4266TIP3    H134289   5.164   3.109  10.635  2.4859 -0.8475  0.6752
 4266TIP3    H234290   5.146   3.197  10.757 -0.9310  0.7629 -0.9366
 4267TIP3   OH234291   6.342   0.845   0.151 -0.5651 -0.4614  0.4648
 4267TIP3    H134292   6.252   0.875   0.141  0.0259  0.7690 -1.3157
 4267TIP3    H234293   6.394   0.925   0.157  0.8210 -1.1045 -2.3607
 4268TIP3   OH234294   3.519   6.343  13.566 -0.3751 -0.4164  0.0704
 4268TIP3    H134295   3.596   6.382  13.524 -0.4518 -1.1675 -0.8044
 4268TIP3    H234296   3.543   6.336  13.658  0.5111 -0.3925 -0.1448
 4269TIP3   OH234297   5.990   3.959  12.424 -0.0435 -0.5371  0.4444
 4269TIP3    H134298   6.060   4.024  12.421 -1.1802  0.6974  0.3188
 4269TIP3    H234299   5.910   4.010  12.412 -1.0650 -1.7800  1.9146
 4270TIP3   OH234300   3.897   1.639  12.378 -0.0028 -0.1529  0.1304
 4270TIP3    H134301   3.829   1.616  12.314 -1.5588  1.3941  1.1758
 4270TIP3    H234302   3.852   1.636  12.462  2.0142 -2.1233  1.1902
 4271TIP3   OH234303   4.200   5.538  14.316  0.5388  0.4218  0.0538
 4271TIP3    H134304   4.256   5.499  14.250  0.6407  1.6186 -0.5853
 4271TIP3    H234305   4.116   5.550  14.273  0.1200 -0.3055  0.6535
 4272TIP3   OH234306   1.912   5.709   4.494  0.6749 -0.3577 -0.2471
 4272TIP3    H134307   1.842   5.738   4.435  0.8120 -0.9918 -0.7316
 4272TIP3    H234308   1.868   5.655   4.559  0.5299  0.3018  0.2013
 4273TIP3   OH234309   6.318   6.165   3.577 -0.3378 -0.7209 -0.1975
 4273TIP3    H134310   6.306   6.124   3.663  0.3294 -1.8830 -0.6580
 4273TIP3    H234311   6.230   6.197   3.554 -0.6156 -0.8171  0.6931
 4274TIP3   OH234312   4.431   3.464  11.074  0.2568  0.1407 -0.6830
 4274TIP3    H134313   4.471   3.448  10.989  0.8267 -1.0758 -0.1964
 4274TIP3    H234314   4.358   3.523  11.055  1.3924  1.2176 -1.7751
 4275TIP3   OH234315   6.597   0.801  11.569 -0.3839  0.2290  0.0693
 4275TIP3    H134316   6.582   0.894  11.585  0.9776  0.5794 -0.5831
 4275TIP3    H234317   6.570   0.788  11.479 -1.8894 -0.3227  0.5878
 4276TIP3   OH234318   3.537   6.360   0.724 -1.0635  0.6860 -0.4554
 4276TIP3    H134319   3.501   6.384   0.639 -1.6864  0.3243 -0.2900
 4276TIP3    H234320   3.484   6.287   0.754  1.0217 -1.1315 -1.1015
 4277TIP3   OH234321   3.233   0.229  16.025  0.2503 -0.0747  0.3581
 4277TIP3    H134322   3.159   0.168  16.024 -0.5572  0.8780  0.6562
 4277TIP3    H234323   3.231   0.267  16.113 -0.1095  1.3837 -0.2652
 4278TIP3   OH234324   1.109   0.350   5.187  0.1364  0.4690 -0.0796
 4278TIP3    H134325   1.049   0.275   5.189  0.7506 -0.0237  0.3204
 4278TIP3    H234326   1.192   0.314   5.218  0.7570  1.0422 -1.0534
 4279TIP3   OH234327   3.417   5.309  12.885 -0.1919 -0.5071  0.5508
 4279TIP3    H134328   3.383   5.360  12.958 -2.2173 -1.0715  0.0408
 4279TIP3    H234329   3.383   5.353  12.807  1.5490 -0.1948 -0.0388
 4280TIP3   OH234330   3.940   6.309  12.695  0.2991 -0.3451  0.2887
 4280TIP3    H134331   3.927   6.214  12.702  0.2274 -0.4644 -1.1515
 4280TIP3    H234332   3.997   6.331  12.769  1.4431 -1.7486 -0.1365
 4281TIP3   OH234333   6.090   6.725  11.841  0.4077  0.2924  0.0235
 4281TIP3    H134334   6.146   6.791  11.800  1.1193 -0.2436  0.1281
 4281TIP3    H234335   6.068   6.665  11.769  1.9062 -0.8207  0.4812
 4282TIP3   OH234336   3.641   5.408  14.241  0.1312 -0.0196  0.3441
 4282TIP3    H134337   3.581   5.482  14.238 -0.1288 -0.2423 -0.0430
 4282TIP3    H234338   3.653   5.382  14.150  2.1091  1.0511  0.2616
 4283TIP3   OH234339   6.400   4.888   5.531  0.6581 -0.3744  0.3904
 4283TIP3    H134340   6.360   4.970   5.561 -2.4998 -1.3087 -1.0492
 4283TIP3    H234341   6.476   4.876   5.589 -0.1864  2.3356  2.1669
 4284TIP3   OH234342   6.759   4.367   2.859  0.1716  0.0442  0.0271
 4284TIP3    H134343   6.809   4.447   2.876 -0.0102 -0.1369  1.4325
 4284TIP3    H234344   6.811   4.320   2.793  0.3895  1.2029 -0.6386
 4285TIP3   OH234345   6.806   2.224  11.144 -0.8404 -0.0831  0.5041
 4285TIP3    H134346   6.765   2.155  11.197  0.6633 -0.7239  0.8522
 4285TIP3    H234347   6.767   2.213  11.057 -2.2414  0.0481  1.0942
 4286TIP3   OH234348   0.850   4.524   5.475 -0.2886  0.6759 -0.0006
 4286TIP3    H134349   0.886   4.549   5.561  0.1988 -1.4947  0.4505
 4286TIP3    H234350   0.758   4.508   5.492 -0.1451  0.0170  0.1829
 4287TIP3   OH234351   1.620   6.535  15.610 -0.1337  0.1458  0.0956
 4287TIP3    H134352   1.686   6.568  15.672 -0.6218  1.9555 -0.3228
 4287TIP3    H234353   1.634   6.441  15.609  1.4844  0.3475  1.1360
 4288TIP3   OH234354   2.596   0.555  10.952  0.2009 -0.5392  0.2034
 4288TIP3    H134355   2.673   0.515  10.912  0.4051  1.2324 -1.2427
 4288TIP3    H234356   2.632   0.626  11.005 -0.4302  0.4276 -0.6496
 4289TIP3   OH234357   6.619   4.389   0.987  0.0755  0.0044 -0.5106
 4289TIP3    H134358   6.573   4.411   1.068  2.9455 -1.3257  1.5624
 4289TIP3    H234359   6.551   4.391   0.920 -2.9715 -1.7608  2.3792
 4290TIP3   OH234360   3.865   3.247   0.788  0.1035 -0.0614 -0.2325
 4290TIP3    H134361   3.807   3.275   0.859 -0.3442 -0.4464 -0.4454
 4290TIP3    H234362   3.943   3.301   0.798  0.2842 -0.5222  0.9116
 4291TIP3   OH234363   6.444   2.508   3.016 -0.0693 -0.5232  0.4835
 4291TIP3    H134364   6.493   2.531   3.095  1.0072 -0.3088 -0.2347
 4291TIP3    H234365   6.408   2.421   3.035  0.8834 -0.8337  0.8993
 4292TIP3   OH234366   2.031   3.024   2.199  0.3363 -0.1155 -0.2724
 4292TIP3    H134367   2.069   2.936   2.193  0.0495 -0.3472  1.1775
 4292TIP3    H234368   2.098   3.076   2.243  0.1060  0.1503 -0.2365
 4293TIP3   OH234369   6.498   2.235   3.311 -0.3001 -0.6238  0.4159
 4293TIP3    H134370   6.446   2.315   3.301  0.2012 -0.2642  0.6464
 4293TIP3    H234371   6.568   2.259   3.372  0.9606 -0.7005 -0.9608
 4294TIP3   OH234372   1.221   4.567  15.645 -0.1053 -0.2744 -0.6110
 4294TIP3    H134373   1.175   4.514  15.580 -1.9631  0.0704  0.4007
 4294TIP3    H234374   1.152   4.609  15.697  1.2896  2.9091 -1.1673
 4295TIP3   OH234375   5.246   6.225  13.665 -0.6483 -0.3429 -0.3258
 4295TIP3    H134376   5.196   6.261  13.738 -0.4447  2.9351 -1.6668
 4295TIP3    H234377   5.336   6.226  13.694 -0.7249 -0.4222 -0.0888
 4296TIP3   OH234378   4.463   2.237  13.520  0.3962 -0.3793  0.2139
 4296TIP3    H134379   4.503   2.254  13.605  0.3147  1.1736 -0.0381
 4296TIP3    H234380   4.536   2.238  13.458  0.1680  1.0476 -0.0569
 4297TIP3   OH234381   6.086   0.391  14.399 -0.0554 -0.1618  0.1344
 4297TIP3    H134382   6.093   0.475  14.445  0.2662 -0.1758  0.1083
 4297TIP3    H234383   6.067   0.328  14.469  0.2000 -0.1455  0.2200
 4298TIP3   OH234384   5.314   5.219  12.267 -0.7711 -0.1580 -0.1260
 4298TIP3    H134385   5.302   5.146  12.206 -0.8912 -1.2107  1.1335
 4298TIP3    H234386   5.391   5.195  12.318 -1.2019  0.2826  0.7366
 4299TIP3   OH234387   0.060   6.746   3.793  0.7085 -0.1765  0.5783
 4299TIP3    H134388  -0.017   6.768   3.741  0.7549 -0.1702  0.5123
 4299TIP3    H234389   0.025   6.696   3.867  0.8438 -1.9761 -0.5341
 4300TIP3   OH234390   4.100   4.870   2.534  0.4343  0.3910  0.6278
 4300TIP3    H134391   4.043   4.819   2.477  1.2920 -0.4520  0.5134
 4300TIP3    H234392   4.070   4.850   2.623  2.1091 -1.9965  0.7019
 4301TIP3   OH234393   4.874   1.044  15.877 -0.4542 -0.4109 -0.4512
 4301TIP3    H134394   4.867   1.006  15.965  0.8143  0.1934 -0.0753
 4301TIP3    H234395   4.881   0.968  15.819 -2.3253 -0.8401 -0.1434
 4302TIP3   OH234396   2.128   5.446  14.060 -0.1255 -0.0168  0.2119
 4302TIP3    H134397   2.162   5.493  14.136 -0.7840 -1.8066  1.6476
 4302TIP3    H234398   2.034   5.463  14.062 -0.1080  0.1649 -0.3774
 4303TIP3   OH234399   6.113   5.863  11.467 -0.6248  0.4461  0.1557
 4303TIP3    H134400   6.076   5.824  11.546  1.7449  1.2315  1.7348
 4303TIP3    H234401   6.163   5.792  11.426 -2.3023 -0.1119 -0.9743
 4304TIP3   OH234402   2.751   3.733  14.054  0.2957  0.3057 -0.1051
 4304TIP3    H134403   2.797   3.650  14.041  0.8676  0.5851  0.0840
 4304TIP3    H234404   2.793   3.771  14.131  1.2759  1.5975 -1.2465
 4305TIP3   OH234405   3.841   3.652  11.131 -0.1542 -0.0633 -1.0170
 4305TIP3    H134406   3.795   3.596  11.069  0.1083 -1.1504 -0.2428
 4305TIP3    H234407   3.881   3.592  11.193  0.8816  0.9469 -0.6835
 4306TIP3   OH234408   5.395   4.952  16.763  0.0605  0.4537 -0.2030
 4306TIP3    H134409   5.478   4.908  16.781 -0.9706 -1.0745  0.8928
 4306TIP3    H234410   5.420   5.027  16.707  1.8779 -1.2686 -1.8153
 4307TIP3   OH234411   3.593   2.131  11.475  0.5074  0.0292 -0.3083
 4307TIP3    H134412   3.572   2.048  11.518  1.9069 -0.9235 -1.4008
 4307TIP3    H234413   3.624   2.106  11.388  3.2754  1.5183  0.1836
 4308TIP3   OH234414   6.167   0.556  14.752  0.0380  0.4942 -0.2640
 4308TIP3    H134415   6.234   0.493  14.724 -0.7770  0.1347 -1.4204
 4308TIP3    H234416   6.157   0.616  14.679 -1.7067 -0.1253 -0.5639
 4309TIP3   OH234417   6.049   2.949  15.037 -0.1119 -0.5305 -0.3007
 4309TIP3    H134418   5.986   2.906  14.980 -0.5011  0.7979 -0.9023
 4309TIP3    H234419   5.998   3.013  15.086  0.4331 -0.8003  0.6312
 4310TIP3   OH234420   0.100   6.604  11.520  0.2107  0.5405 -0.1717
 4310TIP3    H134421   0.191   6.587  11.495  0.2683 -1.4776  1.2782
 4310TIP3    H234422   0.091   6.564  11.607 -2.6151 -1.1332 -1.1641
 4311TIP3   OH234423   5.863   1.083   1.686 -0.1027  0.5465 -0.2730
 4311TIP3    H134424   5.948   1.039   1.687 -0.6653 -0.5616  0.2525
 4311TIP3    H234425   5.810   1.030   1.626 -0.3005  1.4868 -0.9481
 4312TIP3   OH234426   1.251   3.466  11.714  0.1134  0.2362 -0.0732
 4312TIP3    H134427   1.170   3.428  11.747  0.8024 -1.4337 -0.2623
 4312TIP3    H234428   1.237   3.472  11.619  0.2894 -0.2523 -0.1315
 4313TIP3   OH234429   0.410   4.040   4.457  0.4510  0.1174  0.3516
 4313TIP3    H134430   0.427   3.982   4.531  0.4878  1.6664  1.5946
 4313TIP3    H234431   0.495   4.048   4.413  0.8437  0.5703  1.1766
 4314TIP3   OH234432   3.450   5.614   3.338  0.3661 -0.2796 -0.0114
 4314TIP3    H134433   3.457   5.544   3.404  0.5259  0.1426  0.4181
 4314TIP3    H234434   3.385   5.674   3.373  2.2946  1.2899  1.0055
 4315TIP3   OH234435   1.632   2.327  13.604  0.5538  0.5802  0.7268
 4315TIP3    H134436   1.573   2.260  13.639  0.2694  0.0538 -0.7233
 4315TIP3    H234437   1.714   2.281  13.589  1.3612  1.3119  2.7352
 4316TIP3   OH234438   5.482   1.441  17.237  0.0462 -0.2170  0.1435
 4316TIP3    H134439   5.430   1.440  17.317  0.1596 -0.3596  0.2164
 4316TIP3    H234440   5.423   1.408  17.169  0.0223 -0.3205  0.2144
 4317TIP3   OH234441   4.439   1.012   6.178 -0.0928  0.7223  0.2876
 4317TIP3    H134442   4.432   0.945   6.246 -1.0374  1.7399  1.2065
 4317TIP3    H234443   4.533   1.027   6.168  0.0452  0.7793  1.5904
 4318TIP3   OH234444   0.335   4.335  15.473 -0.0995 -0.0300  0.1306
 4318TIP3    H134445   0.326   4.248  15.513 -1.0538 -1.2122 -2.5522
 4318TIP3    H234446   0.429   4.346  15.460 -0.1381 -1.8624 -1.9845
 4319TIP3   OH234447   1.491   3.017   2.720  0.5606 -0.3507 -0.2918
 4319TIP3    H134448   1.553   3.027   2.792 -0.3566  0.9745  0.3271
 4319TIP3    H234449   1.478   2.922   2.713  3.0124 -0.6721 -0.7568
 4320TIP3   OH234450   0.804   1.642  12.646 -0.1459 -0.4753  0.2382
 4320TIP3    H134451   0.719   1.686  12.651  0.8881  1.6620 -0.3727
 4320TIP3    H234452   0.856   1.685  12.714  0.7131 -1.1576  0.0073
 4321TIP3   OH234453   4.918   0.920   4.311  0.1144  0.3492 -0.1751
 4321TIP3    H134454   4.966   0.971   4.376  1.6077 -0.7748 -0.3601
 4321TIP3    H234455   4.913   0.976   4.234 -0.4923  1.1761  0.4615
 4322TIP3   OH234456   6.602   1.645  13.612  0.0486  0.2871  0.2566
 4322TIP3    H134457   6.652   1.567  13.588  1.6497  1.4026 -0.0965
 4322TIP3    H234458   6.528   1.645  13.551  0.9122 -0.0782 -0.8162
 4323TIP3   OH234459   4.548   3.732   2.401  0.3088 -0.4564 -0.6672
 4323TIP3    H134460   4.569   3.790   2.474  0.8610 -1.6071  0.1146
 4323TIP3    H234461   4.579   3.779   2.323  1.7563 -0.1709  0.0511
 4324TIP3   OH234462   1.673   5.101   0.850  0.2806 -0.0002  0.2011
 4324TIP3    H134463   1.588   5.078   0.887 -0.4462 -0.2582 -1.5789
 4324TIP3    H234464   1.734   5.037   0.887 -0.4606 -0.3911  0.7508
 4325TIP3   OH234465   3.368   4.803  11.783  0.1366  0.6409  0.2915
 4325TIP3    H134466   3.304   4.874  11.793 -1.1326 -0.4250 -0.1323
 4325TIP3    H234467   3.406   4.816  11.697  1.0040  1.6738  0.8130
 4326TIP3   OH234468   5.492   3.976  14.604  0.1141 -0.4362  0.0215
 4326TIP3    H134469   5.445   3.934  14.531 -0.5995 -0.3554  0.4290
 4326TIP3    H234470   5.560   4.028  14.561  0.7989 -1.7361 -0.5041
 4327TIP3   OH234471   1.376   5.936   3.365  0.2539  0.2874  0.1921
 4327TIP3    H134472   1.315   5.940   3.291 -0.6125 -0.0330  0.8887
 4327TIP3    H234473   1.324   5.903   3.438  1.4065 -0.5926  0.6382
 4328TIP3   OH234474   0.045   6.070  14.375 -0.0412  0.1797 -0.8996
 4328TIP3    H134475   0.126   6.121  14.375  0.3974 -0.5060 -1.0985
 4328TIP3    H234476   0.055   6.009  14.301 -1.3154  1.0017 -1.7816
 4329TIP3   OH234477   4.788   6.520  15.542 -0.5783  0.0160  0.3292
 4329TIP3    H134478   4.815   6.594  15.488 -1.8700  1.0757  1.1053
 4329TIP3    H234479   4.711   6.552  15.589 -0.2748 -1.3367  1.7707
 4330TIP3   OH234480   1.667   6.704  16.082  0.1455 -0.3412 -0.2987
 4330TIP3    H134481   1.606   6.715  16.009 -2.5351 -0.7469  1.8288
 4330TIP3    H234482   1.660   6.784  16.133  1.2778 -0.4626  0.0819
 4331TIP3   OH234483   4.937   6.273  12.386 -0.6210  0.5434 -0.2391
 4331TIP3    H134484   5.005   6.322  12.432 -1.1051  0.4029  0.6373
 4331TIP3    H234485   4.965   6.273  12.295  2.3090 -2.3782  0.5353
 4332TIP3   OH234486   5.268   4.188  11.914  0.1661 -0.1403 -0.1030
 4332TIP3    H134487   5.256   4.280  11.890  0.4874 -0.1849 -0.4442
 4332TIP3    H234488   5.294   4.145  11.832 -1.1901 -0.7677 -0.2159
 4333TIP3   OH234489   0.792   2.024   3.228  0.1236  0.6457  0.1566
 4333TIP3    H134490   0.730   1.954   3.205 -3.9025  3.8037  0.8248
 4333TIP3    H234491   0.795   2.022   3.324 -1.7145  2.6708  0.3003
 4334TIP3   OH234492   6.313   6.447   3.421  0.1860  0.9670 -0.1220
 4334TIP3    H134493   6.304   6.470   3.514  0.5148  1.4348 -0.2023
 4334TIP3    H234494   6.227   6.415   3.395 -0.0161  1.2096  0.2469
 4335TIP3   OH234495   6.453   3.458   1.531  0.1802  0.2430 -0.2318
 4335TIP3    H134496   6.534   3.422   1.566 -0.9403 -2.3190 -0.1463
 4335TIP3    H234497   6.404   3.486   1.608  0.9987  1.8689 -0.2885
 4336TIP3   OH234498   4.048   4.484   2.194  0.6380  0.0381 -0.4593
 4336TIP3    H134499   4.015   4.514   2.110  1.1638  1.4843 -0.1704
 4336TIP3    H234500   3.985   4.418   2.224 -1.5250  2.1415 -0.2862
 4337TIP3   OH234501   1.959   1.736  13.505 -0.5184  0.1548 -0.3840
 4337TIP3    H134502   2.020   1.762  13.437 -0.0687  2.0497  0.7431
 4337TIP3    H234503   2.010   1.734  13.586 -1.1058 -1.8285 -0.0182
 4338TIP3   OH234504   5.990   5.883   1.540  0.4691 -0.3171 -0.5568
 4338TIP3    H134505   5.970   5.901   1.632 -1.0796 -0.0352 -0.9311
 4338TIP3    H234506   5.926   5.815   1.515  0.6944 -0.1845 -1.4999
 4339TIP3   OH234507   0.778   4.633   4.443 -0.2422 -0.4638 -0.5339
 4339TIP3    H134508   0.684   4.631   4.428 -0.3571 -1.0781  0.2058
 4339TIP3    H234509   0.791   4.575   4.519  0.4659  1.2787  0.7163
 4340TIP3   OH234510   6.277   0.464   3.867 -0.5618 -0.4888 -0.0643
 4340TIP3    H134511   6.233   0.388   3.904 -0.4694 -0.4646  0.0953
 4340TIP3    H234512   6.354   0.427   3.823 -0.4636 -0.4763  0.0981
 4341TIP3   OH234513   5.596   1.933   0.305  0.7718 -0.0255 -0.2561
 4341TIP3    H134514   5.503   1.940   0.286  0.6367  0.4318  0.5333
 4341TIP3    H234515   5.609   1.841   0.327  0.3207  0.0930  0.5346
 4342TIP3   OH234516   5.486   4.909  12.211  0.5940 -0.2066 -0.3851
 4342TIP3    H134517   5.407   4.958  12.186  1.5926  0.9136 -1.3643
 4342TIP3    H234518   5.488   4.835  12.151  1.3450  0.8317 -1.6485
 4343TIP3   OH234519   5.840   6.322   2.975  0.1876  0.6814  0.1772
 4343TIP3    H134520   5.877   6.392   2.920 -0.3194  0.5967 -0.2770
 4343TIP3    H234521   5.756   6.357   3.005 -0.8963 -0.4169 -1.5007
 4344TIP3   OH234522   6.141   4.830   6.089 -0.0863 -0.5477  0.2666
 4344TIP3    H134523   6.196   4.906   6.104 -0.0431 -0.1909 -1.6611
 4344TIP3    H234524   6.171   4.793   6.006 -2.2325 -0.7669 -0.4550
 4345TIP3   OH234525   3.056   5.444   3.046  0.8721 -0.9676  0.1334
 4345TIP3    H134526   3.013   5.391   3.113  0.5735  0.0384  0.7285
 4345TIP3    H234527   3.045   5.393   2.965 -2.9026  0.0918 -0.0671
 4346TIP3   OH234528   4.439   4.401  17.194 -0.0817  0.0735 -0.0691
 4346TIP3    H134529   4.471   4.328  17.246 -0.0061 -0.1268 -0.3933
 4346TIP3    H234530   4.347   4.381  17.178  0.0781 -0.2400 -0.6384
 4347TIP3   OH234531   2.599   2.551   5.558  0.0920 -0.6583  0.1381
 4347TIP3    H134532   2.633   2.559   5.469  1.2158  0.0142  0.6106
 4347TIP3    H234533   2.542   2.627   5.568 -2.5095 -2.3936 -1.0394
 4348TIP3   OH234534   2.629   3.679   0.856 -0.2551 -0.0666 -0.2211
 4348TIP3    H134535   2.655   3.696   0.947 -1.1745 -0.5926  0.1502
 4348TIP3    H234536   2.575   3.600   0.861  2.3571 -2.0205 -1.6529
 4349TIP3   OH234537   4.445   0.295  12.607  0.2073 -0.5034 -0.3525
 4349TIP3    H134538   4.446   0.251  12.522  0.7247 -0.3681 -0.4163
 4349TIP3    H234539   4.352   0.306  12.627  0.0718  0.9023 -1.6488
 4350TIP3   OH234540   6.604   4.628   0.576  0.3274  0.2402 -0.2838
 4350TIP3    H134541   6.650   4.573   0.640  1.4127  2.5890  0.9934
 4350TIP3    H234542   6.663   4.632   0.501 -0.5175 -1.7099 -1.0911
 4351TIP3   OH234543   6.337   3.660   1.397  0.3386 -0.3390 -0.0455
 4351TIP3    H134544   6.361   3.581   1.444 -0.7191 -0.7493 -0.1676
 4351TIP3    H234545   6.313   3.630   1.310 -2.6360 -0.2691  0.6758
 4352TIP3   OH234546   2.669   3.775  13.375 -0.1397 -0.3619  0.1054
 4352TIP3    H134547   2.732   3.816  13.433 -2.2192 -0.5963  2.6265
 4352TIP3    H234548   2.671   3.682  13.399 -1.4660 -0.3628  0.2778
 4353TIP3   OH234549   2.794   5.222   4.337  0.0212  0.4773 -0.6263
 4353TIP3    H134550   2.779   5.198   4.428 -0.0159 -0.2978 -0.8379
 4353TIP3    H234551   2.787   5.140   4.289  0.6944  0.7881 -1.2506
 4354TIP3   OH234552   6.342   2.547  10.803  0.2611  0.0860  0.3709
 4354TIP3    H134553   6.321   2.479  10.867 -1.2823 -0.2766 -0.4780
 4354TIP3    H234554   6.431   2.526  10.774  0.8414  0.0526  2.1061
 4355TIP3   OH234555   2.375   1.508   0.418 -0.0981 -0.1689 -0.7360
 4355TIP3    H134556   2.343   1.517   0.329 -0.1773 -0.1864 -0.7097
 4355TIP3    H234557   2.298   1.521   0.473  0.1019  0.6463 -0.6395
 4356TIP3   OH234558   2.499   1.997  12.534 -0.0988 -0.2602  0.4722
 4356TIP3    H134559   2.478   2.067  12.596  1.2888  0.0930  0.5495
 4356TIP3    H234560   2.483   2.036  12.448  1.1005  0.3004  0.5003
 4357TIP3   OH234561   6.594   4.958  13.807  0.1663 -0.4033  0.1323
 4357TIP3    H134562   6.634   4.973  13.722  0.9411 -0.1636  0.5333
 4357TIP3    H234563   6.668   4.943  13.866 -0.4230 -1.8226  0.5171
 4358TIP3   OH234564   1.263   1.934   0.004  0.1651  0.0733  0.0161
 4358TIP3    H134565   1.325   1.869  -0.030  0.2865  0.3354 -0.2644
 4358TIP3    H234566   1.214   1.887   0.071  0.8232 -0.0686  0.4029
 4359TIP3   OH234567   1.798   4.145   2.614  0.7541 -0.1232  0.1854
 4359TIP3    H134568   1.855   4.088   2.563 -0.8719 -0.0477 -1.7909
 4359TIP3    H234569   1.710   4.109   2.602  0.1538  0.7350  1.8000
 4360TIP3   OH234570   6.035   4.348  12.234  0.2861 -0.0346 -0.5519
 4360TIP3    H134571   6.037   4.387  12.147  3.7002 -3.0144 -1.9476
 4360TIP3    H234572   5.952   4.302  12.238  0.1684 -0.0073 -2.3283
 4361TIP3   OH234573   6.742   1.051   3.019  0.0220 -0.1012 -0.0642
 4361TIP3    H134574   6.646   1.051   3.017  0.0015  0.3395  0.7808
 4361TIP3    H234575   6.766   1.133   3.062  0.7465 -0.7037  0.7053
 4362TIP3   OH234576   6.623   3.653  17.069 -0.1223  0.0905  0.0857
 4362TIP3    H134577   6.602   3.744  17.051 -0.5146  0.0447  0.3022
 4362TIP3    H234578   6.700   3.635  17.015 -1.0597  0.0467 -1.2449
 4363TIP3   OH234579   4.731   1.079  11.653  0.3264  0.0825 -0.3972
 4363TIP3    H134580   4.759   1.014  11.588 -1.5155  0.1450 -1.2853
 4363TIP3    H234581   4.755   1.163  11.614  1.1320  0.0324 -0.0265
 4364TIP3   OH234582   5.679   1.673  15.904  0.0025  0.0029  0.1094
 4364TIP3    H134583   5.630   1.638  15.979 -0.2058 -0.3643 -0.1986
 4364TIP3    H234584   5.615   1.677  15.833  0.1345  0.6091  0.0274
 4365TIP3   OH234585   6.542   1.065  10.203  0.6185  0.7138  0.1888
 4365TIP3    H134586   6.517   1.075  10.295  1.5524 -0.9243  0.6376
 4365TIP3    H234587   6.499   0.985  10.175  0.4610  1.1300 -0.7804
 4366TIP3   OH234588   1.187   5.268   1.273 -0.0472 -0.0541 -0.3087
 4366TIP3    H134589   1.150   5.207   1.337  0.9199 -1.4089 -1.0030
 4366TIP3    H234590   1.278   5.279   1.300 -0.4137  1.7171  0.2633
 4367TIP3   OH234591   4.073   1.163   4.769  0.0579 -0.3014 -0.0519
 4367TIP3    H134592   4.034   1.143   4.854 -0.6324 -1.0531 -0.5359
 4367TIP3    H234593   4.046   1.090   4.713  0.3409  0.2952 -0.9700
 4368TIP3   OH234594   6.379   3.604  15.831 -0.0457  0.2310  0.9184
 4368TIP3    H134595   6.415   3.662  15.898 -1.5575 -0.4177  2.3359
 4368TIP3    H234596   6.335   3.534  15.881 -0.4988 -0.7045 -0.7470
 4369TIP3   OH234597   1.503   4.417   3.517 -0.3756  0.1835 -0.0418
 4369TIP3    H134598   1.590   4.384   3.537 -1.6691 -1.4688  3.1422
 4369TIP3    H234599   1.511   4.513   3.523  0.5992 -0.0639  2.9626
 4370TIP3   OH234600   6.074   0.704  14.543 -0.3710  0.0859  0.1662
 4370TIP3    H134601   6.057   0.698  14.449 -0.3926 -0.1113  0.1830
 4370TIP3    H234602   6.051   0.794  14.566 -0.2319  0.1736 -0.0449
 4371TIP3   OH234603   1.152   5.379  13.128  0.0287  0.2361  0.2777
 4371TIP3    H134604   1.185   5.438  13.060  1.0942  0.0689  0.6451
 4371TIP3    H234605   1.191   5.411  13.209 -1.8827  0.9346  0.9596
 4372TIP3   OH234606   1.541   0.277  16.790  0.3831  0.1790 -0.1567
 4372TIP3    H134607   1.524   0.353  16.845 -2.5197 -1.4822  1.3744
 4372TIP3    H234608   1.507   0.300  16.704  1.4963  1.3822 -0.2859
 4373TIP3   OH234609   4.366   1.444   6.523 -0.2984 -0.5801 -0.2618
 4373TIP3    H134610   4.406   1.530   6.528 -2.1135  0.1576  3.8160
 4373TIP3    H234611   4.439   1.384   6.507  1.7815  1.2160  2.0993
 4374TIP3   OH234612   6.196   2.694  14.997 -0.0458  0.0163  0.2235
 4374TIP3    H134613   6.197   2.789  14.997  1.2814  0.0505  2.6823
 4374TIP3    H234614   6.111   2.671  14.958 -0.8688  2.2200  0.6418
 4375TIP3   OH234615   1.168   0.918   2.400  0.1260 -0.0009  0.3359
 4375TIP3    H134616   1.179   0.869   2.319 -0.0754 -0.7649  0.7655
 4375TIP3    H234617   1.105   0.867   2.451  0.0679  0.5966  0.8711
 4376TIP3   OH234618   6.561   6.551   1.023  0.3095 -0.0086 -0.2537
 4376TIP3    H134619   6.493   6.507   1.074 -1.7370  0.1712 -2.6893
 4376TIP3    H234620   6.581   6.490   0.952  1.3309  0.7403 -0.6235
 4377TIP3   OH234621   1.934   0.168  13.908 -0.2958 -0.3121 -0.5848
 4377TIP3    H134622   1.891   0.249  13.880  1.4846  0.4429 -1.2193
 4377TIP3    H234623   2.026   0.180  13.884  0.1367 -2.2133  0.0139
 4378TIP3   OH234624   3.982   5.632   5.385  0.3168 -0.2252 -0.1766
 4378TIP3    H134625   3.980   5.543   5.349 -0.6590  0.2919 -1.4679
 4378TIP3    H234626   3.891   5.662   5.380  0.4986  0.5549  1.0177
 4379TIP3   OH234627   3.751   3.788   2.441  0.6649  0.0991  0.0170
 4379TIP3    H134628   3.732   3.758   2.530 -0.2394 -0.7920 -0.4655
 4379TIP3    H234629   3.822   3.732   2.411 -0.3738 -0.9648 -0.5306
 4380TIP3   OH234630   3.457   4.999   3.796 -0.0764 -0.0036  0.3586
 4380TIP3    H134631   3.505   4.966   3.720 -1.9292 -1.2480 -0.3136
 4380TIP3    H234632   3.504   4.964   3.871  0.2264 -1.0134 -0.2913
 4381TIP3   OH234633   5.505   1.346  12.761  0.7660  0.1465  0.1097
 4381TIP3    H134634   5.531   1.265  12.717 -0.1965  0.2306 -0.6383
 4381TIP3    H234635   5.507   1.413  12.692 -1.9393  0.0475 -0.1324
 4382TIP3   OH234636   1.329   5.330   0.840  0.4088  0.2584 -0.1386
 4382TIP3    H134637   1.328   5.275   0.761  2.2563  0.2397 -0.1560
 4382TIP3    H234638   1.279   5.279   0.904 -1.1323  0.2839 -1.2747
 4383TIP3   OH234639   3.574   3.345   4.688  0.0668 -0.0880 -0.1083
 4383TIP3    H134640   3.526   3.275   4.644  0.1349  0.9011 -1.7940
 4383TIP3    H234641   3.592   3.409   4.619  1.5388  0.7719  1.0397
 4384TIP3   OH234642   3.293   6.486   6.514 -0.3842  0.3801  0.2595
 4384TIP3    H134643   3.293   6.391   6.505 -1.9195  0.4709 -0.7959
 4384TIP3    H234644   3.376   6.514   6.476  0.1365 -0.5470  0.7051
 4385TIP3   OH234645   3.639   3.399  12.996 -0.6681 -0.0172  0.0184
 4385TIP3    H134646   3.638   3.357  12.909  0.8722  1.5438 -0.7876
 4385TIP3    H234647   3.706   3.467  12.988 -0.0811 -0.2635  2.6480
 4386TIP3   OH234648   0.861   5.126  16.216 -0.3838 -0.1521  0.2338
 4386TIP3    H134649   0.852   5.048  16.271  1.1293  0.6646  1.6893
 4386TIP3    H234650   0.867   5.199  16.278 -0.5660  1.0051 -1.0774
 4387TIP3   OH234651   0.712   2.565  13.127 -0.2234  0.3504 -0.1549
 4387TIP3    H134652   0.776   2.621  13.170  0.8376 -0.1450 -1.0421
 4387TIP3    H234653   0.683   2.615  13.050 -1.0139  0.6330  0.3227
 4388TIP3   OH234654   1.862   0.861   3.873  0.1578 -0.7474 -0.3770
 4388TIP3    H134655   1.875   0.913   3.953  1.3854  0.9578 -1.6456
 4388TIP3    H234656   1.940   0.806   3.869  0.0055 -0.9683 -0.3050
 4389TIP3   OH234657   4.297   5.792  12.349  0.2954  0.2285 -0.2517
 4389TIP3    H134658   4.272   5.793  12.441  1.1968  0.3329  0.0057
 4389TIP3    H234659   4.348   5.711  12.338  0.8465  0.5959 -0.4664
 4390TIP3   OH234660   4.066   1.798   4.706 -0.3636 -0.2088  0.5595
 4390TIP3    H134661   4.141   1.856   4.695 -0.3386 -0.0934  1.3237
 4390TIP3    H234662   4.028   1.791   4.618  2.0453 -2.3093 -0.3890
 4391TIP3   OH234663   6.018   1.601  14.487  0.3869 -0.6120  0.3160
 4391TIP3    H134664   5.977   1.619  14.403 -0.6202 -0.7807  0.7614
 4391TIP3    H234665   6.048   1.687  14.518 -4.0689  0.3707  2.2717
 4392TIP3   OH234666   6.431   1.446   2.670 -0.2338  0.3008  0.2712
 4392TIP3    H134667   6.468   1.366   2.708 -1.4590  0.3933  1.7203
 4392TIP3    H234668   6.368   1.477   2.736  0.9746  3.0460  0.2250
 4393TIP3   OH234669   2.218   5.470   1.682  0.3972  0.0692  0.3263
 4393TIP3    H134670   2.286   5.506   1.624  0.6049 -0.3693  0.3002
 4393TIP3    H234671   2.173   5.405   1.629 -0.6461  1.0030  0.0478
 4394TIP3   OH234672   6.647   5.174  13.153 -0.5235 -0.4578 -0.1208
 4394TIP3    H134673   6.731   5.218  13.163  0.8913 -3.3616  1.1077
 4394TIP3    H234674   6.584   5.246  13.143  2.0189  1.7618 -0.7012
 4395TIP3   OH234675   0.971   1.000  15.993  0.3785  0.0463  1.0523
 4395TIP3    H134676   0.968   0.960  16.080 -0.3394 -0.2596  0.8949
 4395TIP3    H234677   1.038   0.951  15.946  0.5062 -0.0317  1.3136
 4396TIP3   OH234678   4.272   4.824  13.861 -0.3257  0.6905  0.4163
 4396TIP3    H134679   4.322   4.771  13.799 -2.1538 -1.3538  0.6202
 4396TIP3    H234680   4.220   4.882  13.805  0.6021  1.2989  0.1587
 4397TIP3   OH234681   5.737   6.649   2.040  0.0116 -0.0093 -0.8413
 4397TIP3    H134682   5.792   6.581   2.080 -1.8411 -0.3309  1.2383
 4397TIP3    H234683   5.742   6.722   2.101 -2.3785 -0.2857 -0.2697
 4398TIP3   OH234684   0.265   5.719   1.906 -0.4204 -0.2706  0.4046
 4398TIP3    H134685   0.336   5.769   1.865  0.1565 -2.4379 -1.3545
 4398TIP3    H234686   0.185   5.760   1.872  0.0126  0.6517  0.4773
 4399TIP3   OH234687   2.373   4.665   3.052  0.0264  0.2598 -0.2801
 4399TIP3    H134688   2.329   4.729   3.108 -1.9062 -1.2397 -0.0485
 4399TIP3    H234689   2.405   4.717   2.978 -0.8430  1.6358  0.2772
 4400TIP3   OH234690   3.425   4.362   2.590  0.6463  0.3938  0.5075
 4400TIP3    H134691   3.393   4.272   2.588 -0.6893  0.8671 -0.3910
 4400TIP3    H234692   3.467   4.371   2.675  0.3581 -0.9303  0.7961
 4401TIP3   OH234693   0.297   4.190   6.109  0.7075  0.5674  0.0182
 4401TIP3    H134694   0.349   4.201   6.189  1.2133 -1.3322 -0.0336
 4401TIP3    H234695   0.361   4.193   6.038  0.5066  0.2149 -0.1776
 4402TIP3   OH234696   1.142   0.754  14.759 -0.2059 -0.1919  0.1321
 4402TIP3    H134697   1.230   0.751  14.723 -1.3004 -0.0998 -2.6556
 4402TIP3    H234698   1.097   0.821  14.708 -1.8672 -0.1052  1.6397
 4403TIP3   OH234699   3.507   0.534  13.154  1.0437  0.1396  0.0478
 4403TIP3    H134700   3.495   0.621  13.193  1.2983  1.0363 -1.8014
 4403TIP3    H234701   3.465   0.541  13.068  0.2252 -1.8751  0.2579
 4404TIP3   OH234702   6.433   1.679  16.392  0.3133 -0.1476 -0.0454
 4404TIP3    H134703   6.468   1.760  16.356 -0.4942  0.2209 -0.0018
 4404TIP3    H234704   6.350   1.704  16.432 -0.2114 -1.1017 -0.5325
 4405TIP3   OH234705   1.876   6.463  16.909 -0.1710  0.5245  0.3985
 4405TIP3    H134706   1.934   6.387  16.904 -1.8808 -0.8277  0.3503
 4405TIP3    H234707   1.869   6.481  17.003  0.5791  0.8853  0.3827
 4406TIP3   OH234708   2.462   1.249   4.882 -0.5058 -0.2142  0.0454
 4406TIP3    H134709   2.425   1.329   4.846  0.2599  0.2692  0.3206
 4406TIP3    H234710   2.481   1.271   4.974  1.8687  0.0349 -0.4783
 4407TIP3   OH234711   0.272   4.917  12.129  0.0015 -0.7907 -0.0263
 4407TIP3    H134712   0.307   5.006  12.121 -2.9895  0.3052 -2.1010
 4407TIP3    H234713   0.278   4.881  12.041 -3.1509 -0.8373 -0.2907
 4408TIP3   OH234714   1.899   6.042   4.197  0.2732 -0.5133 -0.2325
 4408TIP3    H134715   1.890   6.085   4.282 -0.2817  1.3210 -1.2050
 4408TIP3    H234716   1.858   6.102   4.135  2.7971 -0.6934 -2.1569
 4409TIP3   OH234717   2.802   0.274  11.463 -0.4120  0.1961 -1.0721
 4409TIP3    H134718   2.787   0.339  11.394  2.0084  1.5262 -0.4025
 4409TIP3    H234719   2.790   0.323  11.545 -1.9132 -1.0402 -0.5322
 4410TIP3   OH234720   1.207   5.539  16.360  0.1384  0.5158 -0.2524
 4410TIP3    H134721   1.159   5.556  16.441 -0.2564  0.5245 -0.4874
 4410TIP3    H234722   1.202   5.444  16.348  2.5914  0.1594  1.2100
 4411TIP3   OH234723   6.108   4.953   2.356 -0.2975 -0.2218  0.2392
 4411TIP3    H134724   6.193   4.997   2.366 -0.3627 -0.2073  0.7585
 4411TIP3    H234725   6.124   4.864   2.389  0.0203 -0.8082 -1.4709
 4412TIP3   OH234726   5.703   1.347  14.034 -0.6784  0.4044  0.1040
 4412TIP3    H134727   5.780   1.331  13.979 -0.6194 -0.1422  0.3385
 4412TIP3    H234728   5.645   1.400  13.979 -1.1282 -1.1179 -0.9316
 4413TIP3   OH234729   4.959   4.957  16.789 -0.0348 -0.5067  0.3846
 4413TIP3    H134730   4.901   5.027  16.760  0.7348 -0.5174 -1.2167
 4413TIP3    H234731   4.983   4.981  16.879 -2.3040 -0.3941  0.9901
 4414TIP3   OH234732   1.520   0.566   2.321  0.1202  0.1928 -0.2484
 4414TIP3    H134733   1.530   0.661   2.319 -1.0795  0.3273 -0.4236
 4414TIP3    H234734   1.431   0.552   2.354  0.1967 -0.8625 -0.4648
 4415TIP3   OH234735   4.456   0.445   3.609  0.0241  0.2792 -0.2063
 4415TIP3    H134736   4.468   0.504   3.534  0.8096  1.5496  0.9007
 4415TIP3    H234737   4.525   0.380   3.599  0.5430  0.8259 -0.2405
 4416TIP3   OH234738   6.131   0.623  10.991 -0.2814 -0.5323  0.2179
 4416TIP3    H134739   6.047   0.667  10.978 -0.1825 -0.1898  0.6976
 4416TIP3    H234740   6.191   0.670  10.933 -0.5714 -1.2346 -0.6527
 4417TIP3   OH234741   1.183   2.649  17.116 -0.0967  0.3767 -0.3438
 4417TIP3    H134742   1.115   2.642  17.183  1.7120  0.7416  1.5784
 4417TIP3    H234743   1.218   2.561  17.107  1.9270  0.9493  1.6513
 4418TIP3   OH234744   2.058   0.790  11.616 -0.1235 -0.3165 -0.1196
 4418TIP3    H134745   2.023   0.876  11.592  0.1254 -0.0533  0.4460
 4418TIP3    H234746   2.088   0.801  11.706  0.0396 -0.9606 -0.0938
 4419TIP3   OH234747   0.883   4.974   4.693 -0.3666 -0.4436  0.1513
 4419TIP3    H134748   0.884   4.989   4.598 -0.3663 -1.6355 -0.0456
 4419TIP3    H234749   0.961   4.921   4.710  0.6514  1.3105  1.1036
 4420TIP3   OH234750   4.372   5.411  15.829  0.0686 -0.4755  0.0204
 4420TIP3    H134751   4.436   5.482  15.831 -0.1253 -0.3334  2.3841
 4420TIP3    H234752   4.324   5.420  15.911 -1.2311 -2.1857 -0.5346
 4421TIP3   OH234753   0.485   0.740  17.171  0.0672  0.0852  0.2259
 4421TIP3    H134754   0.552   0.672  17.180  1.4133  1.2394 -0.8110
 4421TIP3    H234755   0.403   0.695  17.190  0.9966 -1.6779  0.2112
 4422TIP3   OH234756   3.517   2.680   4.637  0.1444  0.8789  0.0243
 4422TIP3    H134757   3.564   2.680   4.721  0.1613  1.3938  0.0204
 4422TIP3    H234758   3.556   2.753   4.589 -0.4803  1.1383 -0.0850
 4423TIP3   OH234759   1.970   2.026   3.881 -0.5935  0.7609  0.3529
 4423TIP3    H134760   2.005   1.974   3.808  1.0078  0.3784  1.3716
 4423TIP3    H234761   2.047   2.065   3.922 -1.5482  1.6102  1.3710
 4424TIP3   OH234762   2.798   3.163   2.480  0.3493 -0.2071 -0.5726
 4424TIP3    H134763   2.804   3.221   2.557 -2.4368  0.8623 -1.1059
 4424TIP3    H234764   2.889   3.152   2.452  1.2269  1.2315  1.5267
 4425TIP3   OH234765   3.629   2.898   6.314  0.2401  0.0458 -0.3516
 4425TIP3    H134766   3.647   2.808   6.339  0.0800  0.0027 -0.3921
 4425TIP3    H234767   3.614   2.944   6.396  1.2474  0.2371 -0.2643
 4426TIP3   OH234768   4.275   1.586  12.665  0.2559 -0.3349  0.0723
 4426TIP3    H134769   4.234   1.504  12.692  0.9492 -0.7118 -0.0046
 4426TIP3    H234770   4.296   1.630  12.748  0.2652 -0.4300  0.1211
 4427TIP3   OH234771   1.163   3.394  16.988  0.6761 -0.5326  0.2690
 4427TIP3    H134772   1.153   3.382  17.082 -2.5335  2.4663  0.4055
 4427TIP3    H234773   1.131   3.312  16.950  0.9689 -1.3402  1.7099
 4428TIP3   OH234774   3.980   4.054   4.717 -0.3187  0.4072  0.6544
 4428TIP3    H134775   3.909   4.068   4.779 -1.7396 -3.2805 -0.0507
 4428TIP3    H234776   3.940   4.065   4.631  0.6321  1.0156  0.2729
 4429TIP3   OH234777   6.231   1.948   4.278 -1.5806  0.1085  0.1914
 4429TIP3    H134778   6.268   2.030   4.245  1.0543  0.2461  3.2681
 4429TIP3    H234779   6.223   1.892   4.201  2.2590  1.1562 -1.0526
 4430TIP3   OH234780   4.610   6.686   5.382  0.5079  0.3090  0.0441
 4430TIP3    H134781   4.540   6.697   5.446  1.3827  0.0841  1.0635
 4430TIP3    H234782   4.679   6.746   5.412  1.2572 -0.4208 -0.1931
 4431TIP3   OH234783   3.277   0.702   0.425 -0.2320 -0.0053 -0.3347
 4431TIP3    H134784   3.307   0.665   0.341  0.9511  0.4188 -0.1044
 4431TIP3    H234785   3.316   0.645   0.491  1.6535  1.6499  0.0281
 4432TIP3   OH234786   4.689   5.992  15.855 -0.4371  0.0705  0.2772
 4432TIP3    H134787   4.711   6.015  15.765  0.4223 -0.2141  0.4047
 4432TIP3    H234788   4.596   5.972  15.853 -1.1133  3.0296  0.0446
 4433TIP3   OH234789   1.353   2.849   4.294  0.1758 -0.0710 -0.1476
 4433TIP3    H134790   1.263   2.868   4.323  0.4429  0.2372  0.4874
 4433TIP3    H234791   1.406   2.919   4.332  0.3816  1.0227 -2.3667
 4434TIP3   OH234792   2.959   1.138  14.869 -0.2246  0.1735  0.3839
 4434TIP3    H134793   2.933   1.165  14.781  0.2135 -0.7083 -0.0313
 4434TIP3    H234794   3.043   1.180  14.883 -0.1716  0.1056  0.2733
 4435TIP3   OH234795   5.893   5.404  14.930  0.7413  0.3123  0.1540
 4435TIP3    H134796   5.900   5.452  15.013 -0.8878  1.7661 -0.5323
 4435TIP3    H234797   5.928   5.317  14.950  1.1452  0.9121  2.1480
 4436TIP3   OH234798   1.946   3.883  14.926 -0.4822 -0.1900 -0.2315
 4436TIP3    H134799   2.009   3.820  14.890  0.4232 -0.2807  1.4481
 4436TIP3    H234800   1.983   3.969  14.905  0.7637 -0.2455  1.6745
 4437TIP3   OH234801   3.479   4.378  11.996 -0.7116 -0.9698  0.3010
 4437TIP3    H134802   3.438   4.408  11.915  1.0328 -2.6605 -1.2641
 4437TIP3    H234803   3.449   4.287  12.006  2.3404 -2.1614 -0.7558
 4438TIP3   OH234804   4.111   4.869  16.578  0.5885 -0.0719  0.6693
 4438TIP3    H134805   4.199   4.847  16.547  0.0269 -0.2724 -0.7880
 4438TIP3    H234806   4.116   4.857  16.673  1.6498 -1.7784  0.4179
 4439TIP3   OH234807   5.569   1.350  13.187  0.0595  0.3087 -0.2206
 4439TIP3    H134808   5.480   1.384  13.181  0.4117  1.2301 -0.3212
 4439TIP3    H234809   5.614   1.388  13.112  0.3294 -0.8012 -0.6236
 4440TIP3   OH234810   2.042   6.622   1.327 -0.1519 -0.1324  0.3416
 4440TIP3    H134811   1.972   6.656   1.271 -1.2248 -2.1869  0.4030
 4440TIP3    H234812   2.015   6.645   1.416 -0.7868 -0.9867  0.3709
 4441TIP3   OH234813   2.939   4.478   1.293 -0.0875  0.2553  0.1234
 4441TIP3    H134814   2.990   4.473   1.212 -1.0051  1.1676 -0.5154
 4441TIP3    H234815   2.927   4.572   1.308  0.3208  0.0994  1.4725
 4442TIP3   OH234816   6.746   5.631   3.234  0.5583 -0.0010  0.1182
 4442TIP3    H134817   6.714   5.564   3.294 -0.1701 -1.1917 -1.5964
 4442TIP3    H234818   6.767   5.706   3.291 -0.9549 -0.8004  1.7473
 4443TIP3   OH234819   6.553   1.926  16.081 -0.0243 -0.3881 -0.4876
 4443TIP3    H134820   6.619   1.990  16.052  2.3431 -1.9103  1.3623
 4443TIP3    H234821   6.603   1.847  16.100 -2.4555 -1.7068  0.6731
 4444TIP3   OH234822   2.106   5.080  12.687 -0.6344 -0.2624 -0.2146
 4444TIP3    H134823   2.201   5.073  12.677 -0.6285 -0.1933 -0.2030
 4444TIP3    H234824   2.094   5.140  12.760 -0.6659 -1.8757  1.1481
 4445TIP3   OH234825   4.915   0.071  10.678  0.2345 -0.0488  0.4570
 4445TIP3    H134826   4.829   0.067  10.718  0.1866 -0.4038  0.3229
 4445TIP3    H234827   4.932  -0.019  10.649 -0.2899  0.4411 -1.4723
 4446TIP3   OH234828   4.263   5.276   4.485 -0.2003  0.0981  0.3753
 4446TIP3    H134829   4.343   5.268   4.536 -0.2616  0.1043  0.4702
 4446TIP3    H234830   4.231   5.364   4.503 -0.4514 -0.0501  0.6589
 4447TIP3   OH234831   2.234   6.043   1.162  0.2661 -0.3164  0.1302
 4447TIP3    H134832   2.169   6.095   1.209 -0.7184 -1.1344 -0.2882
 4447TIP3    H234833   2.318   6.066   1.202 -0.4510 -0.3116  1.6634
 4448TIP3   OH234834   4.300   4.582  11.981  0.4960 -0.8576  0.0643
 4448TIP3    H134835   4.259   4.638  12.047  0.1297 -1.3295  0.2497
 4448TIP3    H234836   4.237   4.580  11.909  1.6629  1.0450 -1.0452
 4449TIP3   OH234837   5.327   4.618   3.914 -0.4929  0.5439  0.2083
 4449TIP3    H134838   5.334   4.623   4.010 -0.6880  1.9678  0.1671
 4449TIP3    H234839   5.241   4.578   3.898 -0.7280  0.8706  0.6330
 4450TIP3   OH234840   0.960   1.718  11.909  0.6670  0.4105  0.6581
 4450TIP3    H134841   0.991   1.643  11.958 -1.7846 -1.2555 -0.2269
 4450TIP3    H234842   1.039   1.757  11.871  1.9853 -1.5557  1.3285
 4451TIP3   OH234843   4.897   5.645   0.573 -0.0541 -0.5725 -0.4784
 4451TIP3    H134844   4.839   5.576   0.604  0.1587 -0.4769  0.1413
 4451TIP3    H234845   4.846   5.726   0.584  0.9675 -0.2535  2.0776
 4452TIP3   OH234846   4.979   3.459  12.001 -0.0261 -0.2691  0.3217
 4452TIP3    H134847   4.966   3.495  12.089 -2.5748  0.4446 -0.2927
 4452TIP3    H234848   5.038   3.520  11.958  0.5049 -0.1289  1.2312
 4453TIP3   OH234849   0.682   4.170   3.235  0.2473 -0.4172  0.3502
 4453TIP3    H134850   0.692   4.077   3.256  1.5985 -0.0815  1.2698
 4453TIP3    H234851   0.661   4.171   3.142  0.1092 -1.6512  0.3527
 4454TIP3   OH234852   0.661   5.941   1.525 -0.4615  0.2556  0.2405
 4454TIP3    H134853   0.568   5.918   1.530 -0.2490 -0.3454  1.3777
 4454TIP3    H234854   0.663   6.034   1.547 -1.0529  0.8857 -2.1388
 4455TIP3   OH234855   3.028   1.243   0.742 -0.2119  0.1006  0.1998
 4455TIP3    H134856   2.963   1.255   0.672 -0.0743 -0.7430 -0.0670
 4455TIP3    H234857   2.975   1.236   0.822 -0.3831  0.7387  0.1536
 4456TIP3   OH234858   1.385   3.581  17.189 -0.2075  0.2602  0.3555
 4456TIP3    H134859   1.290   3.583  17.177 -0.2753  0.3741  0.8803
 4456TIP3    H234860   1.421   3.563  17.102 -0.8504 -3.0852  0.7159
 4457TIP3   OH234861   4.444   4.059   4.269  0.5084 -1.0140 -0.0349
 4457TIP3    H134862   4.357   4.021   4.261  0.7731 -1.6046 -0.1476
 4457TIP3    H234863   4.438   4.120   4.342 -0.1688 -0.5777 -0.4555
 4458TIP3   OH234864   6.494   0.605  12.853  0.1507 -0.2831  0.0180
 4458TIP3    H134865   6.428   0.630  12.789 -1.3522 -3.2795  0.3038
 4458TIP3    H234866   6.552   0.546  12.806  0.0675 -1.0981  0.9176
 4459TIP3   OH234867   5.478   2.760   0.374  0.0388 -0.1187  0.1748
 4459TIP3    H134868   5.522   2.684   0.337 -0.4810  0.2060 -1.1492
 4459TIP3    H234869   5.550   2.816   0.405  0.4815 -0.5214 -0.1109
 4460TIP3   OH234870   0.234   6.743  15.421 -0.3280  0.4336 -0.0614
 4460TIP3    H134871   0.307   6.768  15.363  0.9227 -1.1753  0.7958
 4460TIP3    H234872   0.156   6.760  15.369  0.6297  2.1825 -1.0071
 4461TIP3   OH234873   4.240   3.852   0.950 -0.0610 -0.0052 -0.4869
 4461TIP3    H134874   4.146   3.835   0.951 -0.2797  1.1122  1.0943
 4461TIP3    H234875   4.248   3.945   0.972  1.4588 -0.5383  1.4814
 4462TIP3   OH234876   5.130   5.239  11.997 -0.0821  0.2330  0.6446
 4462TIP3    H134877   5.064   5.170  12.005  0.1357 -0.1991 -0.9666
 4462TIP3    H234878   5.122   5.268  11.906  0.1012  2.0647  1.1910
 4463TIP3   OH234879   6.360   3.632  12.473  0.4034  0.7813  0.4227
 4463TIP3    H134880   6.428   3.661  12.533  1.3959  0.7160 -0.6624
 4463TIP3    H234881   6.319   3.713  12.443  0.9366  0.8959 -0.0050
 4464TIP3   OH234882   4.077   0.458  16.000  0.0567  0.6279 -0.6372
 4464TIP3    H134883   4.106   0.549  15.998  0.1334  0.5701 -2.0242
 4464TIP3    H234884   4.127   0.415  15.931  2.1468 -1.1229  1.8378
 4465TIP3   OH234885   3.691   0.637   0.448 -0.4660  0.1997  0.0195
 4465TIP3    H134886   3.642   0.660   0.527  0.4109 -0.2424  0.7005
 4465TIP3    H234887   3.631   0.582   0.398  0.2496 -2.5797  2.1103
 4466TIP3   OH234888   5.524   1.333  12.233 -0.7669  0.3036 -0.0887
 4466TIP3    H134889   5.461   1.291  12.175 -0.6151  1.8095 -1.3974
 4466TIP3    H234890   5.521   1.426  12.208  2.1885  0.3419 -0.3905
 4467TIP3   OH234891   3.171   4.705  13.726  0.0325 -0.4848  0.7315
 4467TIP3    H134892   3.174   4.639  13.794  0.9278 -3.0077 -1.6581
 4467TIP3    H234893   3.078   4.711  13.702  0.0164 -1.3162  0.5688
 4468TIP3   OH234894   0.956   1.979  16.992 -0.2354 -0.0935  0.2145
 4468TIP3    H134895   0.929   2.003  17.081 -0.9778 -0.3927  0.0745
 4468TIP3    H234896   0.930   2.053  16.938 -0.3579 -0.1845  0.1476
 4469TIP3   OH234897   5.287   6.209   5.568 -0.3395  0.1045  0.3811
 4469TIP3    H134898   5.377   6.180   5.576 -0.2821  0.1249 -0.1889
 4469TIP3    H234899   5.243   6.139   5.520 -0.6571  0.0286  0.7810
 4470TIP3   OH234900   2.026   6.436  14.474 -0.1084 -0.0855  0.0781
 4470TIP3    H134901   1.949   6.471  14.431  0.6089  1.4180 -0.0110
 4470TIP3    H234902   2.070   6.513  14.511 -0.1292 -1.2074  2.5447
 4471TIP3   OH234903   3.749   4.160  17.217  0.0727 -0.3674 -0.5294
 4471TIP3    H134904   3.655   4.149  17.235 -0.5040 -0.4844 -3.2641
 4471TIP3    H234905   3.773   4.082  17.166  0.8912  1.1034 -2.4614
 4472TIP3   OH234906   6.216   3.430  15.192 -0.4134 -0.0050 -0.7169
 4472TIP3    H134907   6.179   3.428  15.280 -0.0318  0.1327 -0.5524
 4472TIP3    H234908   6.141   3.422  15.134 -0.6884  0.1700 -0.3829
 4473TIP3   OH234909   1.480   5.463  16.201 -0.7422 -0.2963 -0.3965
 4473TIP3    H134910   1.564   5.443  16.244 -1.1043 -1.4123 -0.1895
 4473TIP3    H234911   1.414   5.441  16.267 -1.2985 -1.7761 -1.4336
 4474TIP3   OH234912   1.530   3.097  15.390  0.2788  0.1731 -0.4029
 4474TIP3    H134913   1.448   3.095  15.440 -0.1311  2.1275 -0.9692
 4474TIP3    H234914   1.589   3.150  15.444  0.3564  0.9081 -1.2054
 4475TIP3   OH234915   6.342   1.128  12.766  0.0965 -0.4862 -0.4535
 4475TIP3    H134916   6.275   1.156  12.704  0.2807 -0.5815 -0.7003
 4475TIP3    H234917   6.368   1.208  12.811  0.0087 -0.4046 -0.5450
 4476TIP3   OH234918   1.934   5.202   1.067 -0.1850 -0.6176  0.3830
 4476TIP3    H134919   1.980   5.151   1.000  1.1264 -0.8498  1.4567
 4476TIP3    H234920   1.874   5.140   1.108 -2.1860 -0.1072 -1.6243
 4477TIP3   OH234921   2.797   1.274  13.588  0.2492 -0.3600  0.1795
 4477TIP3    H134922   2.866   1.208  13.586  0.8774  0.2862  0.4917
 4477TIP3    H234923   2.835   1.348  13.635 -0.5939  0.0702  0.2040
 4478TIP3   OH234924   5.591   0.102  12.387  0.7644 -0.4084 -0.2940
 4478TIP3    H134925   5.576   0.172  12.323 -2.8775  1.4793  2.4309
 4478TIP3    H234926   5.539   0.029  12.354 -1.2929  0.6342  0.5617
 4479TIP3   OH234927   5.023   6.362   2.055 -0.0865 -0.1233 -0.2763
 4479TIP3    H134928   5.079   6.286   2.068  0.7759  0.8311  1.8817
 4479TIP3    H234929   5.055   6.427   2.118 -2.8824  0.8442  0.2463
 4480TIP3   OH234930   6.617   3.563  11.458  0.3308  0.1230  0.5000
 4480TIP3    H134931   6.697   3.530  11.499  0.6563 -1.5179 -1.3773
 4480TIP3    H234932   6.648   3.608  11.379 -0.5472 -0.0465  0.0553
 4481TIP3   OH234933   2.122   1.992   1.843  0.1833 -0.5380 -0.0998
 4481TIP3    H134934   2.214   2.007   1.861 -0.4138  1.9933  1.0451
 4481TIP3    H234935   2.119   1.971   1.749  1.8440  0.0986 -0.3043
 4482TIP3   OH234936   5.848   6.697   6.244 -0.0661  0.0969  0.4819
 4482TIP3    H134937   5.927   6.702   6.298  0.3436 -1.6197  0.0560
 4482TIP3    H234938   5.783   6.747   6.294  1.2170  1.3456  0.9344
 4483TIP3   OH234939   6.211   3.706  17.270 -0.0154 -0.2944 -0.1756
 4483TIP3    H134940   6.226   3.632  17.329 -0.3469  0.7868  1.2904
 4483TIP3    H234941   6.181   3.666  17.188 -2.0775 -1.6635  1.2232
 4484TIP3   OH234942   3.163   2.327   2.035 -0.1548 -0.2187  0.0603
 4484TIP3    H134943   3.118   2.255   1.991 -1.2900  0.4211  0.1380
 4484TIP3    H234944   3.246   2.336   1.988  0.2422 -1.9306  0.4171
 4485TIP3   OH234945   4.371   4.476  13.453  0.7257 -0.1306  0.4915
 4485TIP3    H134946   4.430   4.402  13.468  1.0647 -0.0606 -0.4706
 4485TIP3    H234947   4.382   4.497  13.361 -1.7779 -0.9710 -0.0517
 4486TIP3   OH234948   0.388   5.942   1.499  0.1496  0.2292 -0.0319
 4486TIP3    H134949   0.329   5.873   1.529 -1.4788  1.9872  0.9498
 4486TIP3    H234950   0.332   6.000   1.447  1.1516  1.5773  0.3783
 4487TIP3   OH234951   4.117   5.867  12.157 -0.2847  0.2589 -0.4150
 4487TIP3    H134952   4.108   5.961  12.141 -0.4421  0.0045 -1.9002
 4487TIP3    H234953   4.164   5.861  12.240 -0.9226  1.6468  0.0711
 4488TIP3   OH234954   1.021   3.246  13.967 -0.2884  0.1181 -0.3540
 4488TIP3    H134955   1.101   3.296  13.952  0.2114 -0.0735  1.5334
 4488TIP3    H234956   1.002   3.204  13.883  1.5045  0.2950 -0.8567
 4489TIP3   OH234957   5.754   0.900  17.021  0.5929 -0.3886  0.3667
 4489TIP3    H134958   5.742   0.805  17.021  1.7924 -0.5467  1.3494
 4489TIP3    H234959   5.708   0.930  16.943  0.3791 -1.7998 -0.0571
 4490TIP3   OH234960   2.800   4.201  16.400 -0.2007  0.5066 -0.8397
 4490TIP3    H134961   2.760   4.281  16.435 -0.1994 -0.4434  1.3841
 4490TIP3    H234962   2.784   4.135  16.467  0.9800 -1.0448 -2.0663
 4491TIP3   OH234963   0.671   1.190  16.775  0.2697  0.6516  0.1667
 4491TIP3    H134964   0.596   1.133  16.759  0.5892  0.1320  0.4938
 4491TIP3    H234965   0.663   1.260  16.710  0.5866 -0.4633 -1.0876
 4492TIP3   OH234966   3.935   4.815  11.298 -0.1655 -0.0561  0.6155
 4492TIP3    H134967   3.943   4.724  11.269  2.1578  0.5386 -0.7633
 4492TIP3    H234968   3.845   4.822  11.331 -0.6166 -2.6406  0.0663
 4493TIP3   OH234969   5.242   3.447   2.501  0.1293  0.2200 -0.1029
 4493TIP3    H134970   5.232   3.541   2.515 -0.2083  0.3198 -0.9482
 4493TIP3    H234971   5.327   3.425   2.540  0.2087  0.8741  0.0874
 4494TIP3   OH234972   4.581   6.789  17.239  0.0193 -0.5489 -0.6218
 4494TIP3    H134973   4.511   6.797  17.174 -0.0939 -0.0361 -0.4352
 4494TIP3    H234974   4.567   6.703  17.279 -0.2968 -0.5950 -0.8275
 4495TIP3   OH234975   4.479   2.386  13.280 -0.3594  0.2411 -0.4637
 4495TIP3    H134976   4.438   2.338  13.352  1.5031 -0.7276  0.0095
 4495TIP3    H234977   4.486   2.476  13.312  1.9887 -0.5136  1.3160
 4496TIP3   OH234978   2.145   5.450  12.433 -0.5441 -0.0145  0.4359
 4496TIP3    H134979   2.066   5.466  12.381  1.2613  2.9763 -1.5440
 4496TIP3    H234980   2.196   5.390  12.379  0.5419  1.6985 -0.4905
 4497TIP3   OH234981   6.419   4.646  13.418 -0.2620  0.3610 -0.1697
 4497TIP3    H134982   6.352   4.589  13.381  1.5290 -0.6438 -1.9612
 4497TIP3    H234983   6.449   4.601  13.496 -2.3223  1.2947  1.2096
 4498TIP3   OH234984   5.246   0.001   1.518 -0.0552 -0.1539 -0.1226
 4498TIP3    H134985   5.269   0.026   1.607 -0.9506 -0.8915  0.3256
 4498TIP3    H234986   5.321  -0.048   1.486  0.3169  0.2202  0.1783
 4499TIP3   OH234987   0.383   5.978   0.043  0.4009  0.0063 -0.2329
 4499TIP3    H134988   0.463   5.927   0.050  0.8496  0.6334 -0.6855
 4499TIP3    H234989   0.414   6.068   0.027 -0.4025  0.1505 -0.9763
 4500TIP3   OH234990   0.973   3.926  15.244  0.3301 -0.0942 -0.6585
 4500TIP3    H134991   1.010   3.969  15.167  0.4938 -0.0949 -0.5819
 4500TIP3    H234992   0.987   3.988  15.315  1.3587 -0.6241 -0.3740
 4501TIP3   OH234993   4.355   1.497   2.830 -0.1936 -0.2622 -0.2218
 4501TIP3    H134994   4.287   1.464   2.771 -0.6093  0.9479 -0.4264
 4501TIP3    H234995   4.355   1.435   2.903 -3.5486  1.2889  1.2202
 4502TIP3   OH234996   1.353   3.557   1.971 -0.2089 -0.1351 -0.6060
 4502TIP3    H134997   1.287   3.559   2.040 -1.2049 -0.5846 -1.5143
 4502TIP3    H234998   1.334   3.477   1.922  2.1969 -1.2360  0.2218
 4503TIP3   OH234999   6.585   2.249   1.381 -0.5531  0.1463  0.5645
 4503TIP3    H135000   6.590   2.166   1.333  1.7606  0.6348 -0.1162
 4503TIP3    H235001   6.606   2.316   1.315 -0.0437  1.0705  1.6374
 4504TIP3   OH235002   1.861   4.488   5.687 -0.0712  0.1772  0.0132
 4504TIP3    H135003   1.954   4.506   5.702 -0.5381  1.1796  1.8804
 4504TIP3    H235004   1.859   4.401   5.648  1.6941  0.4492 -0.7186
 4505TIP3   OH235005   5.092   0.148   0.237 -0.2154  0.1043 -0.3189
 4505TIP3    H135006   5.086   0.072   0.179 -1.9183  0.5004 -0.7085
 4505TIP3    H235007   5.074   0.223   0.180 -1.9473  0.4983  0.7090
 4506TIP3   OH235008   6.392   1.102  10.772 -0.7699 -0.2656  0.0577
 4506TIP3    H135009   6.471   1.147  10.741 -1.6322  0.2523 -1.4493
 4506TIP3    H235010   6.387   1.024  10.717 -1.4936 -0.1163 -0.0890
 4507TIP3   OH235011   3.007   0.592   5.862  0.1105  0.6429 -0.2573
 4507TIP3    H135012   3.019   0.654   5.934 -2.9392  1.5758 -0.5075
 4507TIP3    H235013   2.954   0.522   5.899 -0.8357  0.7587 -1.3939
 4508TIP3   OH235014   3.613   6.141   4.631 -0.3027 -0.2878 -0.5536
 4508TIP3    H135015   3.707   6.154   4.624 -0.4183  0.9292  0.1002
 4508TIP3    H235016   3.601   6.046   4.623  1.0144 -0.4908 -0.1728
 4509TIP3   OH235017   0.774   3.326   2.506  0.1996 -0.2410  0.0606
 4509TIP3    H135018   0.738   3.414   2.519  0.4065 -0.2507  0.6906
 4509TIP3    H235019   0.838   3.336   2.436  0.7276  0.2438  0.6131
 4510TIP3   OH235020   1.569   0.856  15.108  0.5557  0.1593 -0.0708
 4510TIP3    H135021   1.584   0.948  15.128  0.6998  0.0846  0.1834
 4510TIP3    H235022   1.598   0.845  15.018  2.4534 -0.0580  0.5268
 4511TIP3   OH235023   3.772   5.345  15.120  0.3966  0.8690  0.0999
 4511TIP3    H135024   3.852   5.327  15.169  0.4834 -2.1923 -1.0545
 4511TIP3    H235025   3.702   5.310  15.175  0.1912  0.3898 -0.4632
 4512TIP3   OH235026   2.831   1.812   1.707 -0.0484  0.0494 -0.1167
 4512TIP3    H135027   2.848   1.738   1.649  0.9763  0.3778 -0.2394
 4512TIP3    H235028   2.916   1.834   1.744 -0.5798  0.2668  1.0042
 4513TIP3   OH235029   2.271   2.237  15.466  0.1483 -0.2714  0.3496
 4513TIP3    H135030   2.249   2.171  15.399  0.5791 -0.8508  0.7705
 4513TIP3    H235031   2.277   2.319  15.418 -0.3044 -0.5533 -0.2007
 4514TIP3   OH235032   5.186   5.686   5.193 -0.1458  0.5243 -0.1739
 4514TIP3    H135033   5.229   5.772   5.187 -2.2646  1.9100  2.7789
 4514TIP3    H235034   5.150   5.671   5.106  1.8771  1.7033 -1.2665
 4515TIP3   OH235035   2.733   3.127  14.553  0.4600 -0.7089  0.0060
 4515TIP3    H135036   2.735   3.218  14.581 -0.7810 -1.0927  1.3836
 4515TIP3    H235037   2.796   3.123  14.480 -1.4417  1.7918 -1.8425
 4516TIP3   OH235038   3.331   1.145   1.788 -0.6342  0.0902 -0.3790
 4516TIP3    H135039   3.319   1.105   1.875  0.4768  0.4699 -0.0542
 4516TIP3    H235040   3.379   1.226   1.804  0.9851 -0.6121 -1.5031
 4517TIP3   OH235041   3.076   5.492   3.894  0.2138  0.2815  0.3048
 4517TIP3    H135042   3.000   5.522   3.844 -0.1356  1.9497  1.7903
 4517TIP3    H235043   3.039   5.458   3.976  0.8949 -1.0688  0.0713
 4518TIP3   OH235044   1.319   1.358   3.544 -0.2327  0.1914 -0.2491
 4518TIP3    H135045   1.234   1.362   3.587 -0.6793  2.9177 -1.2667
 4518TIP3    H235046   1.354   1.447   3.551  2.4976 -0.8358  0.0394
 4519TIP3   OH235047   5.272   3.379  16.823 -0.6113  0.2985  0.0115
 4519TIP3    H135048   5.189   3.411  16.858 -1.0154 -0.4511 -0.2339
 4519TIP3    H235049   5.248   3.304  16.769  0.3018 -0.4763  0.6366
 4520TIP3   OH235050   4.779   0.918  12.396  0.3382  0.3533 -0.4965
 4520TIP3    H135051   4.727   0.981  12.347  1.5158  0.5278 -1.5398
 4520TIP3    H235052   4.796   0.846  12.334 -1.0038 -1.0120  0.6753
 4521TIP3   OH235053   4.701   5.852   2.382 -0.2564 -0.5459  0.2222
 4521TIP3    H135054   4.687   5.837   2.475  0.2799 -0.5755  0.2988
 4521TIP3    H235055   4.648   5.785   2.338 -0.7009 -0.3777  0.4982
 4522TIP3   OH235056   1.606   0.726   4.173  0.0830  0.0339  0.2279
 4522TIP3    H135057   1.616   0.768   4.088  0.0735  1.9085  1.1315
 4522TIP3    H235058   1.688   0.743   4.219 -0.3316 -0.0057  0.9985
 4523TIP3   OH235059   4.032   4.344   3.022  0.5136 -0.7617 -0.0195
 4523TIP3    H135060   4.013   4.311   2.934 -0.6497 -0.1856  0.0022
 4523TIP3    H235061   3.958   4.400   3.043  0.6898 -1.0299  1.4032
 4524TIP3   OH235062   6.523   5.227   5.905 -0.3161 -0.2077  0.1654
 4524TIP3    H135063   6.466   5.248   5.980 -1.1113 -0.9233 -0.2208
 4524TIP3    H235064   6.596   5.179   5.944 -0.4436 -0.0932  0.5568
 4525TIP3   OH235065   0.017   0.906   5.208  0.3172 -0.2192 -0.0954
 4525TIP3    H135066  -0.012   0.865   5.127  2.4246  0.6582 -1.3446
 4525TIP3    H235067   0.046   0.993   5.182  0.8857  0.1213  1.6133
 4526TIP3   OH235068   6.694   2.384   3.772 -0.1122 -0.7240 -0.3588
 4526TIP3    H135069   6.788   2.397   3.762  0.0412 -0.5830  1.0898
 4526TIP3    H235070   6.654   2.444   3.709  0.7813 -2.2442 -2.4310
 4527TIP3   OH235071   0.630   3.064  12.619 -0.0086  0.1446 -0.0131
 4527TIP3    H135072   0.591   2.988  12.662  2.0029  0.4013  2.4460
 4527TIP3    H235073   0.580   3.076  12.539 -3.1251 -1.1644  1.6556
 4528TIP3   OH235074   0.554   6.165  16.923 -0.0346  0.9633  0.2293
 4528TIP3    H135075   0.598   6.118  16.994 -1.9273 -1.5304 -0.1815
 4528TIP3    H235076   0.525   6.247  16.963  0.6977  0.4830  1.7925
 4529TIP3   OH235077   6.181   5.581   1.081  0.0035  0.2415 -0.3260
 4529TIP3    H135078   6.139   5.579   0.995  0.5371  0.3207 -0.5913
 4529TIP3    H235079   6.207   5.490   1.098  2.3181  0.6413 -1.4650
 4530TIP3   OH235080   3.302   2.349  11.104 -0.4030  0.1941 -0.1584
 4530TIP3    H135081   3.306   2.255  11.085 -2.4246  0.1584 -0.5729
 4530TIP3    H235082   3.382   2.385  11.067 -0.5522 -1.0730 -1.7532
 4531TIP3   OH235083   5.705   2.142   5.395  0.4210 -0.7020  1.0595
 4531TIP3    H135084   5.775   2.204   5.414  0.7962 -0.9203  0.3987
 4531TIP3    H235085   5.649   2.144   5.473  0.9490 -0.2433  1.4271
 4532TIP3   OH235086   4.282   0.090   3.135  0.8233  0.2989 -0.0535
 4532TIP3    H135087   4.267   0.003   3.172  0.2045  0.2021 -0.5348
 4532TIP3    H235088   4.290   0.076   3.041  2.0500  0.5931  0.0003
 4533TIP3   OH235089   6.604   4.282   3.897 -0.8674 -0.1889 -0.1657
 4533TIP3    H135090   6.628   4.305   3.987  1.2209 -0.8651 -0.5079
 4533TIP3    H235091   6.661   4.337   3.843  2.0302 -3.8383 -1.0102
 4534TIP3   OH235092   0.036   4.323  11.488 -0.4584  0.0371  0.1557
 4534TIP3    H135093   0.085   4.241  11.489  0.1923  0.3971 -0.9065
 4534TIP3    H235094   0.008   4.336  11.578  2.1710  0.2528  0.9921
 4535TIP3   OH235095   4.063   5.182   1.267 -0.1633  0.3453  0.2577
 4535TIP3    H135096   4.138   5.140   1.308  0.5126  0.2287 -1.0537
 4535TIP3    H235097   3.987   5.138   1.304  0.4808 -0.9258  0.0971
 4536TIP3   OH235098   4.770   5.977  11.625  0.2736  0.2225 -1.0276
 4536TIP3    H135099   4.745   5.924  11.548  0.7608 -1.7039  0.1039
 4536TIP3    H235100   4.865   5.977  11.624  0.2752  0.8630 -0.8691
 4537TIP3   OH235101   4.404   1.148  12.550  0.7848 -0.0823  0.4444
 4537TIP3    H135102   4.357   1.177  12.472  2.4620  1.5103 -0.0162
 4537TIP3    H235103   4.341   1.161  12.622 -0.3247 -0.3623 -0.4680
 4538TIP3   OH235104   5.119   1.656   1.528  0.0786  0.3962  0.3545
 4538TIP3    H135105   5.035   1.647   1.483  0.6454 -1.8858 -0.3504
 4538TIP3    H235106   5.106   1.614   1.613  0.7982 -1.0022 -0.2012
 4539TIP3   OH235107   3.593   1.177  14.771 -0.3561 -0.1795  0.3867
 4539TIP3    H135108   3.670   1.178  14.827 -2.1048  1.3796  2.8473
 4539TIP3    H235109   3.553   1.264  14.783 -0.9376  0.1199 -3.0903
 4540TIP3   OH235110   1.474   1.916  12.779 -0.8160  0.1017  0.2425
 4540TIP3    H135111   1.490   1.852  12.709 -0.7381  0.3927 -0.0102
 4540TIP3    H235112   1.554   1.969  12.780 -1.7256  1.5384 -0.9866
 4541TIP3   OH235113   6.133   5.994   2.331  0.3479  0.3914  0.5401
 4541TIP3    H135114   6.129   5.988   2.426  0.2899 -0.5668  0.4743
 4541TIP3    H235115   6.115   6.087   2.312  0.6620  0.6382  1.4712
 4542TIP3   OH235116   3.429   5.346   0.027  0.0587  0.1828  0.2526
 4542TIP3    H135117   3.444   5.277   0.092  4.2050  0.5052 -0.1903
 4542TIP3    H235118   3.393   5.419   0.077  0.2124 -0.6578  1.6182
 4543TIP3   OH235119   0.996   0.200  13.989 -0.0459  0.2949 -0.0653
 4543TIP3    H135120   1.082   0.202  13.946  0.6156 -0.1178  1.2066
 4543TIP3    H235121   0.964   0.111  13.975  2.0381 -1.1551  3.8254
 4544TIP3   OH235122   0.317   3.261  16.394  0.3648 -0.2435 -0.0263
 4544TIP3    H135123   0.386   3.255  16.328 -0.7399  1.8145 -1.4201
 4544TIP3    H235124   0.364   3.279  16.476  1.5200  0.7964 -0.8909
 4545TIP3   OH235125   0.797   4.619  11.615 -0.3083 -0.7986  0.1729
 4545TIP3    H135126   0.707   4.593  11.593  0.7269 -3.1230 -1.5202
 4545TIP3    H235127   0.805   4.708  11.583 -1.8663 -0.7465 -0.1282
 4546TIP3   OH235128   1.100   0.227   2.401 -0.8017 -0.7769 -0.2196
 4546TIP3    H135129   1.066   0.257   2.485 -0.3947 -3.4012  0.9534
 4546TIP3    H235130   1.030   0.173   2.364  0.2069 -2.2116 -0.0715
 4547TIP3   OH235131   2.331   3.860   2.234  0.5036 -0.1227  0.7059
 4547TIP3    H135132   2.358   3.774   2.201  1.5262  0.0380  1.1046
 4547TIP3    H235133   2.238   3.852   2.250  0.4761 -0.9676  0.1358
 4548TIP3   OH235134   0.964   6.657   0.228 -0.0555 -0.7415  0.1062
 4548TIP3    H135135   0.994   6.746   0.210 -1.2674 -0.7477 -2.0966
 4548TIP3    H235136   1.044   6.605   0.229  0.4938  0.0745 -0.4579
 4549TIP3   OH235137   2.335   2.359   5.512  0.2659  0.1219 -0.7190
 4549TIP3    H135138   2.316   2.277   5.558 -0.9786  0.9642  0.3054
 4549TIP3    H235139   2.419   2.387   5.548  0.4079 -0.3947 -0.6365
 4550TIP3   OH235140   2.488   1.996   2.049 -0.7806  0.1762  0.7596
 4550TIP3    H135141   2.517   2.078   2.009  0.0103 -0.4000  0.1429
 4550TIP3    H235142   2.537   1.928   2.003 -0.3684 -0.5494  2.2193
 4551TIP3   OH235143   4.511   4.756   0.413  0.1787 -0.1369 -0.0398
 4551TIP3    H135144   4.575   4.689   0.437 -0.4367 -0.9449 -0.6257
 4551TIP3    H235145   4.496   4.741   0.319 -0.6467  0.2287  0.0319
 4552TIP3   OH235146   5.699   3.695  11.156  0.1917 -0.5990  0.0540
 4552TIP3    H135147   5.784   3.693  11.200 -0.0403  0.0762  0.5322
 4552TIP3    H235148   5.708   3.634  11.083  1.3457  0.0722 -0.3707
 4553TIP3   OH235149   3.736   5.162  13.246 -0.4039  0.5258 -0.1197
 4553TIP3    H135150   3.742   5.215  13.167 -0.9799  0.2798 -0.3234
 4553TIP3    H235151   3.802   5.200  13.305  0.5397  0.2373 -0.9795
 4554TIP3   OH235152   4.940   3.453   0.155 -0.4983  0.0523  0.0498
 4554TIP3    H135153   4.935   3.396   0.232 -0.4361 -0.0261 -0.0039
 4554TIP3    H235154   4.875   3.417   0.095 -0.2234 -0.1663 -0.1185
 4555TIP3   OH235155   5.922   1.464  11.662 -0.5799  0.3824 -0.0836
 4555TIP3    H135156   5.869   1.442  11.585  0.1030 -0.5938 -0.2801
 4555TIP3    H235157   5.980   1.535  11.631 -0.1934 -0.1190 -0.5230
 4556TIP3   OH235158   4.210   3.927  15.015  0.4515 -0.3041  0.2787
 4556TIP3    H135159   4.263   3.866  15.066 -1.5304 -1.1329  1.4031
 4556TIP3    H235160   4.148   3.871  14.967  0.0903  0.6898 -0.4388
 4557TIP3   OH235161   6.188   1.486   4.008  0.4136 -0.2478  0.9193
 4557TIP3    H135162   6.094   1.503   4.016  0.4531  0.2234  0.4583
 4557TIP3    H235163   6.230   1.557   4.057  0.5658  0.5991 -0.4108
 4558TIP3   OH235164   5.238   1.982   4.078  0.0320 -0.4192  0.3601
 4558TIP3    H135165   5.150   1.947   4.089 -0.4074  0.5971  0.1381
 4558TIP3    H235166   5.227   2.056   4.019  0.9890 -0.0713  0.6086
 4559TIP3   OH235167   6.116   3.690  14.470  0.2537  0.1072 -0.1634
 4559TIP3    H135168   6.061   3.619  14.503 -0.6078  1.1593  0.7032
 4559TIP3    H235169   6.203   3.671  14.504  0.4559 -1.5583 -1.5131
 4560TIP3   OH235170   3.080   0.584   3.217  0.3097  0.4319  0.1519
 4560TIP3    H135171   3.032   0.529   3.156  1.1140 -1.1010  0.8665
 4560TIP3    H235172   3.080   0.535   3.299  1.6135  1.1772  0.6229
 4561TIP3   OH235173   5.405   4.469  11.672  0.6040  0.1615  0.0258
 4561TIP3    H135174   5.435   4.551  11.633  1.2903  0.0065  0.2106
 4561TIP3    H235175   5.359   4.424  11.601  2.2105 -0.3093 -0.7554
 4562TIP3   OH235176   0.030   1.045  14.194 -0.6519  0.1755 -0.3740
 4562TIP3    H135177  -0.005   1.018  14.109 -3.1228 -0.8328  0.9237
 4562TIP3    H235178  -0.046   1.075  14.243  0.8429  1.3638  1.2793
 4563TIP3   OH235179   0.636   2.617   0.142  0.1097 -0.3212 -0.8660
 4563TIP3    H135180   0.587   2.668   0.077 -1.2543 -0.7792 -0.2291
 4563TIP3    H235181   0.617   2.660   0.225 -0.1509 -1.1998 -0.4665
 4564TIP3   OH235182   2.173   1.903  16.892  0.1233  0.0251 -0.1907
 4564TIP3    H135183   2.262   1.905  16.856  0.6226  1.8154  1.1178
 4564TIP3    H235184   2.161   1.989  16.931 -1.0393 -1.2767  2.3968
 4565TIP3   OH235185   0.254   5.582   4.832 -0.2939  0.3159 -0.0398
 4565TIP3    H135186   0.276   5.566   4.740 -1.3380  1.7328 -0.5547
 4565TIP3    H235187   0.285   5.671   4.849 -0.1664  0.0871  0.9564
 4566TIP3   OH235188   0.400   2.225   5.534 -0.8965  0.6756  0.0169
 4566TIP3    H135189   0.356   2.144   5.509 -0.5262  0.3397  0.4664
 4566TIP3    H235190   0.329   2.290   5.538 -1.0641  0.5864 -1.2315
 4567TIP3   OH235191   4.653   0.155   0.206  0.4529  0.0445  0.2086
 4567TIP3    H135192   4.628   0.113   0.288 -2.2794  1.1249 -0.0018
 4567TIP3    H235193   4.620   0.096   0.138  2.0171 -0.4563 -0.1394
 4568TIP3   OH235194   6.806   5.385   4.847  0.6166  0.0038  0.2808
 4568TIP3    H135195   6.720   5.346   4.834  0.5981 -0.6323  2.0975
 4568TIP3    H235196   6.834   5.353   4.933  1.7457  1.8850  0.6511
 4569TIP3   OH235197   3.066   2.985   0.965  0.0630 -0.7253  0.0547
 4569TIP3    H135198   2.990   2.927   0.966 -0.2625 -0.3569 -1.4043
 4569TIP3    H235199   3.126   2.949   1.030 -0.7096 -1.9198  0.1022
 4570TIP3   OH235200   0.362   0.790   1.506 -0.2450  0.2723 -0.3140
 4570TIP3    H135201   0.270   0.817   1.509  0.1357  1.5548  0.2243
 4570TIP3    H235202   0.409   0.862   1.546  0.8660 -1.0184  0.7499
 4571TIP3   OH235203   4.508   5.557   5.310  0.1658  0.7733  0.1760
 4571TIP3    H135204   4.547   5.537   5.394  0.1406 -0.5152 -0.1147
 4571TIP3    H235205   4.437   5.618   5.331 -0.9506 -0.8725  1.2991
 4572TIP3   OH235206   6.054   1.187   1.256 -0.0352 -0.0062 -0.1036
 4572TIP3    H135207   5.964   1.199   1.286  0.5042 -0.1889  1.6236
 4572TIP3    H235208   6.101   1.263   1.290  1.0044 -1.2152  1.2516
 4573TIP3   OH235209   0.600   2.875  11.596  0.1629 -0.0294  0.5856
 4573TIP3    H135210   0.593   2.963  11.633  0.0234  0.6320 -0.9608
 4573TIP3    H235211   0.576   2.886  11.504  1.2882 -1.4780  0.0988
 4574TIP3   OH235212   4.664   5.311  10.500  0.1958  0.1341  0.1186
 4574TIP3    H135213   4.600   5.378  10.476  0.0957 -0.2129 -0.5777
 4574TIP3    H235214   4.613   5.231  10.509  0.5851 -0.2222 -0.8070
 4575TIP3   OH235215   6.337   6.817  15.430  0.1310 -0.2500  0.4583
 4575TIP3    H135216   6.263   6.777  15.384  0.2015  1.1655 -0.9175
 4575TIP3    H235217   6.408   6.753  15.420  0.8001  0.9294 -3.3639
 4576TIP3   OH235218   6.773   3.825   4.560 -0.1554 -0.4254  0.1522
 4576TIP3    H135219   6.717   3.902   4.570 -0.8568 -0.9180  0.0492
 4576TIP3    H235220   6.794   3.823   4.467 -2.0776 -1.6832 -0.2950
 4577TIP3   OH235221   3.505   2.413   3.570  0.9358  0.1941  0.2398
 4577TIP3    H135222   3.579   2.471   3.552  1.4786 -0.3533  0.6861
 4577TIP3    H235223   3.456   2.457   3.639  1.9633 -0.4026  1.3643
 4578TIP3   OH235224   4.904   5.416  16.774 -0.2510  0.4362  0.2384
 4578TIP3    H135225   4.867   5.387  16.857  0.6596 -1.1513  0.1157
 4578TIP3    H235226   4.864   5.359  16.709  2.1263 -1.1169  0.0785
 4579TIP3   OH235227   2.286   4.396   3.600  0.2466 -0.3782  0.1189
 4579TIP3    H135228   2.374   4.360   3.595  1.1652  1.7805  0.0828
 4579TIP3    H235229   2.276   4.424   3.691  0.0295  0.3975 -0.1390
 4580TIP3   OH235230   6.170   1.004   1.100  0.1101 -0.0550  0.3749
 4580TIP3    H135231   6.263   0.995   1.122  0.3472  0.3082 -0.4678
 4580TIP3    H235232   6.136   1.064   1.165 -0.0393 -1.9177  2.0783
 4581TIP3   OH235233   3.631   0.191   5.005 -0.4864  0.0659 -0.5591
 4581TIP3    H135234   3.623   0.231   5.092  0.4450  0.1239 -0.5007
 4581TIP3    H235235   3.543   0.196   4.968 -0.5320  1.4835 -0.2511
 4582TIP3   OH235236   3.913   0.793   5.444 -0.2522 -0.3188 -0.1822
 4582TIP3    H135237   3.841   0.759   5.497  0.2952 -0.8904  0.2085
 4582TIP3    H235238   3.992   0.759   5.487  0.2076 -0.5711 -1.2164
 4583TIP3   OH235239   1.676   0.763  10.863  0.2716 -0.0262  0.4486
 4583TIP3    H135240   1.746   0.730  10.807  1.9498 -0.1897  2.5691
 4583TIP3    H235241   1.598   0.764  10.807  1.7300 -0.8847 -1.6360
 4584TIP3   OH235242   3.198   0.021   2.963  0.3375  0.5068 -0.3392
 4584TIP3    H135243   3.186  -0.011   2.874  0.0453  1.6553 -0.7261
 4584TIP3    H235244   3.244   0.105   2.953  0.4869  0.5509  0.5976
 4585TIP3   OH235245   5.704   4.076   2.793  0.7813 -0.3998 -0.2930
 4585TIP3    H135246   5.616   4.038   2.802  0.4302  0.2979 -0.7176
 4585TIP3    H235247   5.690   4.171   2.799  1.7210 -0.3547  1.3109
 4586TIP3   OH235248   4.977   0.611   5.475  0.0661 -0.4504  0.7621
 4586TIP3    H135249   4.975   0.677   5.544 -3.0147  1.6658 -1.1971
 4586TIP3    H235250   4.892   0.567   5.481  0.6336 -1.7361 -0.2643
 4587TIP3   OH235251   6.384   6.226  12.486 -1.0031  0.1465  0.3612
 4587TIP3    H135252   6.365   6.301  12.542 -1.1543  0.6570 -0.3666
 4587TIP3    H235253   6.322   6.159  12.514 -0.8324  0.2741  1.0503
 4588TIP3   OH235254   1.624   0.821   6.078  0.4177  0.3192 -0.5221
 4588TIP3    H135255   1.667   0.906   6.067 -0.7156  0.9426 -0.2312
 4588TIP3    H235256   1.670   0.763   6.017  0.9260  1.2391 -1.0328
 4589TIP3   OH235257   4.304   2.386   1.095 -0.2054 -0.0931  0.2414
 4589TIP3    H135258   4.398   2.384   1.081 -0.3710  0.6585 -1.0138
 4589TIP3    H235259   4.271   2.305   1.056 -0.1895  0.0552 -0.0742
 4590TIP3   OH235260   3.484   0.682   2.596 -0.1598  0.4912 -0.3750
 4590TIP3    H135261   3.564   0.641   2.630 -0.6142  0.4115  0.5993
 4590TIP3    H235262   3.460   0.628   2.520  1.1868  1.0234 -1.1931
 4591TIP3   OH235263   6.694   5.991  13.175 -0.5210  0.2264  0.0583
 4591TIP3    H135264   6.702   6.052  13.249  0.8351  0.9476 -0.6590
 4591TIP3    H235265   6.778   5.997  13.130 -1.1157 -0.6675 -1.2009
 4592TIP3   OH235266   2.361   0.732  15.388  0.6552  0.2989  0.7334
 4592TIP3    H135267   2.403   0.749  15.472 -0.2076  1.7691  0.8665
 4592TIP3    H235268   2.351   0.818  15.348 -0.1133 -0.2733 -0.3169
 4593TIP3   OH235269   0.854   3.342  16.001 -0.2005 -0.0843  0.5179
 4593TIP3    H135270   0.927   3.312  15.946  0.6148  2.4037  0.1513
 4593TIP3    H235271   0.897   3.382  16.077 -1.1933  0.8047  0.6186
 4594TIP3   OH235272   1.763   0.629  14.984  0.2185  0.1987  0.1980
 4594TIP3    H135273   1.696   0.593  15.041 -1.3695  1.5069 -0.8145
 4594TIP3    H235274   1.755   0.580  14.902 -1.6918  2.4973 -1.0461
 4595TIP3   OH235275   0.302   4.983   1.361  0.2033 -0.1788  0.1578
 4595TIP3    H135276   0.388   5.026   1.354  0.7128 -1.0940  0.7631
 4595TIP3    H235277   0.290   4.941   1.276  0.2134  0.2045 -0.0375
 4596TIP3   OH235278   5.637   5.966   5.819 -0.4562 -0.0553  0.5942
 4596TIP3    H135279   5.694   5.903   5.865 -1.6051  0.1725  2.3862
 4596TIP3    H235280   5.694   6.040   5.799 -0.1859  0.3338  2.7155
 4597TIP3   OH235281   4.668   4.424  16.582 -0.5157 -0.3757  0.2506
 4597TIP3    H135282   4.616   4.368  16.639 -2.1294  0.7305 -0.0854
 4597TIP3    H235283   4.637   4.404  16.494 -2.6522  2.5217  0.2733
 4598TIP3   OH235284   6.770   1.953  10.977  0.0632 -0.0383  0.4384
 4598TIP3    H135285   6.824   1.922  10.904  0.7896  0.0395  0.9387
 4598TIP3    H235286   6.740   2.039  10.949 -2.2491 -1.3076 -1.1040
 4599TIP3   OH235287   5.034   2.047  11.874 -0.1598 -0.6578 -0.3317
 4599TIP3    H135288   4.993   2.085  11.951 -1.4773 -0.7337 -0.9824
 4599TIP3    H235289   4.967   1.989  11.837  0.2533 -0.2149 -1.8226
 4600TIP3   OH235290   3.663   1.961  12.181  0.0982 -0.2139  0.3677
 4600TIP3    H135291   3.631   2.038  12.227  0.0416 -0.1769  0.2684
 4600TIP3    H235292   3.583   1.911  12.161  0.2276 -0.8781  1.4622
 4601TIP3   OH235293   6.137   2.612  10.575  0.3078  0.3096  0.5038
 4601TIP3    H135294   6.064   2.591  10.633 -0.9676 -0.6744 -1.4229
 4601TIP3    H235295   6.209   2.557  10.606 -0.5894 -0.7854  0.6525
 4602TIP3   OH235296   5.703   2.094   1.567 -0.6887 -0.2046 -0.3189
 4602TIP3    H135297   5.784   2.051   1.593 -2.0643 -1.9687  1.2109
 4602TIP3    H235298   5.685   2.157   1.637 -0.7978 -0.0335 -0.4987
 4603TIP3   OH235299   5.344   2.218   4.434  0.3536 -0.1192 -0.6635
 4603TIP3    H135300   5.324   2.124   4.429 -1.3913  0.2581 -1.1981
 4603TIP3    H235301   5.378   2.239   4.347 -1.7848  0.2791 -1.4249
 4604TIP3   OH235302   1.081   4.845  16.566  0.1406 -0.5896  0.3925
 4604TIP3    H135303   1.057   4.925  16.614 -0.0993 -0.7330  0.5059
 4604TIP3    H235304   1.097   4.780  16.635 -0.5493 -0.8960  0.2654
 4605TIP3   OH235305   3.257   4.070   2.606  0.7524  0.1322 -0.0224
 4605TIP3    H135306   3.266   3.976   2.621  0.9763  0.2929  0.8799
 4605TIP3    H235307   3.222   4.077   2.517  1.7991 -0.7730 -0.5189
 4606TIP3   OH235308   1.719   5.373  13.767  0.1480  0.2284  0.1921
 4606TIP3    H135309   1.810   5.362  13.795  1.0592  1.7082 -2.0046
 4606TIP3    H235310   1.702   5.298  13.709  0.8451  1.3024 -1.4400
 4607TIP3   OH235311   4.665   1.014  11.250 -0.1733 -0.2819  0.4822
 4607TIP3    H135312   4.633   0.980  11.166  0.4455  2.3354 -0.8627
 4607TIP3    H235313   4.635   0.950  11.314  0.1072 -2.8343 -1.8176
 4608TIP3   OH235314   5.662   0.720   1.205  0.4255 -0.0754 -0.0553
 4608TIP3    H135315   5.741   0.690   1.161 -0.5899 -2.4412 -0.3629
 4608TIP3    H235316   5.691   0.792   1.261  2.5275  0.0132 -1.1998
 4609TIP3   OH235317   3.830   3.047  14.175  0.1301  0.1126 -0.9857
 4609TIP3    H135318   3.763   3.041  14.243  1.3209 -2.3625  0.0139
 4609TIP3    H235319   3.784   3.081  14.099 -1.2654  2.8762  0.9813
 4610TIP3   OH235320   4.018   5.971   5.386 -0.2959 -0.2006 -0.2834
 4610TIP3    H135321   3.973   6.048   5.353 -0.6488 -0.1759  0.2322
 4610TIP3    H235322   4.074   5.942   5.314  0.9478  1.3776  0.0308
 4611TIP3   OH235323   3.951   3.398   3.964 -0.2545 -0.6611  0.1435
 4611TIP3    H135324   3.930   3.325   4.022 -0.1158 -1.1429 -0.4042
 4611TIP3    H235325   3.882   3.397   3.897 -0.5577  0.0483  0.4429
 4612TIP3   OH235326   4.159   3.680   4.193  0.3340 -0.2875 -0.0707
 4612TIP3    H135327   4.168   3.653   4.101 -0.5654 -0.3551 -0.1366
 4612TIP3    H235328   4.100   3.615   4.231 -2.1896  1.7781 -0.3166
 4613TIP3   OH235329   1.858   0.125  14.863  0.0204 -0.2818 -0.4119
 4613TIP3    H135330   1.934   0.067  14.867  0.9086  0.7853 -1.4253
 4613TIP3    H235331   1.807   0.102  14.941  1.8253 -0.4220  0.7807
 4614TIP3   OH235332   5.763   2.204   1.310 -0.4103 -0.0589 -0.3170
 4614TIP3    H135333   5.767   2.108   1.306 -1.1647 -0.2432  2.1843
 4614TIP3    H235334   5.720   2.222   1.394 -3.3048  2.4221 -2.2251
 4615TIP3   OH235335   3.726   0.246  15.184  0.5591  0.4298  0.2148
 4615TIP3    H135336   3.652   0.281  15.233  1.2008 -0.4048  1.8235
 4615TIP3    H235337   3.760   0.321  15.135 -1.7263  0.6736 -1.0745
 4616TIP3   OH235338   5.694   3.192   4.215 -0.6584 -0.8418 -0.2884
 4616TIP3    H135339   5.612   3.145   4.196 -2.0729  2.2332 -2.3018
 4616TIP3    H235340   5.679   3.233   4.300 -0.5709 -1.6401  0.1113
 4617TIP3   OH235341   2.045   2.005  13.156 -0.5239 -0.3051  0.0889
 4617TIP3    H135342   2.033   2.001  13.251 -0.4706  1.2506  0.1871
 4617TIP3    H235343   2.131   1.966  13.141 -1.0430 -1.6334  0.5545
 4618TIP3   OH235344   5.911   4.681   6.035  0.4465 -0.2801  0.2256
 4618TIP3    H135345   5.917   4.591   6.002  1.0028  0.4447 -1.7135
 4618TIP3    H235346   5.999   4.716   6.023  0.7590 -0.0645  2.8110
 4619TIP3   OH235347   6.709   3.904  10.427 -0.2061 -0.2290 -0.2966
 4619TIP3    H135348   6.718   3.986  10.475  0.2850  0.1897 -1.0907
 4619TIP3    H235349   6.624   3.869  10.455  1.0453 -1.1350  2.5711
 4620TIP3   OH235350   2.706   3.106  14.136 -0.4613 -0.0759 -0.0950
 4620TIP3    H135351   2.673   3.140  14.053 -0.4243 -1.0092 -0.4978
 4620TIP3    H235352   2.726   3.014  14.118  1.0765  0.1337  0.5122
 4621TIP3   OH235353   3.779   3.537   3.614  0.0069 -0.3443 -0.1723
 4621TIP3    H135354   3.746   3.583   3.691 -1.1885 -2.3239  0.5345
 4621TIP3    H235355   3.728   3.455   3.611  1.3247 -1.1315 -1.9979
 4622TIP3   OH235356   2.560   0.605   1.306  0.1551  0.5735 -0.4302
 4622TIP3    H135357   2.618   0.540   1.266 -0.6105  0.5553 -1.5478
 4622TIP3    H235358   2.478   0.597   1.258  0.0294  2.3474 -0.5703
 4623TIP3   OH235359   0.845   3.532  11.049  0.1150  0.6450  0.2918
 4623TIP3    H135360   0.823   3.441  11.029 -0.3219  0.9080 -0.4342
 4623TIP3    H235361   0.919   3.551  10.992 -1.1985  1.4287 -1.1844
 4624TIP3   OH235362   0.014   2.734   3.029  0.5234  0.5407  0.4359
 4624TIP3    H135363  -0.042   2.787   3.087 -0.2073 -0.3523  0.5629
 4624TIP3    H235364   0.099   2.777   3.033 -0.0149  1.6255  0.6563
 4625TIP3   OH235365   5.235   5.796  14.125 -0.1544 -0.3234  0.0518
 4625TIP3    H135366   5.222   5.843  14.043 -1.6703 -0.6367  0.1106
 4625TIP3    H235367   5.323   5.821  14.153  0.1687  0.1981 -1.3915
 4626TIP3   OH235368   1.209   3.368   2.770  0.2271 -0.3736 -0.2105
 4626TIP3    H135369   1.187   3.424   2.696  1.1328 -1.0596 -1.0129
 4626TIP3    H235370   1.262   3.298   2.732  2.6422  0.5068  1.4295
 4627TIP3   OH235371   4.908   0.301   2.342  0.2249  0.5378 -0.1182
 4627TIP3    H135372   4.956   0.338   2.268  0.1438  0.7454 -0.0685
 4627TIP3    H235373   4.905   0.372   2.406 -1.4971  1.0428 -0.7466
 4628TIP3   OH235374   4.129   1.176  16.895  0.5253 -0.9533  0.1697
 4628TIP3    H135375   4.067   1.155  16.965  0.2259 -1.3017 -0.1959
 4628TIP3    H235376   4.186   1.099  16.889  0.5533 -0.9229  0.0308
 4629TIP3   OH235377   1.170   2.909   0.313 -0.2430  0.0033  0.8719
 4629TIP3    H135378   1.227   2.832   0.305 -0.9184 -0.3397 -0.8545
 4629TIP3    H235379   1.088   2.883   0.272 -0.7693  1.3665  1.0206
 4630TIP3   OH235380   3.647   6.348  12.908 -0.1045 -0.1517  0.0668
 4630TIP3    H135381   3.580   6.282  12.889 -2.0089  1.9537 -0.7615
 4630TIP3    H235382   3.694   6.358  12.826 -2.7411  2.7006 -1.1909
 4631TIP3   OH235383   4.783   2.522  13.868  0.1799  0.2871 -0.0595
 4631TIP3    H135384   4.842   2.536  13.794  0.6083 -0.8216  0.0582
 4631TIP3    H235385   4.700   2.499  13.828  0.4358 -0.4072 -0.2023
 4632TIP3   OH235386   4.148   2.077   2.021  0.0517  0.0066 -0.7330
 4632TIP3    H135387   4.222   2.128   1.988  1.0836 -0.9500  0.0707
 4632TIP3    H235388   4.129   2.114   2.107  0.6988 -0.8558 -0.2159
 4633TIP3   OH235389   6.701   3.697   1.146  0.0462 -0.2283  0.9469
 4633TIP3    H135390   6.643   3.736   1.210  0.1372 -0.9192  1.4629
 4633TIP3    H235391   6.717   3.766   1.082 -0.2201  0.3990  1.5509
 4634TIP3   OH235392   6.734   3.035   1.248 -0.7421  0.5747 -0.1503
 4634TIP3    H135393   6.823   3.013   1.278 -0.7170 -1.0159 -1.3398
 4634TIP3    H235394   6.744   3.120   1.205  0.2262  0.3643 -0.3652
 4635TIP3   OH235395   4.924   1.536  12.602 -0.2821 -0.4134 -0.7822
 4635TIP3    H135396   4.999   1.542  12.543 -0.4598 -1.1627 -1.0895
 4635TIP3    H235397   4.934   1.611  12.661  2.8532 -2.5731  1.6496
 4636TIP3   OH235398   5.113   5.806  11.820 -0.5067  0.1219 -0.6168
 4636TIP3    H135399   5.111   5.877  11.883  1.7688 -1.9447  1.8735
 4636TIP3    H235400   5.028   5.763  11.829 -0.2947  0.0090  0.8621
 4637TIP3   OH235401   3.276   3.690   5.717  0.0486 -0.5007 -0.3913
 4637TIP3    H135402   3.209   3.738   5.767  0.7488 -1.7294  1.8194
 4637TIP3    H235403   3.333   3.758   5.682  0.2762  0.3701  1.5920
 4638TIP3   OH235404   3.263   6.174  12.091 -0.0519  0.3626 -0.2630
 4638TIP3    H135405   3.177   6.133  12.083  0.0428  0.1585 -0.2549
 4638TIP3    H235406   3.316   6.133  12.022 -0.1623  1.0151 -0.7389
 4639TIP3   OH235407   1.206   5.809   3.568 -0.0925  0.2488 -0.0127
 4639TIP3    H135408   1.182   5.717   3.558  0.5707  0.1580 -0.8923
 4639TIP3    H235409   1.194   5.827   3.661 -0.2232 -0.7326  0.1682
 4640TIP3   OH235410   1.448   2.988   6.546  0.0314  0.5721  0.1150
 4640TIP3    H135411   1.485   3.016   6.463 -1.1682  3.3789  0.4574
 4640TIP3    H235412   1.515   2.932   6.585  1.7396  1.4308 -1.5128
 4641TIP3   OH235413   1.903   4.039   1.823  0.6322 -0.3715  0.1730
 4641TIP3    H135414   1.861   3.964   1.780  0.0487 -1.2034  2.0824
 4641TIP3    H235415   1.855   4.115   1.791  0.1756 -0.9722 -0.5981
 4642TIP3   OH235416   0.632   5.301   2.364 -0.0093 -0.1100 -0.0914
 4642TIP3    H135417   0.724   5.320   2.347  0.5236 -0.0667  2.6204
 4642TIP3    H235418   0.603   5.371   2.423 -1.2885 -1.0876  0.4818
 4643TIP3   OH235419   3.090   0.224  16.585  0.3481 -0.3088 -0.6322
 4643TIP3    H135420   3.148   0.177  16.524 -0.7319 -0.6272 -1.4192
 4643TIP3    H235421   3.057   0.298  16.534 -2.3988 -1.8756 -1.2094
 4644TIP3   OH235422   5.828   2.281  13.613  0.1985  0.2537 -0.1738
 4644TIP3    H135423   5.865   2.292  13.525 -0.6573 -1.7810 -0.8178
 4644TIP3    H235424   5.901   2.253  13.667  0.9676  2.5547  0.0309
 4645TIP3   OH235425   3.083   2.011  16.630  0.3811 -0.4127  0.1802
 4645TIP3    H135426   3.139   1.981  16.701 -0.0914  0.3038  0.8724
 4645TIP3    H235427   3.124   1.976  16.550  0.5438 -1.7755  0.8512
 4646TIP3   OH235428   3.181   2.564  15.088  0.0061 -0.1907 -0.2855
 4646TIP3    H135429   3.176   2.595  15.178 -0.9573 -0.0184 -0.3867
 4646TIP3    H235430   3.090   2.544  15.065  0.1838  0.1823 -1.3490
 4647TIP3   OH235431   1.473   4.190   3.694 -0.7321  0.6951 -0.0864
 4647TIP3    H135432   1.501   4.243   3.769 -0.6750  2.0522 -1.0378
 4647TIP3    H235433   1.421   4.250   3.641 -0.6332 -0.2035 -1.2182
 4648TIP3   OH235434   0.465   3.441   4.205  0.3517 -0.0690 -0.2547
 4648TIP3    H135435   0.560   3.456   4.204  0.2599  0.5218 -0.8194
 4648TIP3    H235436   0.428   3.523   4.236 -0.0128 -0.0779 -0.6597
 4649TIP3   OH235437   5.605   1.704  13.248 -0.5753  0.0457  0.1426
 4649TIP3    H135438   5.658   1.642  13.199  0.1765  0.7079  0.1136
 4649TIP3    H235439   5.533   1.726  13.189 -0.7653 -0.6750  0.0991
 4650TIP3   OH235440   3.326   0.198  13.965  0.3732  0.6101  0.5991
 4650TIP3    H135441   3.272   0.277  13.968 -0.3656  0.2863 -2.2903
 4650TIP3    H235442   3.416   0.230  13.955  0.1914  1.1112  0.5538
 4651TIP3   OH235443   1.922   6.764   3.586 -0.1830 -0.2890  0.2301
 4651TIP3    H135444   1.875   6.684   3.608 -2.4153  0.9164  0.0216
 4651TIP3    H235445   1.905   6.823   3.659  0.1041  0.5439 -0.3625
 4652TIP3   OH235446   6.553   1.618   3.568  0.4467 -0.1828  0.3271
 4652TIP3    H135447   6.612   1.555   3.609  5.0940  2.2626 -2.2157
 4652TIP3    H235448   6.527   1.576   3.486 -1.9595 -1.5160  1.7267
 4653TIP3   OH235449   0.352   5.521   3.511 -0.3336 -0.1249  0.0243
 4653TIP3    H135450   0.428   5.564   3.471 -1.1767  0.7628 -0.6520
 4653TIP3    H235451   0.383   5.494   3.598  0.1442  2.0754  0.5626
 4654TIP3   OH235452   5.714   4.630   4.515 -0.1523  0.5853 -0.7799
 4654TIP3    H135453   5.793   4.613   4.463  2.0575  0.5562  2.4081
 4654TIP3    H235454   5.747   4.671   4.595 -3.3368 -0.0778  0.9646
 4655TIP3   OH235455   6.304   5.126   5.691  0.1788  0.0022 -0.7056
 4655TIP3    H135456   6.232   5.189   5.688  1.1491  1.1663 -0.1835
 4655TIP3    H235457   6.370   5.168   5.746  0.0382 -2.3683  1.3528
 4656TIP3   OH235458   6.004   0.376   0.739  0.2556  0.0622 -0.0198
 4656TIP3    H135459   6.045   0.317   0.676  0.0004 -0.3961  0.2427
 4656TIP3    H235460   5.930   0.327   0.775 -0.5505  0.9071 -0.5127
 4657TIP3   OH235461   5.563   5.169   3.440 -0.1069  0.1961 -0.1015
 4657TIP3    H135462   5.567   5.090   3.495 -0.6809  0.5565  0.4760
 4657TIP3    H235463   5.637   5.160   3.380 -0.9052 -1.4006 -0.8838
 4658TIP3   OH235464   3.446   5.218   5.997  0.1777 -0.2063 -0.1761
 4658TIP3    H135465   3.493   5.150   6.046 -1.6103 -2.3584 -1.3741
 4658TIP3    H235466   3.426   5.177   5.912 -1.7551  1.4618 -0.5578
 4659TIP3   OH235467   1.312   3.693  11.989 -0.6250  0.5573 -0.0324
 4659TIP3    H135468   1.307   3.649  12.074 -1.8152 -0.6102 -0.6991
 4659TIP3    H235469   1.401   3.727  11.985 -0.0084 -0.9016  0.9323
 4660TIP3   OH235470   5.913   0.738   2.444  0.3204  0.1527  0.1169
 4660TIP3    H135471   5.955   0.819   2.474  0.9298 -0.1232  0.0120
 4660TIP3    H235472   5.857   0.766   2.371 -0.2589  0.6354  0.7353
 4661TIP3   OH235473   2.614   5.360   3.498  0.4181 -0.1718 -0.3410
 4661TIP3    H135474   2.608   5.289   3.433  1.1133  0.0057 -0.5988
 4661TIP3    H235475   2.705   5.388   3.495  0.4055 -0.0270  0.5751
 4662TIP3   OH235476   4.125   6.670   2.478 -0.3233  0.5027 -0.1766
 4662TIP3    H135477   4.195   6.669   2.412 -0.2978  0.6291 -0.1517
 4662TIP3    H235478   4.047   6.643   2.430 -0.6162  2.0800 -0.6161
 4663TIP3   OH235479   4.952   3.113   0.820 -0.4213  0.0232 -0.2474
 4663TIP3    H135480   4.908   3.028   0.825  0.2484 -0.3012  0.1273
 4663TIP3    H235481   4.897   3.172   0.872 -0.6305 -0.2936 -0.1113
 4664TIP3   OH235482   3.686   4.966  17.150 -0.2812  0.5687 -0.4502
 4664TIP3    H135483   3.612   4.907  17.153  0.4611 -0.3373  0.2537
 4664TIP3    H235484   3.651   5.051  17.174 -0.7632 -0.1858  1.5439
 4665TIP3   OH235485   4.944   0.209   3.002  0.2793 -0.4453  0.0889
 4665TIP3    H135486   4.995   0.183   3.079  1.4599 -2.7959 -1.4364
 4665TIP3    H235487   5.005   0.202   2.929 -1.5700 -0.9561 -1.4502
 4666TIP3   OH235488   1.258   2.429   1.683 -0.0657 -0.0624 -0.2292
 4666TIP3    H135489   1.260   2.334   1.684 -0.2954 -0.0726 -0.8317
 4666TIP3    H235490   1.190   2.451   1.619 -0.8306  0.4879  0.7376
 4667TIP3   OH235491   3.983   0.427   3.530  0.7787 -0.8357  0.0925
 4667TIP3    H135492   4.059   0.410   3.586  0.2910 -2.2255  0.3600
 4667TIP3    H235493   3.917   0.463   3.588  0.6872 -1.1409  0.1786
 4668TIP3   OH235494   4.547   5.035  17.205 -0.0577  0.1379 -0.4921
 4668TIP3    H135495   4.632   5.037  17.161  0.6223 -5.0848  0.2764
 4668TIP3    H235496   4.567   5.037  17.298 -0.8289 -0.6620 -0.3066
 4669TIP3   OH235497   2.210   5.118   4.545  0.9696 -0.0503 -0.5173
 4669TIP3    H135498   2.200   5.212   4.559  0.5157 -0.3522  1.3762
 4669TIP3    H235499   2.304   5.104   4.536  1.1459  0.4061  0.6127
 4670TIP3   OH235500   2.075   0.556  14.238  0.6553  0.2639 -0.3697
 4670TIP3    H135501   2.047   0.647  14.246 -3.3294 -0.8521 -0.6458
 4670TIP3    H235502   2.063   0.534  14.146 -0.9261 -1.2698  0.1723
 4671TIP3   OH235503   0.612   4.298  16.345 -0.0338 -0.2089  0.3721
 4671TIP3    H135504   0.557   4.236  16.298  0.7754 -0.2328 -0.5655
 4671TIP3    H235505   0.550   4.355  16.391 -0.8833  0.1576 -1.1633
 4672TIP3   OH235506   0.518   0.850   2.037 -0.1593 -0.0928  0.1555
 4672TIP3    H135507   0.451   0.787   2.011 -0.9887  0.1474  1.6462
 4672TIP3    H235508   0.600   0.802   2.032 -0.4227 -0.4118 -1.6352
 4673TIP3   OH235509   5.260   6.372   2.217 -0.3474 -0.1658 -0.4417
 4673TIP3    H135510   5.210   6.335   2.289  1.6892  0.2166  1.2187
 4673TIP3    H235511   5.273   6.464   2.242  0.7018 -0.1297 -1.1039
 4674TIP3   OH235512   1.915   0.608  15.934 -0.5368 -0.5509 -0.7394
 4674TIP3    H135513   2.010   0.599  15.933 -0.4286  0.4596 -1.8552
 4674TIP3    H235514   1.898   0.676  15.999 -0.4934 -0.6391 -0.6347
 4675TIP3   OH235515   0.576   5.032  15.971 -0.0034 -0.1133 -0.3706
 4675TIP3    H135516   0.541   5.083  16.045 -2.4722  0.7577 -2.0695
 4675TIP3    H235517   0.625   5.096  15.920 -1.3495  0.1366 -1.3854
 4676TIP3   OH235518   0.462   5.095   3.351  0.2640  0.4569  0.2114
 4676TIP3    H135519   0.375   5.104   3.313  0.5599  1.2443 -0.3008
 4676TIP3    H235520   0.452   5.031   3.421 -0.7516  0.6449  0.2395
 4677TIP3   OH235521   0.824   4.104  15.930 -0.0975  0.0923 -0.4781
 4677TIP3    H135522   0.903   4.058  15.960 -0.2165 -0.2660 -0.7036
 4677TIP3    H235523   0.810   4.173  15.995  0.1303 -0.1464 -0.1702
 4678TIP3   OH235524   0.487   0.957   4.401 -0.5499  0.3164 -0.5426
 4678TIP3    H135525   0.459   0.898   4.470 -1.0810  0.8446 -0.2973
 4678TIP3    H235526   0.457   1.043   4.429 -0.5922  0.5701 -1.3306
 4679TIP3   OH235527   1.607   2.476   4.853 -0.2382  0.0925  0.0733
 4679TIP3    H135528   1.531   2.417   4.844 -0.9992  1.1687 -0.6870
 4679TIP3    H235529   1.578   2.558   4.813  0.3296  1.4371  2.3541
 4680TIP3   OH235530   0.025   1.843   0.286 -0.2807  0.1654 -0.3293
 4680TIP3    H135531   0.038   1.887   0.202 -1.2098 -0.0942 -0.6167
 4680TIP3    H235532   0.061   1.755   0.273  1.6671  0.8674  0.2769
 4681TIP3   OH235533   3.511   4.124   5.739 -0.0093 -0.6347  0.2495
 4681TIP3    H135534   3.561   4.118   5.657  0.5763  1.6948  0.4108
 4681TIP3    H235535   3.456   4.201   5.728  0.6817  0.1842  2.3794
 4682TIP3   OH235536   1.725   1.322  12.466 -0.8105  0.0195  0.0775
 4682TIP3    H135537   1.746   1.245  12.519  0.7878  1.6793  1.9063
 4682TIP3    H235538   1.794   1.325  12.400 -1.0533 -0.2726 -0.1951
 4683TIP3   OH235539   6.394   5.668  14.092  0.4790 -0.0821  0.4862
 4683TIP3    H135540   6.402   5.678  13.997  1.3605 -1.7635  0.3746
 4683TIP3    H235541   6.300   5.671  14.109  0.3969  2.5526 -0.1553
 4684TIP3   OH235542   4.991   5.702   4.999  0.3565 -0.1502 -0.2165
 4684TIP3    H135543   5.025   5.783   4.961  2.1450 -0.4988  0.5866
 4684TIP3    H235544   4.929   5.731   5.065 -1.2195  0.4939 -1.9268
 4685TIP3   OH235545   1.007   3.592  12.662  0.3704 -0.0582 -0.5101
 4685TIP3    H135546   1.009   3.612  12.568  1.5335  0.5623 -0.3584
 4685TIP3    H235547   1.063   3.659  12.702 -0.0213 -0.3935  0.6164
 4686TIP3   OH235548   3.907   5.883   3.431  0.0643 -0.1646 -0.0399
 4686TIP3    H135549   3.979   5.820   3.425  0.8886  0.6750  0.9102
 4686TIP3    H235550   3.950   5.967   3.446 -1.1160  0.3399  0.5614
 4687TIP3   OH235551   4.457   4.809   3.496 -0.3597 -0.1537  0.0509
 4687TIP3    H135552   4.492   4.750   3.563  0.4731  0.0958 -0.1719
 4687TIP3    H235553   4.530   4.825   3.437 -1.5236 -1.6632 -1.8396
 4688TIP3   OH235554   4.340   4.712   4.598 -0.4571 -0.0140 -0.0776
 4688TIP3    H135555   4.297   4.647   4.654  0.8348 -1.8516 -1.1614
 4688TIP3    H235556   4.421   4.734   4.644  0.8621 -1.9183 -1.4069
 4689TIP3   OH235557   4.827   0.462  10.941  0.2005  0.3960 -0.5767
 4689TIP3    H135558   4.906   0.488  10.894 -0.1013 -0.9703 -1.9077
 4689TIP3    H235559   4.817   0.369  10.921 -0.2597 -0.0990  1.7698
 4690TIP3   OH235560   1.234   3.823  15.765  0.0925 -0.1422  0.4002
 4690TIP3    H135561   1.185   3.888  15.714 -0.5721 -1.2546 -0.4131
 4690TIP3    H235562   1.279   3.874  15.831  0.5092  1.2883 -0.9484
 4691TIP3   OH235563   4.609   0.494  13.099 -0.1158  0.3235 -0.5594
 4691TIP3    H135564   4.543   0.429  13.125  1.5126 -1.5315 -0.9324
 4691TIP3    H235565   4.668   0.499  13.173  0.5327  0.3681 -1.0740
 4692TIP3   OH235566   5.367   5.038   1.026  1.0154  0.0415 -0.1305
 4692TIP3    H135567   5.283   5.063   1.065  1.1382 -1.1127  0.9200
 4692TIP3    H235568   5.345   4.972   0.960  1.0672 -0.1164  0.0082
 4693TIP3   OH235569   4.509   3.811   0.899 -0.3226  0.5758 -0.3573
 4693TIP3    H135570   4.522   3.902   0.873  0.5900  1.3416  2.5541
 4693TIP3    H235571   4.419   3.809   0.933  0.5107  1.0726  2.0021
 4694TIP3   OH235572   5.228   0.148   1.062  0.2957  0.0762 -0.1578
 4694TIP3    H135573   5.223   0.111   1.150 -1.4720  0.3749 -0.1189
 4694TIP3    H235574   5.240   0.241   1.075  3.0863 -0.2402 -0.2560
 4695TIP3   OH235575   2.818   3.825   2.633  0.0354 -0.5390  0.1654
 4695TIP3    H135576   2.783   3.882   2.701  2.1167  0.5948  0.3432
 4695TIP3    H235577   2.816   3.879   2.554  1.7345 -0.3025  0.2696
 4696TIP3   OH235578   0.677   1.872  10.955  0.5120 -0.3043  0.2314
 4696TIP3    H135579   0.654   1.801  11.015  2.5421 -0.1784  1.2079
 4696TIP3    H235580   0.596   1.922  10.944 -0.1517 -0.9490  2.0186
 4697TIP3   OH235581   4.620   3.058  15.041  0.1205  0.0164  0.1389
 4697TIP3    H135582   4.560   2.997  15.084  0.6893 -0.2044  0.6260
 4697TIP3    H235583   4.583   3.070  14.954 -0.0215 -1.0039  0.0516
 4698TIP3   OH235584   2.126   3.242   1.195  0.9049  0.7759 -0.1479
 4698TIP3    H135585   2.049   3.233   1.251  2.7906 -0.8518  2.3108
 4698TIP3    H235586   2.104   3.194   1.115 -0.8080  0.7599  0.3257
 4699TIP3   OH235587   5.930   0.608  16.109 -0.1083 -0.6255 -0.2341
 4699TIP3    H135588   5.864   0.643  16.049 -0.4829  1.1981  1.1986
 4699TIP3    H235589   5.879   0.563  16.177 -0.0034  2.0024  1.6450
 4700TIP3   OH235590   1.994   4.593   0.901 -0.0235 -0.1694  0.2179
 4700TIP3    H135591   2.008   4.614   0.993 -0.0687  2.3102 -0.3059
 4700TIP3    H235592   2.045   4.659   0.853 -2.3393  0.4047 -1.5670
 4701TIP3   OH235593   6.296   2.823   1.078  0.0118 -0.3788 -0.5475
 4701TIP3    H135594   6.364   2.861   1.022  0.6347  0.0680  0.4884
 4701TIP3    H235595   6.214   2.848   1.036  0.4579  0.3435 -1.0049
 4702TIP3   OH235596   2.823   5.410   2.728  0.3895  0.6431  0.7566
 4702TIP3    H135597   2.852   5.331   2.774 -0.5707  0.0256  0.3323
 4702TIP3    H235598   2.894   5.472   2.739  0.6893  0.0808  2.0231
 4703TIP3   OH235599   0.656   5.921   5.505 -0.0309  0.2199 -0.3760
 4703TIP3    H135600   0.569   5.940   5.469 -0.6008 -0.3962  0.6538
 4703TIP3    H235601   0.639   5.868   5.583  1.2461  0.5186  0.1232
 4704TIP3   OH235602   4.113   0.245   0.659 -0.1261 -0.1223  0.5720
 4704TIP3    H135603   4.063   0.236   0.740 -0.4845  0.4167  0.4125
 4704TIP3    H235604   4.062   0.199   0.593  0.9647 -1.9569  0.9780
 4705TIP3   OH235605   0.085   0.276   2.189 -0.5228  0.0817  0.2547
 4705TIP3    H135606   0.102   0.224   2.111 -1.8041 -0.1641  0.1268
 4705TIP3    H235607   0.168   0.320   2.208 -0.5551  1.1914 -2.0277
 4706TIP3   OH235608   5.412   3.313  15.932 -0.1996  0.6577  0.1992
 4706TIP3    H135609   5.382   3.333  15.843 -1.7460  1.7682  0.9511
 4706TIP3    H235610   5.413   3.398  15.976 -0.1411  0.0141  1.4467
 4707TIP3   OH235611   6.446   3.818  13.554 -0.0313 -0.3559  0.1873
 4707TIP3    H135612   6.501   3.817  13.476 -0.9669  1.8876 -0.5479
 4707TIP3    H235613   6.403   3.904  13.553 -3.1979 -1.8298  0.9731
 4708TIP3   OH235614   5.188   2.380  11.393 -0.4628 -0.3928  0.5845
 4708TIP3    H135615   5.257   2.367  11.328 -0.7025  1.2481 -0.0426
 4708TIP3    H235616   5.110   2.343  11.353 -0.2101 -1.1436  0.7745
 4709TIP3   OH235617   0.093   3.102   4.653 -0.0501 -0.3683 -0.5275
 4709TIP3    H135618   0.145   3.065   4.724  1.3927  0.6251 -1.0477
 4709TIP3    H235619   0.019   3.042   4.644  0.0558 -0.8230  1.4109
 4710TIP3   OH235620   0.369   6.099  12.292 -0.0131 -0.3378 -0.1900
 4710TIP3    H135621   0.460   6.105  12.262 -0.4236  1.4467 -1.1643
 4710TIP3    H235622   0.317   6.122  12.215 -1.1314  3.0938  1.4688
 4711TIP3   OH235623   2.025   0.996   3.057 -0.0489 -0.4038 -0.1847
 4711TIP3    H135624   2.099   0.999   3.117 -1.4576  1.0888  1.5229
 4711TIP3    H235625   1.991   0.907   3.064 -0.5218 -0.0872  1.6359
 4712TIP3   OH235626   1.110   0.587  11.842 -0.3454  0.1425  0.0126
 4712TIP3    H135627   1.202   0.585  11.869 -0.5321 -2.1243  0.6073
 4712TIP3    H235628   1.113   0.594  11.747  0.4551 -0.0844  0.0163
 4713TIP3   OH235629   0.943   3.284  13.231  0.2272 -0.2224 -0.0196
 4713TIP3    H135630   1.034   3.259  13.247 -0.0332  0.1278  2.0805
 4713TIP3    H235631   0.898   3.201  13.218  0.7622 -0.4232 -0.6278
 4714TIP3   OH235632   1.497   3.191   3.311 -0.2631  0.2835  0.1052
 4714TIP3    H135633   1.531   3.280   3.301 -0.5794  0.3058 -0.7968
 4714TIP3    H235634   1.482   3.160   3.222  0.2713 -0.8467  0.4028
 4715TIP3   OH235635   5.242   1.676   5.176 -0.6869 -0.3423 -0.0243
 4715TIP3    H135636   5.261   1.768   5.195  1.4673 -0.6566 -0.5042
 4715TIP3    H235637   5.160   1.658   5.221 -0.5167  1.4881  1.0468
 4716TIP3   OH235638   2.794   2.522   3.389  0.1281  0.0570 -0.3310
 4716TIP3    H135639   2.743   2.554   3.464 -0.1684 -2.0519  0.4077
 4716TIP3    H235640   2.853   2.595   3.367 -2.7716  2.3260 -0.8376
 4717TIP3   OH235641   0.956   1.982  15.521 -0.2394  0.0425  0.0581
 4717TIP3    H135642   0.902   1.903  15.528  0.4104 -0.2603  1.9115
 4717TIP3    H235643   0.892   2.053  15.513 -0.9038 -0.4206  1.0437
 4718TIP3   OH235644   1.822   4.484   2.375  0.6932 -0.7189 -0.2538
 4718TIP3    H135645   1.749   4.445   2.327 -0.1961  2.9404 -2.0601
 4718TIP3    H235646   1.780   4.539   2.441  1.7618  1.1838 -1.1169
 4719TIP3   OH235647   2.741   0.647   5.350 -0.7963  0.1391 -0.1941
 4719TIP3    H135648   2.667   0.681   5.299 -0.9006  1.2136  0.6443
 4719TIP3    H235649   2.810   0.712   5.337 -0.1274 -0.6654 -0.6612
 4720TIP3   OH235650   2.882   5.828   1.017 -0.3708 -0.1228 -0.0783
 4720TIP3    H135651   2.879   5.884   1.094 -1.6820 -0.6997  0.3095
 4720TIP3    H235652   2.853   5.742   1.048 -0.4690 -0.4760 -1.1070
 4721TIP3   OH235653   6.010   0.509   4.225  0.6086 -0.3548  0.6663
 4721TIP3    H135654   6.082   0.571   4.212  1.3126 -1.7774 -2.6539
 4721TIP3    H235655   5.955   0.550   4.292  3.1318  1.9689  1.4048
 4722TIP3   OH235656   1.487   6.442   2.966 -0.4126 -0.4130  0.1304
 4722TIP3    H135657   1.540   6.415   3.042  0.1188 -0.1801 -0.1536
 4722TIP3    H235658   1.532   6.403   2.891 -0.0085  0.7207 -0.2245
 4723TIP3   OH235659   0.836   6.646  17.057 -0.3506  0.2844  0.3104
 4723TIP3    H135660   0.912   6.701  17.039 -1.2177  1.1497 -0.7627
 4723TIP3    H235661   0.762   6.706  17.056 -0.9270 -0.3508  2.5860
 4724TIP3   OH235662   2.297   1.399   4.588  0.2597 -0.3221 -0.5278
 4724TIP3    H135663   2.392   1.392   4.584  0.1807 -2.3782  0.4740
 4724TIP3    H235664   2.278   1.419   4.679 -0.2131  1.2079 -0.9591
 4725TIP3   OH235665   6.348   4.006  11.483 -0.3404  0.1601 -0.1664
 4725TIP3    H135666   6.372   4.081  11.428 -0.0945 -0.1602 -0.4928
 4725TIP3    H235667   6.392   4.024  11.567  0.6774 -0.2024 -0.6184
 4726TIP3   OH235668   1.503   5.154  10.739  0.0806  0.0223  0.1654
 4726TIP3    H135669   1.575   5.090  10.742 -0.7872 -0.9905 -0.1986
 4726TIP3    H235670   1.534   5.227  10.793  1.2560 -0.5308  0.2638
 4727TIP3   OH235671   2.358   5.117  13.431  0.3060  0.0743  0.5878
 4727TIP3    H135672   2.283   5.087  13.380 -1.0285 -0.6188  2.8976
 4727TIP3    H235673   2.358   5.212  13.421  0.1407 -0.0645 -0.7775
 4728TIP3   OH235674   1.772   6.392   1.898 -0.1181  0.9264  0.1764
 4728TIP3    H135675   1.825   6.472   1.893  2.8824 -1.0757 -1.4099
 4728TIP3    H235676   1.795   6.343   1.820 -1.5192 -1.7630  1.3947
 4729TIP3   OH235677   3.590   0.702   3.134 -0.1779  0.1548  0.2225
 4729TIP3    H135678   3.676   0.685   3.171 -0.7155  2.6028  2.7560
 4729TIP3    H235679   3.608   0.748   3.052  0.9062  1.4328  1.1673
 4730TIP3   OH235680   3.995   3.770  10.900  0.4372  0.4214 -0.0210
 4730TIP3    H135681   3.918   3.760  10.844 -0.1227  0.2704  0.7637
 4730TIP3    H235682   3.966   3.739  10.986  1.4410  0.1558  0.2281
 4731TIP3   OH235683   1.798   4.958  14.835 -0.0118 -0.1644  0.2166
 4731TIP3    H135684   1.740   4.882  14.844  0.4216 -0.6456 -0.8902
 4731TIP3    H235685   1.745   5.032  14.864 -1.5043 -0.4595 -1.6343
 4732TIP3   OH235686   6.709   0.869   1.165 -0.1533 -0.0374 -0.4843
 4732TIP3    H135687   6.636   0.830   1.213 -0.4406  1.1728  0.0641
 4732TIP3    H235688   6.731   0.947   1.214  2.7532 -1.3674  0.3959
 4733TIP3   OH235689   0.003   0.870  15.106 -0.0085 -0.1681 -0.0089
 4733TIP3    H135690   0.076   0.866  15.043  1.6742  0.6628  1.8472
 4733TIP3    H235691  -0.075   0.883  15.051  1.3298 -0.1314 -1.9634
 4734TIP3   OH235692   2.128   4.670   1.836  0.7401 -0.4972 -0.4641
 4734TIP3    H135693   2.074   4.656   1.914 -0.6578  0.8695 -1.1561
 4734TIP3    H235694   2.129   4.586   1.791 -1.7867 -0.2609 -1.0179
 4735TIP3   OH235695   1.633   4.103   5.366  0.1943  0.5202  0.2963
 4735TIP3    H135696   1.556   4.157   5.382  1.5021  2.3354  0.6186
 4735TIP3    H235697   1.706   4.165   5.365  1.6150 -1.1199 -0.3386
 4736TIP3   OH235698   6.533   2.510   1.490 -0.1724 -0.1032 -0.0510
 4736TIP3    H135699   6.535   2.555   1.405 -2.4107 -0.8191 -0.5207
 4736TIP3    H235700   6.545   2.417   1.467  0.3362 -0.1810  0.5248
 4737TIP3   OH235701   5.470   5.538   5.725 -0.2246  0.9738 -0.0662
 4737TIP3    H135702   5.491   5.591   5.802  2.8980  1.9001 -1.4346
 4737TIP3    H235703   5.407   5.591   5.676  1.2122  2.4786 -0.3406
 4738TIP3   OH235704   1.358   6.452   1.151  0.3081  0.9354 -0.0040
 4738TIP3    H135705   1.345   6.361   1.125 -0.9790  0.9711  0.4705
 4738TIP3    H235706   1.425   6.449   1.220  2.0095  0.6083 -1.6384
 4739TIP3   OH235707   5.831   0.732   5.094 -0.0257  0.3044 -1.1897
 4739TIP3    H135708   5.755   0.790   5.090 -1.3020 -1.1263  0.8608
 4739TIP3    H235709   5.800   0.650   5.055  0.0767 -0.6415  0.6529
 4740TIP3   OH235710   3.689   1.203  12.861 -0.2668 -0.2274  0.1955
 4740TIP3    H135711   3.622   1.135  12.853 -0.9292  0.6526 -1.9846
 4740TIP3    H235712   3.767   1.164  12.823 -1.0210  0.6868 -2.4021
 4741TIP3   OH235713   2.878   1.032   1.621 -0.2756 -0.0263  1.2154
 4741TIP3    H135714   2.860   1.022   1.714  1.2365 -0.6134  1.4542
 4741TIP3    H235715   2.952   1.093   1.617 -0.0447 -0.3505  0.4206
 4742TIP3   OH235716   6.683   0.439   4.347 -0.0877 -0.0072  0.0471
 4742TIP3    H135717   6.651   0.430   4.437  1.7400  0.9981  0.8487
 4742TIP3    H235718   6.695   0.350   4.316 -0.0571 -0.3685  1.0784
 4743TIP3   OH235719   6.775   5.155   6.054  0.3132  0.2032 -0.1890
 4743TIP3    H135720   6.851   5.187   6.103 -0.4172  1.4350  0.1572
 4743TIP3    H235721   6.758   5.068   6.092  2.1021 -0.4862 -0.9072
 4744TIP3   OH235722   2.067   2.126   2.237 -0.1091 -0.3580 -0.4516
 4744TIP3    H135723   2.160   2.104   2.237  0.0987  0.5136 -0.8087
 4744TIP3    H235724   2.035   2.096   2.152 -0.5556 -2.2955  0.3737
 4745TIP3   OH235725   4.958   4.074  13.030 -0.3617  0.6499  0.4351
 4745TIP3    H135726   4.962   4.011  13.101 -0.7929 -0.2816 -0.3599
 4745TIP3    H235727   5.018   4.144  13.057 -0.4449  0.2597  1.6549
 4746TIP3   OH235728   1.274   0.105  12.802  0.2502 -0.2340  0.2288
 4746TIP3    H135729   1.204   0.042  12.813 -0.6076  0.3053 -1.7953
 4746TIP3    H235730   1.324   0.102  12.883 -0.5879 -2.5045  0.6701
 4747TIP3   OH235731   4.273   2.822  13.028  0.5669 -0.0731 -0.4023
 4747TIP3    H135732   4.362   2.854  13.043  0.2245  0.3658  0.7365
 4747TIP3    H235733   4.261   2.830  12.934  2.3674 -1.8158 -0.8055
 4748TIP3   OH235734   1.845   4.108   3.949 -0.0350  0.5622  0.7917
 4748TIP3    H135735   1.806   4.188   3.911 -1.0168  0.5251  1.6912
 4748TIP3    H235736   1.773   4.068   3.998  0.4581 -0.8744  0.3603
 4749TIP3   OH235737   4.000   6.170   2.809  0.6151  0.4150 -0.2924
 4749TIP3    H135738   3.985   6.087   2.765 -0.4999 -0.0280  0.8792
 4749TIP3    H235739   4.080   6.156   2.860  0.4864  0.1045 -0.1770
 4750TIP3   OH235740   6.099   3.782   1.798 -0.2807  0.6695  0.1787
 4750TIP3    H135741   6.104   3.877   1.810 -1.2014  0.7218  0.1925
 4750TIP3    H235742   6.075   3.771   1.706  0.0346  0.4480  0.1254
 4751TIP3   OH235743   1.730   0.751  11.153 -0.1832 -0.2691  0.1535
 4751TIP3    H135744   1.725   0.657  11.134 -0.1421 -0.2324 -0.0392
 4751TIP3    H235745   1.700   0.793  11.072 -1.3624 -0.1414  0.6483
 4752TIP3   OH235746   0.313   5.581   0.429  0.0956 -0.1420  0.1203
 4752TIP3    H135747   0.232   5.573   0.379 -0.7188  0.8607  1.2611
 4752TIP3    H235748   0.317   5.501   0.481  0.4672 -0.7566 -0.8486
 4753TIP3   OH235749   0.693   5.464   1.772 -0.2991 -0.0156 -0.8023
 4753TIP3    H135750   0.722   5.385   1.727 -0.8307  0.7792 -2.5908
 4753TIP3    H235751   0.758   5.531   1.748  0.7708 -0.1374  1.5780
 4754TIP3   OH235752   0.225   1.383   4.374 -0.2697  0.0722 -0.2476
 4754TIP3    H135753   0.160   1.454   4.363  1.2823  1.7453  1.1283
 4754TIP3    H235754   0.289   1.399   4.304 -0.1774 -0.2739 -0.2400
 4755TIP3   OH235755   0.639   6.667  15.009 -0.0634  0.4343  0.6191
 4755TIP3    H135756   0.624   6.650  15.102 -0.2998  1.6570  0.8098
 4755TIP3    H235757   0.616   6.759  14.998 -1.2470 -0.0322 -0.9077
 4756TIP3   OH235758   2.707   0.911  16.736  0.5615 -0.3354 -0.4768
 4756TIP3    H135759   2.766   0.836  16.740  1.7583  0.3831 -3.3829
 4756TIP3    H235760   2.760   0.985  16.766 -0.7316 -0.6452  2.7686
 4757TIP3   OH235761   0.002   6.185   6.110 -0.0960 -0.0000  0.6400
 4757TIP3    H135762   0.077   6.244   6.117  0.9494 -1.4557  1.8495
 4757TIP3    H235763  -0.032   6.201   6.022  3.8458 -1.9196 -1.3840
 4758TIP3   OH235764   0.774   3.431   0.685  0.1419 -0.4830 -0.5617
 4758TIP3    H135765   0.732   3.517   0.695 -1.5793 -1.3298 -0.3180
 4758TIP3    H235766   0.833   3.443   0.611 -0.1876  0.8818 -0.6307
 4759TIP3   OH235767   4.315   6.385   4.334  0.9924 -0.8240 -0.0309
 4759TIP3    H135768   4.301   6.290   4.332  1.1135 -0.9314  2.2143
 4759TIP3    H235769   4.246   6.418   4.391  2.6592  0.0609  1.5425
 4760TIP3   OH235770   2.074   5.082  14.875 -0.1326  0.2566 -0.0593
 4760TIP3    H135771   2.007   5.013  14.873  0.4420 -0.2849 -0.7967
 4760TIP3    H235772   2.067   5.119  14.963 -0.6046 -0.5865  0.2678
 4761TIP3   OH235773   0.117   2.187  11.572 -0.3880  0.3941  0.0092
 4761TIP3    H135774   0.170   2.117  11.610  0.3599  0.3047 -1.1770
 4761TIP3    H235775   0.037   2.188  11.625  0.5464  0.1517  1.4726
 4762TIP3   OH235776   0.253   1.170  13.847 -0.8497 -0.2697  0.1324
 4762TIP3    H135777   0.280   1.255  13.883  0.1452 -0.5870  0.1503
 4762TIP3    H235778   0.178   1.191  13.792 -0.9308  0.5542  0.5495
 4763TIP3   OH235779   4.947   3.712   4.049  0.5041 -0.3346 -0.0415
 4763TIP3    H135780   4.879   3.685   3.987  0.9668 -1.1866 -0.1815
 4763TIP3    H235781   5.026   3.718   3.997  0.8754 -0.9481  0.4440
 4764TIP3   OH235782   2.226   1.218  13.150  0.1312 -0.0668  0.3807
 4764TIP3    H135783   2.286   1.252  13.083  0.2339  0.2046  0.6107
 4764TIP3    H235784   2.182   1.144  13.107  0.8045 -0.4198  0.2857
 4765TIP3   OH235785   3.763   1.126  14.295 -0.1498  0.3470  0.2975
 4765TIP3    H135786   3.701   1.058  14.268 -0.1492  0.8134 -0.9185
 4765TIP3    H235787   3.800   1.093  14.377 -0.9253 -0.6217  0.2720
 4766TIP3   OH235788   0.893   2.327  13.473 -0.3500 -0.6585  0.0530
 4766TIP3    H135789   0.830   2.386  13.514  0.9346  1.0925 -0.4527
 4766TIP3    H235790   0.879   2.339  13.379  0.7660 -0.2225 -0.0628
 4767TIP3   OH235791   5.607   4.341   1.998  0.2808 -0.5918 -0.1560
 4767TIP3    H135792   5.667   4.415   2.008 -1.7929  0.8988  1.8163
 4767TIP3    H235793   5.651   4.268   2.041  0.6109  0.5301  1.4699
 4768TIP3   OH235794   3.710   1.717  13.513  0.1772  0.5640  0.0184
 4768TIP3    H135795   3.683   1.666  13.589  0.8946 -1.1032 -0.8138
 4768TIP3    H235796   3.629   1.736  13.467 -0.1234  0.3093  0.4354
 4769TIP3   OH235797   1.039   3.026   1.482  0.0771  0.7086 -0.6160
 4769TIP3    H135798   0.977   3.093   1.511  2.6052  3.6531 -1.7948
 4769TIP3    H235799   0.985   2.948   1.470 -3.1971  2.8350 -0.4509
 4770TIP3   OH235800   6.733   0.767  15.869 -0.0754  0.4660  0.0084
 4770TIP3    H135801   6.823   0.742  15.847 -0.0641 -0.2166  0.8078
 4770TIP3    H235802   6.743   0.832  15.939 -0.1462  1.9693 -1.3241
 4771TIP3   OH235803   0.487   3.547  12.722  0.5542  0.1991  0.3208
 4771TIP3    H135804   0.557   3.487  12.699 -0.6799 -0.3209 -2.1881
 4771TIP3    H235805   0.463   3.590  12.640 -1.9471  0.4646  1.1266
 4772TIP3   OH235806   3.069   3.107  13.180  0.4387 -0.3796  0.5783
 4772TIP3    H135807   3.014   3.030  13.162  1.2224 -0.9410  0.5558
 4772TIP3    H235808   3.017   3.159  13.242 -0.1151 -0.9041  0.5625
 4773TIP3   OH235809   2.396   1.109   2.712 -0.1696  0.2349  0.1363
 4773TIP3    H135810   2.356   1.137   2.629  0.6737  0.0231 -0.3530
 4773TIP3    H235811   2.449   1.183   2.739  1.8771 -0.7401 -1.0384
 4774TIP3   OH235812   1.534   3.519  12.156 -0.5537 -0.3779  0.1977
 4774TIP3    H135813   1.544   3.597  12.101 -0.7098  0.2720  1.0718
 4774TIP3    H235814   1.624   3.490  12.172 -0.5416 -1.1245 -1.1618
 4775TIP3   OH235815   6.675   5.733  15.783 -0.4936 -0.0867 -0.0236
 4775TIP3    H135816   6.689   5.752  15.690 -1.3424 -0.5232 -0.2439
 4775TIP3    H235817   6.661   5.638  15.786  1.8651 -0.4547  0.8464
 4776TIP3   OH235818   0.078   5.178   3.430 -0.1645 -0.3950  0.0342
 4776TIP3    H135819   0.069   5.263   3.473  0.1591 -0.5638  0.4343
 4776TIP3    H235820   0.001   5.129   3.458  1.2347 -1.3580  2.3764
 4777TIP3   OH235821   4.561   0.430   0.672 -0.1787 -0.4247 -0.5657
 4777TIP3    H135822   4.620   0.355   0.668  1.2918  0.6605  0.3173
 4777TIP3    H235823   4.592   0.490   0.604 -1.7603 -0.8770 -1.7254
 4778TIP3   OH235824   4.116   5.882  10.583 -0.1900  0.5957 -0.4239
 4778TIP3    H135825   4.138   5.975  10.590 -0.7642  0.7730 -1.0387
 4778TIP3    H235826   4.035   5.879  10.533  0.7719 -0.3459 -1.9875
 4779TIP3   OH235827   4.044   0.084  11.309 -0.3140  0.0164 -0.0348
 4779TIP3    H135828   4.003   0.170  11.309 -1.1056 -0.3533 -0.1627
 4779TIP3    H235829   3.990   0.032  11.249  1.3628 -0.0023 -1.5644
 4780TIP3   OH235830   1.539   4.034   3.017  0.3866 -0.4142 -0.1364
 4780TIP3    H135831   1.510   4.009   2.930  0.5711  0.2640 -0.3904
 4780TIP3    H235832   1.544   4.129   3.015  1.8776 -0.4812  0.1447
 4781TIP3   OH235833   0.303   3.256   3.920  0.5406 -0.2065  0.3271
 4781TIP3    H135834   0.245   3.204   3.864  1.5317 -0.6766 -0.2624
 4781TIP3    H235835   0.264   3.248   4.007 -0.3079 -0.4873 -0.0638
 4782TIP3   OH235836   1.438   2.893  16.109 -0.8124  0.4123 -0.0007
 4782TIP3    H135837   1.519   2.940  16.130 -0.1020  0.0280 -1.8426
 4782TIP3    H235838   1.426   2.833  16.183  0.8841  0.0763  0.0177
 4783TIP3   OH235839   4.407   0.042   1.940  0.4873 -0.1146  0.5018
 4783TIP3    H135840   4.440   0.073   2.024 -1.2981  0.5111  0.9818
 4783TIP3    H235841   4.424   0.114   1.879  0.0422  0.1857  0.7346
 4784TIP3   OH235842   5.426   2.395  13.270 -0.1740  0.5981  0.1735
 4784TIP3    H135843   5.449   2.367  13.359  0.7313  0.9467  0.0550
 4784TIP3    H235844   5.330   2.402  13.271 -0.1206  1.2642  1.3148
 4785TIP3   OH235845   4.854   5.138  13.015 -0.0714 -0.2066 -0.1562
 4785TIP3    H135846   4.845   5.230  12.989 -0.1264  0.3823  1.9070
 4785TIP3    H235847   4.935   5.135  13.065 -1.0331 -0.9048  1.3796
 4786TIP3   OH235848   2.307   2.490  15.066  0.1099 -0.4147  0.2930
 4786TIP3    H135849   2.273   2.540  14.992 -0.5174 -0.2536  0.6776
 4786TIP3    H235850   2.400   2.480  15.048  0.2222  0.7892  0.1382
 4787TIP3   OH235851   3.965   4.487   0.884 -0.3602  0.0004 -0.3167
 4787TIP3    H135852   4.026   4.441   0.827 -2.4884 -0.5360 -2.2297
 4787TIP3    H235853   3.981   4.580   0.866 -0.5444 -0.1536 -1.3097
 4788TIP3   OH235854   4.685   5.114   1.833 -0.8561  0.4119 -0.3625
 4788TIP3    H135855   4.749   5.062   1.785  1.1176  0.2952  2.2483
 4788TIP3    H235856   4.726   5.201   1.840 -0.5331  0.0936  2.1004
 4789TIP3   OH235857   5.393   0.616  10.464  0.2588 -0.3658  0.3976
 4789TIP3    H135858   5.457   0.552  10.495 -2.0445 -1.8858  2.2156
 4789TIP3    H235859   5.413   0.696  10.511  1.4577 -0.5391  0.1887
 4790TIP3   OH235860   2.831   3.067  11.396 -0.3324  0.1204  0.6576
 4790TIP3    H135861   2.920   3.042  11.420 -0.5357 -2.6888 -1.2735
 4790TIP3    H235862   2.841   3.148  11.347  1.0427  0.4562  1.4611
 4791TIP3   OH235863   0.200   2.887  12.523 -0.3303 -0.0021 -0.3735
 4791TIP3    H135864   0.198   2.982  12.532 -0.0145 -0.0007 -0.2990
 4791TIP3    H235865   0.115   2.858  12.555 -0.1940  0.2092  0.1862
 4792TIP3   OH235866   5.600   3.956  11.513 -0.1062 -0.5235 -0.3207
 4792TIP3    H135867   5.692   3.936  11.532 -0.5657 -1.4320  1.0654
 4792TIP3    H235868   5.582   4.036  11.563  1.1336  2.2865 -4.1607
 4793TIP3   OH235869   4.024   6.667  14.936  0.3212 -0.4056  0.3080
 4793TIP3    H135870   3.970   6.692  15.011  0.8310 -0.0758  0.5646
 4793TIP3    H235871   4.025   6.745  14.880  0.4048 -0.4660  0.2256
 4794TIP3   OH235872   3.369   2.661  11.088  0.2847  0.0891  0.4131
 4794TIP3    H135873   3.413   2.580  11.062  0.1473 -0.4245  1.7263
 4794TIP3    H235874   3.436   2.728  11.078  1.6732 -0.7954  3.0637
 4795TIP3   OH235875   1.607   5.642  14.634 -0.1154  0.4661  0.0087
 4795TIP3    H135876   1.605   5.630  14.539  1.2204 -0.2507  0.0625
 4795TIP3    H235877   1.516   5.628  14.662 -0.0087 -1.9863 -0.8338
 4796TIP3   OH235878   3.498   4.439   0.953  0.0441 -0.3316  0.2100
 4796TIP3    H135879   3.428   4.494   0.989  0.0990  1.0268 -1.6701
 4796TIP3    H235880   3.565   4.501   0.924  1.5789 -1.5779  1.0389
 4797TIP3   OH235881   4.892   1.306   4.756  0.3241 -0.2072 -0.1193
 4797TIP3    H135882   4.824   1.335   4.695 -0.0794  0.4279  0.6301
 4797TIP3    H235883   4.902   1.379   4.818  0.5200 -0.9714  0.7532
 4798TIP3   OH235884   0.596   1.354   3.788  0.0859  0.2755  0.1839
 4798TIP3    H135885   0.503   1.333   3.798  0.0426  1.1955  2.0335
 4798TIP3    H235886   0.637   1.313   3.864  0.9110  1.3911  0.3494
 4799TIP3   OH235887   2.036   3.494  13.012  0.0121  0.4255  0.0292
 4799TIP3    H135888   2.131   3.505  13.012  0.1417 -0.6337  0.6200
 4799TIP3    H235889   2.011   3.505  12.920  0.8943 -0.8267 -0.3753
 4800TIP3   OH235890   5.956   4.922   5.689 -0.1991 -0.4604 -0.0071
 4800TIP3    H135891   5.961   4.931   5.594 -0.9488 -0.1407 -0.0189
 4800TIP3    H235892   5.893   4.851   5.703 -0.2872 -0.3339  0.2511
 4801TIP3   OH235893   4.264   4.259   3.432 -0.4648  0.0013  0.4943
 4801TIP3    H135894   4.186   4.236   3.482 -0.0379  1.4041  1.8455
 4801TIP3    H235895   4.242   4.340   3.388 -0.7752 -1.1385 -1.5107
 4802TIP3   OH235896   5.920   5.342   1.324  0.1009  0.1924 -0.0906
 4802TIP3    H135897   5.973   5.422   1.331  1.8056 -1.0083  0.8955
 4802TIP3    H235898   5.888   5.343   1.233  1.8417  0.9100 -0.7125
 4803TIP3   OH235899   5.335   3.240  14.607 -0.2455 -0.6333  0.3558
 4803TIP3    H135900   5.316   3.196  14.690 -0.3926 -0.2271  0.5401
 4803TIP3    H235901   5.249   3.254  14.568 -0.3367  1.0031  1.0798
 4804TIP3   OH235902   6.137   6.498  12.513  0.3569 -0.0785 -0.3947
 4804TIP3    H135903   6.220   6.480  12.558  0.1064 -0.3601 -0.0375
 4804TIP3    H235904   6.138   6.593  12.498 -0.0207  0.1932  1.1648
 4805TIP3   OH235905   6.440   6.399   3.104  0.3479  0.0383 -0.0098
 4805TIP3    H135906   6.534   6.408   3.085  0.5851  0.0321  1.0980
 4805TIP3    H235907   6.422   6.469   3.166 -0.6298  0.6956 -1.0245
 4806TIP3   OH235908   2.111   2.729  14.141 -0.2965 -0.1369  0.3430
 4806TIP3    H135909   2.168   2.801  14.117  0.8043 -0.9376  0.5422
 4806TIP3    H235910   2.131   2.660  14.078 -1.3725 -0.2676  0.1245
 4807TIP3   OH235911   1.549   0.269   2.301 -0.2237  0.3886 -0.6085
 4807TIP3    H135912   1.575   0.293   2.390 -0.1578 -0.5384 -0.3709
 4807TIP3    H235913   1.467   0.315   2.286 -0.6650 -0.1164  0.2436
 4808TIP3   OH235914   3.926   0.614   5.749  0.4875  0.1061  0.1307
 4808TIP3    H135915   3.968   0.573   5.674 -0.3577 -2.2337  0.9096
 4808TIP3    H235916   3.849   0.658   5.714 -0.9727 -2.6000 -0.1192
 4809TIP3   OH235917   0.124   1.508  16.918  0.4421  0.1411 -0.0527
 4809TIP3    H135918   0.119   1.452  16.995  0.2580 -0.9876 -0.8831
 4809TIP3    H235919   0.176   1.583  16.947  0.9854 -0.6171  0.9567
 4810TIP3   OH235920   1.747   6.771  15.305 -0.2677 -0.2888 -0.1076
 4810TIP3    H135921   1.695   6.791  15.382 -2.5482 -1.9541 -1.1511
 4810TIP3    H235922   1.801   6.696  15.331 -2.2025 -1.8860 -0.5693
 4811TIP3   OH235923   4.256   6.397   3.890  0.0560  1.1617 -0.1434
 4811TIP3    H135924   4.266   6.374   3.798 -1.1557  1.2183 -0.2890
 4811TIP3    H235925   4.306   6.479   3.899  2.8356 -0.4724 -0.0218
 4812TIP3   OH235926   3.537   4.827  15.947  0.0032 -0.0716  0.2503
 4812TIP3    H135927   3.576   4.774  16.016 -0.4527 -1.9053 -0.8642
 4812TIP3    H235928   3.442   4.821  15.964 -0.3723 -3.5062 -2.5506
 4813TIP3   OH235929   1.156   6.283  12.621  0.1798 -0.0021 -0.0056
 4813TIP3    H135930   1.084   6.261  12.680 -0.1710  2.0148  0.3518
 4813TIP3    H235931   1.233   6.285  12.676  0.2360 -0.4460 -0.0652
 4814TIP3   OH235932   5.073   5.936   4.899  0.3846  0.0038 -0.1756
 4814TIP3    H135933   5.006   5.954   4.833  0.8616 -0.3763 -0.7566
 4814TIP3    H235934   5.048   5.991   4.973 -0.2090  0.3488 -0.6312
 4815TIP3   OH235935   3.924   5.054   1.013 -0.0649 -0.3727 -0.5055
 4815TIP3    H135936   3.965   5.024   1.093  1.0965  0.2337 -0.8585
 4815TIP3    H235937   3.834   5.076   1.038  0.6501  0.9974  0.8952
 4816TIP3   OH235938   4.227   0.659  11.840  0.9656  0.2134 -0.2451
 4816TIP3    H135939   4.304   0.629  11.888  1.2629 -0.1739 -0.9563
 4816TIP3    H235940   4.184   0.721  11.899  0.0106 -2.0506  1.5186
 4817TIP3   OH235941   0.423   5.889   0.912 -0.9071 -0.0657  0.0723
 4817TIP3    H135942   0.424   5.794   0.917  0.3205 -0.0899 -0.4642
 4817TIP3    H235943   0.515   5.914   0.907 -1.2087  1.1627  0.4684
 4818TIP3   OH235944   4.613   5.754   3.972  0.1633  0.8461 -0.2457
 4818TIP3    H135945   4.547   5.821   3.951 -1.0958 -0.2623  0.0808
 4818TIP3    H235946   4.680   5.801   4.021 -1.8452  1.4682  2.0530
 4819TIP3   OH235947   3.096   4.512   0.643  0.1788  0.2396 -0.2978
 4819TIP3    H135948   3.083   4.602   0.611  1.1502  0.4684 -0.0856
 4819TIP3    H235949   3.191   4.505   0.653  0.0921 -0.7874 -0.2250
 4820TIP3   OH235950   0.928   1.020  13.232  0.4854 -0.2876  0.4186
 4820TIP3    H135951   0.867   1.088  13.261  1.5741  0.2212  1.5533
 4820TIP3    H235952   1.011   1.065  13.218  1.1494 -1.3256  0.9107
 4821TIP3   OH235953   2.790   5.907   3.807 -0.7937  0.5785 -0.2844
 4821TIP3    H135954   2.875   5.889   3.846 -0.8910 -2.3303 -1.2575
 4821TIP3    H235955   2.807   5.910   3.713 -1.5165  1.6019 -0.3889
 4822TIP3   OH235956   0.535   6.429   4.358 -0.3427 -0.0863  0.0418
 4822TIP3    H135957   0.493   6.397   4.438 -0.3928 -2.5719 -0.9294
 4822TIP3    H235958   0.584   6.507   4.386 -2.5229  0.6562  1.9349
 4823TIP3   OH235959   1.591   2.794  15.901 -0.3071  0.0792  0.0977
 4823TIP3    H135960   1.546   2.848  15.965 -0.2202 -0.0071  0.2340
 4823TIP3    H235961   1.536   2.716  15.893  0.8963 -0.9948  1.8703
 4824TIP3   OH235962   5.365   0.606   2.422  0.2080 -0.3315 -0.3152
 4824TIP3    H135963   5.418   0.527   2.413  0.7569  0.0296 -0.3075
 4824TIP3    H235964   5.339   0.628   2.333 -1.7360 -1.7251 -0.1015
 4825TIP3   OH235965   6.431   0.808   6.076  0.6010 -0.2533 -0.6641
 4825TIP3    H135966   6.488   0.750   6.126  0.6616  0.2435 -0.1410
 4825TIP3    H235967   6.460   0.800   5.986 -0.6821 -2.5518 -0.9181
 4826TIP3   OH235968   6.756   6.583   1.592  0.5279 -0.8485 -0.2028
 4826TIP3    H135969   6.770   6.631   1.674 -2.3925 -0.2621  0.0197
 4826TIP3    H235970   6.778   6.646   1.523 -2.0841  0.4955  0.1059
 4827TIP3   OH235971   1.199   4.690  11.052  0.2417  0.2589 -0.3139
 4827TIP3    H135972   1.207   4.678  10.957 -0.0476  2.1107 -0.6020
 4827TIP3    H235973   1.207   4.785  11.064  1.3567 -0.0752  1.6276
 4828TIP3   OH235974   0.952   0.364  16.227  0.2365 -0.7313  0.0465
 4828TIP3    H135975   0.935   0.382  16.135  0.7299 -0.6677 -0.0308
 4828TIP3    H235976   0.907   0.282  16.244 -1.3813  0.1594  0.2051
 4829TIP3   OH235977   5.708   2.529   1.622 -0.0292  0.2699 -0.5961
 4829TIP3    H135978   5.755   2.554   1.542 -1.0622 -0.3928 -1.4294
 4829TIP3    H235979   5.661   2.449   1.597 -0.3009  0.0208  0.7029
 4830TIP3   OH235980   2.644   1.113   3.368 -0.4182 -0.0702 -0.1492
 4830TIP3    H135981   2.602   1.084   3.448 -0.1361 -0.6487 -0.2050
 4830TIP3    H235982   2.598   1.065   3.298 -0.7773  0.5580 -0.3482
 4831TIP3   OH235983   1.108   5.948   2.271 -0.0572 -0.2174 -0.6819
 4831TIP3    H135984   1.089   5.878   2.209 -0.7463  0.5306 -1.3140
 4831TIP3    H235985   1.046   6.017   2.249 -0.2089  0.1123  0.7388
 4832TIP3   OH235986   0.281   3.724  13.776  0.1596 -0.0093  0.2740
 4832TIP3    H135987   0.340   3.726  13.851  0.9933 -0.3081 -0.3746
 4832TIP3    H235988   0.315   3.790  13.716 -1.2851  1.1944  0.7305
 4833TIP3   OH235989   1.343   5.669  11.379 -0.4835 -0.1874  0.0897
 4833TIP3    H135990   1.248   5.663  11.382 -0.3820 -1.7468  1.1627
 4833TIP3    H235991   1.362   5.713  11.297 -2.1316  0.2209 -0.0963
 4834TIP3   OH235992   2.440   5.786   0.635  0.6663 -0.0995  0.5071
 4834TIP3    H135993   2.414   5.841   0.561  1.1804 -0.7812 -0.1860
 4834TIP3    H235994   2.359   5.774   0.685 -0.3092 -1.9128 -1.4349
 4835TIP3   OH235995   0.064   1.938  15.694  0.1686 -0.3838  0.3854
 4835TIP3    H135996   0.013   2.013  15.662 -1.2358 -0.8897  1.3699
 4835TIP3    H235997   0.102   1.899  15.616  0.9455  1.3801 -0.1417
 4836TIP3   OH235998   2.542   0.477  11.450  0.0546  0.0104 -0.0790
 4836TIP3    H135999   2.582   0.466  11.537 -1.0913 -1.5968  0.2613
 4836TIP3    H236000   2.612   0.515  11.397  1.6100 -1.4193  0.8788
 4837TIP3   OH236001   4.877   5.813  17.183 -0.4609 -0.8556 -0.0899
 4837TIP3    H136002   4.958   5.857  17.211 -0.8015 -2.1677  3.1422
 4837TIP3    H236003   4.905   5.728  17.151 -0.4961 -1.0792  0.4696
 4838TIP3   OH236004   5.634   3.776   4.393 -0.2101  0.0928 -0.5568
 4838TIP3    H136005   5.722   3.759   4.359 -0.1769  0.5874 -0.7230
 4838TIP3    H236006   5.587   3.694   4.378  0.6205 -0.6651  0.8262
 4839TIP3   OH236007   2.439   4.470  14.482 -0.5126 -0.0506 -0.4091
 4839TIP3    H136008   2.496   4.410  14.434  1.1147  1.0154  0.1414
 4839TIP3    H236009   2.487   4.490  14.562 -0.9635  2.0938 -0.6477
 4840TIP3   OH236010   6.103   4.909  17.082  0.0669  0.1336  0.1358
 4840TIP3    H136011   6.058   4.844  17.135 -0.1045 -0.0762 -0.2663
 4840TIP3    H236012   6.127   4.863  17.002 -1.9262  1.1054 -1.0431
 4841TIP3   OH236013   0.149   3.488  10.843  0.2472  0.4728 -0.5910
 4841TIP3    H136014   0.064   3.457  10.873  0.3710  2.1717  1.6211
 4841TIP3    H236015   0.129   3.551  10.774 -0.1683 -0.6360 -1.5161
 4842TIP3   OH236016   3.953   1.409  13.218 -0.4095  0.2866  0.4774
 4842TIP3    H136017   3.904   1.482  13.180  0.5419  0.7855  0.1767
 4842TIP3    H236018   3.923   1.332  13.170 -0.7189  0.6151  0.1373
 4843TIP3   OH236019   2.281   0.089  11.448  0.4389  0.0126 -0.6809
 4843TIP3    H136020   2.194   0.129  11.447  1.3154  2.0399  1.1926
 4843TIP3    H236021   2.336   0.151  11.401  0.9229 -1.2299 -1.7882
 4844TIP3   OH236022   2.866   1.142  16.823  0.1455  0.1644 -0.1534
 4844TIP3    H136023   2.810   1.189  16.761  1.4333  0.3300 -1.2004
 4844TIP3    H236024   2.955   1.156  16.791  0.8829  0.7177  2.0699
 4845TIP3   OH236025   0.530   5.261  16.874  0.2085  0.0634 -0.3929
 4845TIP3    H136026   0.580   5.197  16.924 -0.9565 -0.0584  0.6480
 4845TIP3    H236027   0.596   5.313  16.829  1.2552 -0.3525  0.6241
 4846TIP3   OH236028   1.797   5.522   5.111 -0.5504  0.5876 -0.3618
 4846TIP3    H136029   1.800   5.468   5.032  1.1510  1.0851 -0.6708
 4846TIP3    H236030   1.716   5.572   5.104 -0.4569  0.5539 -1.7341
 4847TIP3   OH236031   3.661   1.136   5.649 -0.3758 -0.3472 -0.2971
 4847TIP3    H136032   3.591   1.181   5.601  0.2745  0.9001 -0.1164
 4847TIP3    H236033   3.727   1.117   5.582  0.5351  1.3991  0.0472
 4848TIP3   OH236034   5.026   0.285  11.526  0.7065 -0.2444 -0.0791
 4848TIP3    H136035   5.039   0.311  11.435  0.9144  0.4280  0.1393
 4848TIP3    H236036   4.997   0.194  11.521 -0.4224  0.1524 -0.8666
 4849TIP3   OH236037   2.732   5.687   4.391  0.1725  0.1592  0.5108
 4849TIP3    H136038   2.795   5.615   4.398 -1.2903 -1.2526 -0.5053
 4849TIP3    H236039   2.739   5.715   4.300  0.2777  0.8937  0.7415
 4850TIP3   OH236040   2.517   1.711  11.583  0.4172 -0.1063  0.1719
 4850TIP3    H136041   2.571   1.744  11.654 -0.3626  0.9889  0.2452
 4850TIP3    H236042   2.521   1.615  11.593  0.7546  0.0234  1.3396
 4851TIP3   OH236043   6.368   3.920  12.441  0.2244  0.2244  0.1051
 4851TIP3    H136044   6.307   3.992  12.457  0.1564  0.7436 -2.3678
 4851TIP3    H236045   6.430   3.925  12.514 -1.0568  1.4064  1.1436
 4852TIP3   OH236046   1.425   2.906  13.962  0.1850  0.3073  0.2901
 4852TIP3    H136047   1.509   2.941  13.991  1.5673 -1.1956 -1.7787
 4852TIP3    H236048   1.381   2.880  14.043  1.0638  2.4745  1.5051
 4853TIP3   OH236049   2.677   2.728  16.938  0.5374 -0.6524 -0.4198
 4853TIP3    H136050   2.747   2.746  17.000  1.8465 -0.6868 -1.8750
 4853TIP3    H236051   2.639   2.814  16.919  0.6326 -0.5536 -0.1698
 4854TIP3   OH236052   4.741   3.575  15.034 -0.6776  0.1411  0.2233
 4854TIP3    H136053   4.711   3.613  14.952 -0.8393 -0.8027 -0.1585
 4854TIP3    H236054   4.704   3.487  15.035  2.0213 -1.0630 -0.2428
 4855TIP3   OH236055   6.513   0.328  13.728  0.4373  0.5754 -0.7418
 4855TIP3    H136056   6.559   0.353  13.648  0.5981 -2.7861 -1.7542
 4855TIP3    H236057   6.493   0.235  13.717 -2.4821  0.8180  1.6990
 4856TIP3   OH236058   0.617   4.639   4.099  0.5779 -0.3612 -0.3833
 4856TIP3    H136059   0.595   4.659   4.189  0.0114 -0.9946 -0.3780
 4856TIP3    H236060   0.630   4.544   4.098 -1.2421 -0.6150 -1.3509
 4857TIP3   OH236061   4.476   3.599  13.787 -0.1897 -0.2149 -0.6221
 4857TIP3    H136062   4.424   3.603  13.867  0.8413  0.6527  0.0098
 4857TIP3    H236063   4.425   3.647  13.722 -0.1170  0.7530  0.0313
 4858TIP3   OH236064   1.290   3.441   0.549  0.3636 -0.3488  0.4863
 4858TIP3    H136065   1.265   3.359   0.591  1.0031 -0.5878  0.4027
 4858TIP3    H236066   1.374   3.463   0.589  0.3842  0.0590  0.2179
 4859TIP3   OH236067   1.842   3.408  17.184  0.6386  0.4074 -0.2455
 4859TIP3    H136068   1.773   3.448  17.236 -1.1407 -2.5261 -0.2336
 4859TIP3    H236069   1.838   3.454  17.100 -1.3288  0.3464 -0.2165
 4860TIP3   OH236070   1.596   0.972  14.113  0.0816  0.4727  0.0162
 4860TIP3    H136071   1.669   1.019  14.074  0.8014  0.4552  1.3295
 4860TIP3    H236072   1.545   0.942  14.038  2.1765 -0.7547 -0.9577
 4861TIP3   OH236073   6.629   0.850   0.026 -0.9623 -0.2801 -0.8469
 4861TIP3    H136074   6.611   0.922  -0.034 -1.0850  0.7999  0.4806
 4861TIP3    H236075   6.570   0.780  -0.003 -2.2136  0.7988 -0.9650
 4862TIP3   OH236076   3.439   1.587  12.563  0.2595  0.6528 -0.0159
 4862TIP3    H136077   3.436   1.495  12.590 -0.9139  1.4604  2.7986
 4862TIP3    H236078   3.528   1.615  12.586 -0.2667  0.9413  1.7394
 4863TIP3   OH236079   0.848   2.956  11.443 -0.5553 -0.6037  0.1450
 4863TIP3    H136080   0.794   3.036  11.442 -2.1593 -1.6612  0.1588
 4863TIP3    H236081   0.912   2.969  11.373 -1.0180  0.5439 -0.0830
 4864TIP3   OH236082   1.641   1.400   6.151  0.4175  0.2403 -0.3059
 4864TIP3    H136083   1.593   1.448   6.219  1.0134  3.4313 -2.0365
 4864TIP3    H236084   1.638   1.308   6.180 -0.4405  1.3213  3.3361
 4865TIP3   OH236085   2.667   3.425  15.945  0.3794 -0.0420 -0.2718
 4865TIP3    H136086   2.675   3.468  15.860  0.8385 -1.3501 -0.9125
 4865TIP3    H236087   2.578   3.443  15.974  0.4272  0.9428 -0.7336
 4866TIP3   OH236088   5.076   0.789   2.857  0.9356 -0.1601 -0.4785
 4866TIP3    H136089   5.075   0.694   2.854 -0.5449 -0.1144 -2.8915
 4866TIP3    H236090   5.149   0.811   2.915  0.5807 -2.7507  1.0209
 4867TIP3   OH236091   5.892   6.155  14.116 -0.5636  0.2889  0.0404
 4867TIP3    H136092   5.807   6.118  14.140  0.0237 -0.9681  0.2637
 4867TIP3    H236093   5.948   6.136  14.192  0.0997  0.4644 -0.4012
 4868TIP3   OH236094   3.982   5.910   1.107  0.1746  0.2317  0.1601
 4868TIP3    H136095   3.970   5.999   1.141  3.4978  0.1074  1.8724
 4868TIP3    H236096   4.033   5.922   1.027 -3.4106  0.1488 -2.2272
 4869TIP3   OH236097   6.223   3.445  12.294 -0.8844  0.2297  0.5037
 4869TIP3    H136098   6.264   3.516  12.343 -1.6388 -0.7076  2.5703
 4869TIP3    H236099   6.272   3.367  12.320 -0.8672 -0.1879 -0.7804
 4870TIP3   OH236100   0.952   5.402   6.589 -0.3846 -0.2737 -0.4270
 4870TIP3    H136101   0.947   5.307   6.584  3.3894 -0.4326 -2.9070
 4870TIP3    H236102   0.934   5.432   6.500  0.2879  1.2150 -0.0853
 4871TIP3   OH236103   5.294   1.137   1.401  0.3795  0.0513  0.1399
 4871TIP3    H136104   5.204   1.109   1.385  0.6066 -0.4316 -0.3343
 4871TIP3    H236105   5.290   1.232   1.401 -0.4209  0.0373  1.8834
 4872TIP3   OH236106   2.309   2.835  11.916  0.4091  0.4740  0.3723
 4872TIP3    H136107   2.377   2.812  11.852 -1.1451 -0.5410 -0.9304
 4872TIP3    H236108   2.352   2.823  12.001  1.6073 -0.9549 -0.4121
 4873TIP3   OH236109   3.198   0.935  15.865  0.0906 -0.0157  0.4099
 4873TIP3    H136110   3.149   0.931  15.947  0.8773 -1.9229  0.8029
 4873TIP3    H236111   3.231   1.025  15.862 -1.0448  0.4596  1.5191
 4874TIP3   OH236112   2.016   1.325   5.704 -0.3944  0.2432  0.5901
 4874TIP3    H136113   1.971   1.364   5.630 -0.3762  1.3088  1.1305
 4874TIP3    H236114   2.109   1.330   5.681 -0.3934  0.5133  0.6482
 4875TIP3   OH236115   5.136   1.342   1.706  0.1080  1.3047 -0.2137
 4875TIP3    H136116   5.124   1.408   1.639 -0.0993  1.2671 -0.2132
 4875TIP3    H236117   5.072   1.274   1.686  0.1466  1.2225 -0.0672
 4876TIP3   OH236118   0.513   3.850   2.248  0.4631 -0.1312 -0.5501
 4876TIP3    H136119   0.493   3.758   2.261 -2.3515 -0.1312 -4.1471
 4876TIP3    H236120   0.604   3.852   2.220  0.7811 -1.7261  0.3248
 4877TIP3   OH236121   4.684   0.224  12.678  0.0697  0.2011 -0.1454
 4877TIP3    H136122   4.648   0.135  12.669 -0.4031  0.3173  0.5662
 4877TIP3    H236123   4.620   0.280  12.634  1.5109 -0.0287 -2.6912
 4878TIP3   OH236124   6.645   0.797   3.282 -0.5493  0.1331 -0.5191
 4878TIP3    H136125   6.664   0.857   3.210  0.6545  0.9644  0.4666
 4878TIP3    H236126   6.677   0.842   3.360 -0.8605 -1.2153  0.4100
 4879TIP3   OH236127   3.459   3.804  13.028  0.0218 -0.6382 -0.3457
 4879TIP3    H136128   3.426   3.876  12.974 -1.2967 -0.6383  0.4348
 4879TIP3    H236129   3.387   3.741  13.030  0.9245 -1.6852 -0.4752
 4880TIP3   OH236130   5.220   0.861   2.621 -0.4563 -0.1497 -0.2734
 4880TIP3    H136131   5.144   0.841   2.677 -0.9294 -0.1104 -0.9022
 4880TIP3    H236132   5.292   0.874   2.683 -0.6779 -1.4213  0.2717
 4881TIP3   OH236133   0.200   2.739   5.687  0.9835  0.0595 -0.0513
 4881TIP3    H136134   0.122   2.686   5.675 -0.8443  2.3355  1.4262
 4881TIP3    H236135   0.168   2.829   5.695  3.5735  0.8526  2.4257
 4882TIP3   OH236136   3.980   6.419   1.699  0.1052 -0.1461  0.0828
 4882TIP3    H136137   3.984   6.324   1.710  0.2260 -0.2710 -0.9935
 4882TIP3    H236138   3.969   6.432   1.604  0.8217  0.9301  0.1424
 4883TIP3   OH236139   0.710   3.149  13.145  0.0420  0.1941  0.1007
 4883TIP3    H136140   0.677   3.059  13.144  0.5567 -0.0054  0.4291
 4883TIP3    H236141   0.723   3.171  13.053 -1.0142  0.2796 -0.0238
 4884TIP3   OH236142   4.491   0.001  16.474  0.6244 -0.2214  0.0098
 4884TIP3    H136143   4.459   0.084  16.438  0.9604 -0.2713 -0.4054
 4884TIP3    H236144   4.471   0.007  16.568  0.1785  0.1086 -0.1005
 4885TIP3   OH236145   1.054   6.089  13.793 -0.6081  0.5488  0.2784
 4885TIP3    H136146   1.022   6.002  13.769 -1.5154  1.2867 -1.2464
 4885TIP3    H236147   1.147   6.088  13.768  0.2372 -1.0049  3.1383
 4886TIP3   OH236148   6.398   5.476   5.433  0.0174 -0.1323 -0.0275
 4886TIP3    H136149   6.448   5.550   5.469  2.5932 -0.9578 -1.7183
 4886TIP3    H236150   6.424   5.402   5.488  0.0137 -0.3963 -0.3805
 4887TIP3   OH236151   0.185   3.621  15.780  0.9777 -0.4411  0.5068
 4887TIP3    H136152   0.277   3.647  15.788  1.1492 -0.7472 -0.4131
 4887TIP3    H236153   0.172   3.607  15.686 -0.3609  0.8442  0.4868
 4888TIP3   OH236154   0.697   2.294   3.989 -0.0359  0.2863  0.5029
 4888TIP3    H136155   0.748   2.307   4.069 -0.3925  0.1885  0.7453
 4888TIP3    H236156   0.642   2.372   3.983 -0.8862 -0.2783  1.0016
 4889TIP3   OH236157   0.320   4.805  15.668  0.3212  0.0253 -0.2998
 4889TIP3    H136158   0.387   4.747  15.704 -0.0963 -0.5678 -0.4682
 4889TIP3    H236159   0.257   4.746  15.627  0.2322  0.6405 -1.0490
 4890TIP3   OH236160   5.085   0.491  15.245 -0.3289  0.1104 -0.6301
 4890TIP3    H136161   5.110   0.491  15.338  0.5395 -0.5085 -0.8540
 4890TIP3    H236162   5.155   0.540  15.202  0.3892 -1.3906 -1.2256
 4891TIP3   OH236163   3.257   3.320   4.189 -0.5105  0.6165  0.2245
 4891TIP3    H136164   3.228   3.398   4.142 -1.8884  1.1200  1.8605
 4891TIP3    H236165   3.205   3.319   4.269 -1.1731 -2.5164 -0.1847
 4892TIP3   OH236166   5.119   2.071   6.016 -0.1762 -0.2363  0.3581
 4892TIP3    H136167   5.188   2.077   6.083  0.0493 -0.3380  0.1343
 4892TIP3    H236168   5.147   2.000   5.958 -0.4711 -0.2807  0.2673
 4893TIP3   OH236169   0.976   4.189  12.543  0.0428  0.2691 -0.1067
 4893TIP3    H136170   1.008   4.104  12.575 -1.4707 -0.5927 -0.8122
 4893TIP3    H236171   1.054   4.243  12.537  1.0284 -1.0557  0.4326
 4894TIP3   OH236172   3.906   5.927   5.948 -0.2192  0.4871  0.3970
 4894TIP3    H136173   3.925   5.840   5.912  2.3909  1.0170  0.3712
 4894TIP3    H236174   3.888   5.981   5.872 -1.2916  0.1139  0.3750
 4895TIP3   OH236175   2.303   2.513  14.010 -0.1531 -0.8317  0.0996
 4895TIP3    H136176   2.312   2.417  14.002 -0.9599 -0.9401  0.4885
 4895TIP3    H236177   2.392   2.545  14.002  0.0471 -1.5683 -0.7987
 4896TIP3   OH236178   6.037   4.701   5.364 -0.1979  0.0147  0.2033
 4896TIP3    H136179   5.955   4.653   5.354 -0.0579  0.0649 -1.4177
 4896TIP3    H236180   6.092   4.671   5.291  1.2980 -0.1578  1.3831
 4897TIP3   OH236181   0.510   4.154   2.634  0.4812  0.0980  0.2531
 4897TIP3    H136182   0.459   4.213   2.689  1.6733  0.0380  1.4509
 4897TIP3    H236183   0.561   4.211   2.577  0.0020  0.1779 -0.0970
 4898TIP3   OH236184   1.615   5.053   6.742  0.0594  0.1593  0.6857
 4898TIP3    H136185   1.689   5.035   6.799  1.4332  1.0963 -0.7630
 4898TIP3    H236186   1.551   5.097   6.798  2.1147  2.6829  1.1255
 4899TIP3   OH236187   0.097   2.469   1.661  0.6534 -0.0802  0.0271
 4899TIP3    H136188   0.006   2.440   1.659  0.9058 -0.8583 -0.3680
 4899TIP3    H236189   0.094   2.559   1.629  0.1039 -0.3156 -0.5847
 4900TIP3   OH236190   0.617   3.403  12.405 -0.0287 -0.0835 -0.3207
 4900TIP3    H136191   0.704   3.403  12.446 -0.8928 -0.3258  1.5751
 4900TIP3    H236192   0.634   3.424  12.313  1.9569  0.6194  0.1774
 4901TIP3   OH236193   2.841   1.449  13.897  0.0129 -0.5157  0.2536
 4901TIP3    H136194   2.844   1.544  13.913  1.0505 -0.5028  0.0081
 4901TIP3    H236195   2.748   1.427  13.901 -0.5804  1.0892 -3.0071
 4902TIP3   OH236196   5.451   1.927  15.518  0.1959 -0.3872 -0.0055
 4902TIP3    H136197   5.360   1.928  15.547  0.3815 -0.3198  0.5750
 4902TIP3    H236198   5.447   1.893  15.428 -0.5520  1.0102 -0.5158
 4903TIP3   OH236199   2.882   1.752   4.219 -0.0427  0.2617  0.1849
 4903TIP3    H136200   2.849   1.829   4.265  0.6675 -0.3287  1.6894
 4903TIP3    H236201   2.977   1.761   4.221  0.0018  1.3544 -3.1215
 4904TIP3   OH236202   4.990   0.776  14.622  0.0716  0.3327  0.1401
 4904TIP3    H136203   4.980   0.824  14.540 -0.3835  1.2854  0.7441
 4904TIP3    H236204   5.034   0.837  14.681 -1.5608  0.4424  1.2726
 4905TIP3   OH236205   1.396   5.199   2.620 -0.5784  0.5557  0.0426
 4905TIP3    H136206   1.316   5.227   2.664 -0.4520  0.5767  0.2649
 4905TIP3    H236207   1.463   5.204   2.688 -0.4384  0.2927 -0.0765
 4906TIP3   OH236208   5.258   3.613  15.516 -0.0643 -0.2205  0.1295
 4906TIP3    H136209   5.201   3.686  15.542  2.6246  1.5336  1.4002
 4906TIP3    H236210   5.257   3.615  15.421 -1.2712  0.4869  0.1444
 4907TIP3   OH236211   4.142   6.637   3.137 -0.6837  0.2363  0.2917
 4907TIP3    H136212   4.084   6.707   3.108  0.7669  1.4359  0.1623
 4907TIP3    H236213   4.089   6.583   3.194 -1.9590  1.2068  0.0428
 4908TIP3   OH236214   0.125   5.023   4.558 -0.1502 -0.1102 -0.5404
 4908TIP3    H136215   0.125   5.118   4.568  0.3275 -0.2359  0.7441
 4908TIP3    H236216   0.177   4.991   4.632  2.3404 -1.1831 -2.6813
 4909TIP3   OH236217   3.698   0.404   5.915  0.1362 -0.3100 -0.0925
 4909TIP3    H136218   3.619   0.358   5.942 -1.1478  2.9984  2.1833
 4909TIP3    H236219   3.677   0.439   5.828  0.2879 -2.0206 -0.8340
 4910TIP3   OH236220   1.287   6.250  14.685 -0.5534 -0.2064  0.3294
 4910TIP3    H136221   1.312   6.272  14.595 -1.3470 -1.9366 -0.3340
 4910TIP3    H236222   1.212   6.306  14.703 -0.4931  0.0303 -0.1370
 4911TIP3   OH236223   3.530   6.671  10.970 -0.4766  0.3212  0.2766
 4911TIP3    H136224   3.444   6.657  10.930  0.2811 -0.0161 -1.3183
 4911TIP3    H236225   3.562   6.582  10.987 -0.3353  0.4407  0.6316
 4912TIP3   OH236226   1.029   1.042   0.118 -0.0707 -0.2006 -0.1395
 4912TIP3    H136227   0.981   0.988   0.180  0.9562  0.3194  1.1376
 4912TIP3    H236228   0.963   1.071   0.055 -1.2812 -0.1459  1.1323
 4913TIP3   OH236229   5.876   0.662   4.451 -0.0060 -0.0486 -0.0349
 4913TIP3    H136230   5.852   0.623   4.534  0.2855  0.2985  0.2141
 4913TIP3    H236231   5.962   0.701   4.466  1.3815 -2.4932 -1.3126
 4914TIP3   OH236232   4.160   4.202  15.169  0.0568  0.0623 -0.9505
 4914TIP3    H136233   4.184   4.114  15.140  0.6144 -0.0686 -0.1240
 4914TIP3    H236234   4.089   4.187  15.232  0.6257  0.1569 -0.2906
 4915TIP3   OH236235   0.850   6.511   2.997  0.6157 -0.4455 -0.0673
 4915TIP3    H136236   0.912   6.553   3.057  1.6318 -2.6765  0.4910
 4915TIP3    H236237   0.877   6.540   2.910  0.6283  0.8887  0.3698
 4916TIP3   OH236238   0.656   0.554  17.273  0.2252  0.2424  0.1345
 4916TIP3    H136239   0.618   0.467  17.266  1.1901 -0.5191  3.3420
 4916TIP3    H236240   0.737   0.550  17.223 -0.5050 -0.1947 -1.0393
 4917TIP3   OH236241   2.350   1.041   6.291  0.7824  0.0310  0.9135
 4917TIP3    H136242   2.260   1.055   6.321  1.1630  0.2812  1.9804
 4917TIP3    H236243   2.396   1.008   6.369  1.6287 -0.0201  0.3981
 4918TIP3   OH236244   2.550   5.853  16.771  0.1131  0.9903 -0.5853
 4918TIP3    H136245   2.576   5.897  16.690  0.5304  0.7161 -0.6025
 4918TIP3    H236246   2.462   5.819  16.754 -0.5203  2.4411 -0.3300
 4919TIP3   OH236247   1.406   4.502   5.762  0.4828 -0.2280  0.4092
 4919TIP3    H136248   1.427   4.553   5.683  2.1051 -1.7113 -0.1346
 4919TIP3    H236249   1.396   4.412   5.730 -1.1499 -0.4747  1.5596
 4920TIP3   OH236250   1.631   2.285  10.844 -0.5843 -0.2743  0.3329
 4920TIP3    H136251   1.598   2.338  10.771 -0.4051  0.4076  0.7436
 4920TIP3    H236252   1.644   2.348  10.915  0.9810 -0.6373  0.3836
 4921TIP3   OH236253   5.289   0.177   3.388  0.6223  0.2119  0.1669
 4921TIP3    H136254   5.381   0.178   3.362  0.8067  0.3737  0.8318
 4921TIP3    H236255   5.271   0.267   3.416 -0.0670  0.4893 -1.0953
 4922TIP3   OH236256   4.481   4.733  15.307 -0.5047 -0.5616 -0.2289
 4922TIP3    H136257   4.442   4.728  15.220  1.1891  0.0188 -1.0253
 4922TIP3    H236258   4.530   4.651  15.317  0.4976  0.0263 -0.3870
 4923TIP3   OH236259   2.465   4.797   3.611  0.0664 -0.1723  0.0057
 4923TIP3    H136260   2.520   4.857   3.561 -0.6152  1.9265  1.7011
 4923TIP3    H236261   2.389   4.849   3.636 -0.5764 -1.7693  1.4623
 4924TIP3   OH236262   4.142   1.298  14.601  0.3752  0.3304 -0.2412
 4924TIP3    H136263   4.192   1.270  14.678 -2.2177 -1.2260  0.9542
 4924TIP3    H236264   4.154   1.227  14.538 -0.9330 -0.4340  0.3495
 4925TIP3   OH236265   0.309   3.330   1.989 -0.2417 -0.5853 -0.4650
 4925TIP3    H136266   0.285   3.251   1.941 -1.2725 -0.2381 -0.5206
 4925TIP3    H236267   0.226   3.375   2.006  0.2562  0.0654  0.3000
 4926TIP3   OH236268   1.641   2.237   2.458  0.2232  0.0222  0.6812
 4926TIP3    H136269   1.699   2.191   2.397 -0.8225 -0.3754 -0.0299
 4926TIP3    H236270   1.562   2.256   2.407 -0.5740 -0.1063  1.8405
 4927TIP3   OH236271   0.679   3.869  11.748 -0.0277  0.4096  0.5691
 4927TIP3    H136272   0.599   3.918  11.767 -0.1693  0.3785  0.0756
 4927TIP3    H236273   0.651   3.778  11.747  0.1861  0.3412  1.2474
 4928TIP3   OH236274   5.461   2.173  14.417  0.3315  0.3111  0.2114
 4928TIP3    H136275   5.471   2.158  14.511 -0.5220 -0.4878  0.1755
 4928TIP3    H236276   5.549   2.159  14.382  0.6421  0.5445  0.8811
 4929TIP3   OH236277   1.986   6.014  12.450  0.6920 -0.2688  0.4378
 4929TIP3    H136278   2.044   6.021  12.526  0.1829  3.0831  0.5815
 4929TIP3    H236279   2.009   6.090  12.396 -3.5664  1.1921  0.5200
 4930TIP3   OH236280   1.285   4.225  15.370  0.5359  0.1196  0.3892
 4930TIP3    H136281   1.362   4.280  15.357 -0.1684  1.1823  0.6992
 4930TIP3    H236282   1.276   4.177  15.287  1.0633  0.5674  0.0672
 4931TIP3   OH236283   3.714   1.241   2.638 -0.1981 -0.0774 -0.9121
 4931TIP3    H136284   3.629   1.265   2.601 -0.9179  0.3086  0.9538
 4931TIP3    H236285   3.704   1.253   2.732  1.9633  0.0588 -0.6698
 4932TIP3   OH236286   5.437   5.216  16.664 -0.0018 -0.1006  0.7120
 4932TIP3    H136287   5.487   5.297  16.675  0.5907 -0.3166 -0.3691
 4932TIP3    H236288   5.348   5.240  16.690  0.7909  0.0941  3.3002
 4933TIP3   OH236289   5.945   4.715  16.546 -0.4214 -0.2316 -0.2966
 4933TIP3    H136290   5.906   4.648  16.602  1.6245 -0.7643  0.5517
 4933TIP3    H236291   5.984   4.665  16.474 -0.8468  0.2358 -0.8456
 4934TIP3   OH236292   2.673   5.857   5.692  0.2868  0.5728  0.1960
 4934TIP3    H136293   2.714   5.881   5.775 -1.3781  1.3329  0.8194
 4934TIP3    H236294   2.705   5.922   5.630  1.3816  0.1191  0.2788
 4935TIP3   OH236295   5.568   1.368   1.818 -0.0980 -0.3914  0.0614
 4935TIP3    H136296   5.542   1.393   1.730  0.0986 -0.6775 -0.0773
 4935TIP3    H236297   5.538   1.441   1.873  1.6521  0.7891 -0.5006
 4936TIP3   OH236298   6.380   4.213  14.738 -0.7286 -0.1188 -0.3781
 4936TIP3    H136299   6.388   4.127  14.696 -3.1860  0.0503 -1.2651
 4936TIP3    H236300   6.422   4.274  14.677 -1.3921 -0.3226 -1.0379
 4937TIP3   OH236301   4.449   5.993  12.844 -0.2350  0.3970  0.3260
 4937TIP3    H136302   4.483   6.056  12.781  1.1700 -0.4529  0.2113
 4937TIP3    H236303   4.490   6.017  12.927  0.1402 -0.2204  0.3249
 4938TIP3   OH236304   6.398   3.604   4.028 -0.4981  0.2078  0.2104
 4938TIP3    H136305   6.378   3.511   4.020 -0.0955  0.0051  1.4582
 4938TIP3    H236306   6.318   3.643   4.064 -0.5140  0.2816  0.0967
 4939TIP3   OH236307   5.805   6.072  14.858  0.6660 -0.2154  0.3773
 4939TIP3    H136308   5.783   6.160  14.889  1.1068  0.1905 -0.4595
 4939TIP3    H236309   5.762   6.013  14.920 -0.2017  0.5844  0.5373
 4940TIP3   OH236310   6.197   4.165   1.476 -0.1759  0.2237 -0.1401
 4940TIP3    H136311   6.113   4.172   1.522 -0.0778 -0.2241  0.1062
 4940TIP3    H236312   6.198   4.076   1.442 -0.8837  1.0004 -2.2395
 4941TIP3   OH236313   5.122   4.524   1.096 -0.5071 -0.7891 -0.1703
 4941TIP3    H136314   5.111   4.556   1.186  1.5466 -0.1870 -0.1020
 4941TIP3    H236315   5.123   4.429   1.104 -0.2591 -0.7358  0.4480
 4942TIP3   OH236316   5.269   0.142   3.992  0.1102 -0.3322 -0.2817
 4942TIP3    H136317   5.271   0.080   4.065 -0.0300  0.9094  0.8003
 4942TIP3    H236318   5.337   0.206   4.014 -1.1942  1.0851 -0.3002
 4943TIP3   OH236319   5.013   5.963  12.952  0.2485  0.6721 -0.4320
 4943TIP3    H136320   4.925   5.927  12.939  0.8141 -0.7374 -0.3940
 4943TIP3    H236321   5.026   6.020  12.876 -0.4903  0.4698 -0.7189
 4944TIP3   OH236322   0.809   4.680   4.969 -0.0998 -0.4509  0.1392
 4944TIP3    H136323   0.811   4.775   4.973  0.4864 -0.4429 -0.3333
 4944TIP3    H236324   0.813   4.652   5.061  1.9692 -0.0572  0.1837
 4945TIP3   OH236325   3.780   2.282  14.872  0.9077  0.7012  0.0348
 4945TIP3    H136326   3.857   2.325  14.835  1.2756 -0.3564 -0.4492
 4945TIP3    H236327   3.746   2.227  14.801  0.5370  0.0819  0.6836
 4946TIP3   OH236328   1.168   0.104  11.984 -0.4432 -0.1084 -0.3715
 4946TIP3    H136329   1.222   0.172  12.026  0.1335 -2.3621  2.6899
 4946TIP3    H236330   1.087   0.104  12.034 -1.1142 -0.5249 -1.4481
 4947TIP3   OH236331   1.337   5.695   6.806  0.5797 -0.1306  0.1254
 4947TIP3    H136332   1.416   5.657   6.768  1.0423  1.0764 -0.1371
 4947TIP3    H236333   1.360   5.786   6.824 -1.5501  1.0029 -2.4520
 4948TIP3   OH236334   3.903   4.733   4.590  0.3359 -0.5814  0.5300
 4948TIP3    H136335   3.828   4.747   4.648  0.4826  0.6445  0.4343
 4948TIP3    H236336   3.978   4.768   4.638  0.6491 -0.6530  0.0951
 4949TIP3   OH236337   1.137   6.769   5.163  0.1236  0.3407  0.1605
 4949TIP3    H136338   1.187   6.826   5.106 -0.9413  0.3452 -0.8007
 4949TIP3    H236339   1.153   6.681   5.129  2.2593 -0.0167  2.0224
 4950TIP3   OH236340   6.406   0.804  14.987  0.6047 -0.4295 -0.2451
 4950TIP3    H136341   6.416   0.744  15.061  0.0270 -0.3427 -0.0948
 4950TIP3    H236342   6.338   0.865  15.015  1.3813  0.4745 -0.2826
 4951TIP3   OH236343   3.272   6.372  13.015 -0.3257 -0.0252 -0.4949
 4951TIP3    H136344   3.315   6.391  12.932  0.8870  1.0395  0.3434
 4951TIP3    H236345   3.179   6.382  12.998 -0.3084 -2.8440 -2.4825
 4952TIP3   OH236346   5.228   1.737   5.477 -0.0370  0.0106 -0.5954
 4952TIP3    H136347   5.228   1.819   5.428  0.9038  0.6227  0.4081
 4952TIP3    H236348   5.312   1.735   5.523 -0.4927 -0.9974  0.2382
 4953TIP3   OH236349   5.683   3.229  13.434  0.8061  0.4376 -0.2708
 4953TIP3    H136350   5.654   3.316  13.410  1.0193  0.4461 -0.5047
 4953TIP3    H236351   5.725   3.240  13.519  1.1298  0.6241 -0.4530
 4954TIP3   OH236352   0.111   2.521  12.243  0.0615  0.2133 -0.8079
 4954TIP3    H136353   0.158   2.494  12.164  1.5505  1.9076 -0.5341
 4954TIP3    H236354   0.086   2.612  12.227 -2.2323 -0.3253 -0.5022
 4955TIP3   OH236355   0.485   4.189   5.924  0.6424 -0.0452 -0.2520
 4955TIP3    H136356   0.512   4.097   5.927  2.4478  0.4095 -1.7698
 4955TIP3    H236357   0.567   4.238   5.931 -0.3206  1.4750  0.7581
 4956TIP3   OH236358   3.588   3.521   5.573  0.1073  0.2897  0.3489
 4956TIP3    H136359   3.672   3.565   5.583  1.0846 -1.1963 -1.0763
 4956TIP3    H236360   3.585   3.457   5.644 -0.5460  1.4131  1.3595
 4957TIP3   OH236361   5.174   4.330   3.183  0.1878  0.3457 -0.1794
 4957TIP3    H136362   5.110   4.276   3.138  1.5504 -1.3858 -0.0649
 4957TIP3    H236363   5.189   4.285   3.267 -0.4479  2.1796  0.9554
 4958TIP3   OH236364   1.992   5.594   1.826  0.1083 -0.6328 -0.5049
 4958TIP3    H136365   2.062   5.563   1.769  1.5561  0.9955  0.3257
 4958TIP3    H236366   1.967   5.678   1.788 -0.4876 -0.6047 -0.0508
 4959TIP3   OH236367   3.525   0.272   0.643  0.3449 -0.3230  0.1550
 4959TIP3    H136368   3.499   0.236   0.559  0.1841  1.1006 -0.4277
 4959TIP3    H236369   3.493   0.363   0.641  1.2982  0.0548  1.2888
 4960TIP3   OH236370   5.225   2.925   0.360  0.9079  0.1030 -0.0762
 4960TIP3    H136371   5.317   2.898   0.358 -0.3403 -4.6632  1.3355
 4960TIP3    H236372   5.202   2.922   0.453 -1.1997 -0.7110 -0.6150
 4961TIP3   OH236373   3.302   1.181  12.449  0.4198 -0.4354  0.3515
 4961TIP3    H136374   3.360   1.116  12.410 -0.2926 -0.4671 -0.6829
 4961TIP3    H236375   3.219   1.136  12.461 -0.3335  0.5037 -1.1615
 4962TIP3   OH236376   5.776   2.633  16.122  0.0164  0.1340  0.5250
 4962TIP3    H136377   5.734   2.714  16.093  1.0172  1.0278  1.5179
 4962TIP3    H236378   5.749   2.624  16.213  0.9680  0.0468  0.7994
 4963TIP3   OH236379   6.688   4.200  14.888  0.2755 -0.4952 -0.1447
 4963TIP3    H136380   6.720   4.286  14.861  0.7526 -0.3399  0.8520
 4963TIP3    H236381   6.731   4.138  14.829  1.4782 -0.1885  0.3880
 4964TIP3   OH236382   5.511   0.471  14.810 -0.0794 -0.6304  0.3120
 4964TIP3    H136383   5.514   0.563  14.835 -0.5395 -0.5633  0.1219
 4964TIP3    H236384   5.602   0.441  14.817  0.0401 -0.2098  0.5430
 4965TIP3   OH236385   1.233   4.576   5.273 -0.2701  0.7366 -0.0050
 4965TIP3    H136386   1.280   4.543   5.196  1.3619  0.9374  0.8903
 4965TIP3    H236387   1.181   4.502   5.302 -0.9180  0.6574 -1.3025
 4966TIP3   OH236388   5.575   0.194   2.149 -0.0615  0.0383 -0.1202
 4966TIP3    H136389   5.669   0.204   2.165  0.4909  0.5600 -3.4062
 4966TIP3    H236390   5.551   0.271   2.098 -1.9762 -0.7975 -0.5277
 4967TIP3   OH236391   0.570   1.824   0.928  0.2641 -0.3966  0.2799
 4967TIP3    H136392   0.502   1.826   0.860  0.8103  0.2692 -0.2620
 4967TIP3    H236393   0.540   1.887   0.993 -1.7989 -3.2572  2.1994
 4968TIP3   OH236394   1.233   3.064  13.817 -0.0086  0.6645  0.6653
 4968TIP3    H136395   1.255   3.157  13.813  0.8596  0.4628  0.5430
 4968TIP3    H236396   1.302   3.026  13.871 -0.5248  0.1403  0.9575
 4969TIP3   OH236397   4.664   0.498  16.770  0.2236 -0.0411 -0.2784
 4969TIP3    H136398   4.643   0.424  16.827 -0.6680 -0.1780 -0.7785
 4969TIP3    H236399   4.759   0.501  16.769  0.3023 -2.1203 -1.4810
 4970TIP3   OH236400   4.165   2.825   4.849  0.1981  0.2418  0.2022
 4970TIP3    H136401   4.166   2.917   4.820 -1.2868  0.0241 -0.5666
 4970TIP3    H236402   4.171   2.830   4.944  0.0063  1.1506  0.1742
 4971TIP3   OH236403   4.339   1.199  16.354 -0.2143  0.3879  0.3102
 4971TIP3    H136404   4.341   1.254  16.276 -0.2875 -1.0904 -0.7606
 4971TIP3    H236405   4.413   1.140  16.343 -0.5958 -0.2392  1.0631
 4972TIP3   OH236406   4.413   2.075   3.483  0.6107  0.1738 -0.3863
 4972TIP3    H136407   4.457   2.151   3.521  0.4974 -0.2341  0.5850
 4972TIP3    H236408   4.324   2.105   3.464  0.4561  0.1831  0.3412
 4973TIP3   OH236409   4.230   5.929  16.793 -0.1525 -0.5257 -0.5794
 4973TIP3    H136410   4.191   5.849  16.758  1.3512 -0.4778 -2.4585
 4973TIP3    H236411   4.219   5.994  16.724 -1.7845  1.0644  1.1138
 4974TIP3   OH236412   0.790   3.514   0.171  0.2544 -0.5354  0.0110
 4974TIP3    H136413   0.820   3.543   0.085 -1.3387  1.3159  0.0439
 4974TIP3    H236414   0.731   3.440   0.151  1.1359 -1.1441 -0.3644
 4975TIP3   OH236415   0.506   6.796  10.563 -0.4702  0.0625 -0.2319
 4975TIP3    H136416   0.484   6.837  10.479  0.7532 -0.4709 -0.8226
 4975TIP3    H236417   0.601   6.802  10.568 -0.5572  0.2854  1.2289
 4976TIP3   OH236418   0.641   5.332   5.334 -0.2323  0.9114  0.2080
 4976TIP3    H136419   0.664   5.249   5.377  2.2664  1.5103  0.1367
 4976TIP3    H236420   0.546   5.333   5.332 -0.3701 -3.5831 -2.8884
 4977TIP3   OH236421   0.548   2.726  16.136 -0.2076 -0.0656  0.2595
 4977TIP3    H136422   0.462   2.693  16.110 -0.8977  2.6221 -1.0508
 4977TIP3    H236423   0.600   2.647  16.154 -2.2672 -1.7775 -1.1161
 4978TIP3   OH236424   5.323   3.212  10.985 -0.2449 -0.2457  0.2232
 4978TIP3    H136425   5.232   3.191  10.962 -1.2099  1.5789  2.2402
 4978TIP3    H236426   5.370   3.130  10.973 -1.7740 -0.7608 -2.6950
 4979TIP3   OH236427   5.571   4.785   0.271  0.2848 -0.4688 -0.6098
 4979TIP3    H136428   5.619   4.822   0.197  0.9931 -1.0615 -0.4582
 4979TIP3    H236429   5.480   4.784   0.243  0.4736 -0.1222 -1.2374
 4980TIP3   OH236430   2.179   0.395   1.482  0.8512 -0.4588 -0.0386
 4980TIP3    H136431   2.143   0.386   1.570 -0.6787 -0.3339 -0.6339
 4980TIP3    H236432   2.221   0.481   1.483 -2.5145  1.3031 -0.5367
 4981TIP3   OH236433   1.845   3.941  13.860  0.3572  0.1490  0.0812
 4981TIP3    H136434   1.901   3.953  13.783 -0.6948  1.3551 -0.5049
 4981TIP3    H236435   1.776   4.006  13.851  1.5619  2.0071  3.2853
 4982TIP3   OH236436   2.607   2.323   5.283  0.2459  0.2665  0.2998
 4982TIP3    H136437   2.607   2.268   5.362  0.2999 -0.5293 -0.2494
 4982TIP3    H236438   2.639   2.408   5.314  0.1473 -0.0016  1.1643
 4983TIP3   OH236439   0.863   1.306   6.040  0.4821 -0.0259 -0.2484
 4983TIP3    H136440   0.946   1.260   6.052 -0.1727 -1.6580 -1.8006
 4983TIP3    H236441   0.810   1.279   6.115  0.1159 -1.8055 -1.1291
 4984TIP3   OH236442   0.422   3.143   2.461  0.6760 -0.4842 -0.4330
 4984TIP3    H136443   0.352   3.078   2.453 -0.2058  0.5977 -1.6573
 4984TIP3    H236444   0.455   3.154   2.372  0.4830  1.1066 -0.3179
 4985TIP3   OH236445   2.930   2.753  11.159 -0.2514 -0.2676  0.6710
 4985TIP3    H136446   2.915   2.681  11.221  2.3741 -1.6714 -0.2689
 4985TIP3    H236447   3.023   2.771  11.165 -0.2810  0.7540 -1.6299
 4986TIP3   OH236448   1.893   5.020   5.140  0.2574 -0.5200  0.5709
 4986TIP3    H136449   1.943   4.989   5.216  1.5448 -1.0016 -0.4503
 4986TIP3    H236450   1.889   4.945   5.082  3.4100  1.1353 -1.9373
 4987TIP3   OH236451   2.933   1.790   2.185  0.3903  0.3372 -0.0520
 4987TIP3    H136452   3.014   1.814   2.230  1.9043 -0.6808 -2.1803
 4987TIP3    H236453   2.867   1.791   2.254  2.4411 -0.0943  1.9885
 4988TIP3   OH236454   2.323   2.170  13.947  0.2334 -0.3389  0.3366
 4988TIP3    H136455   2.306   2.171  13.853 -1.0496  1.4000  0.5656
 4988TIP3    H236456   2.338   2.078  13.968  0.9275 -0.6933 -1.6371
 4989TIP3   OH236457   5.765   2.655   4.899  0.0696  0.2311 -0.0663
 4989TIP3    H136458   5.732   2.701   4.822  0.2220  1.4723  0.5899
 4989TIP3    H236459   5.854   2.689   4.910  0.5971 -1.0608 -0.2204
 4990TIP3   OH236460   5.914   5.213   3.342 -0.0727  0.5124  0.4128
 4990TIP3    H136461   5.901   5.307   3.351  0.3931  0.8006 -1.6553
 4990TIP3    H236462   5.988   5.193   3.399  0.2497  1.5138  0.3544
 4991TIP3   OH236463   6.124   5.924   5.473 -0.2164  0.0765 -0.0614
 4991TIP3    H136464   6.126   5.846   5.528  0.6807 -0.5067 -0.9006
 4991TIP3    H236465   6.201   5.915   5.416 -0.2341  1.4616 -0.3079
 4992TIP3   OH236466   5.247   3.840  16.374  0.0446  0.1792 -0.1563
 4992TIP3    H136467   5.210   3.859  16.460 -1.5087 -2.2305 -0.2562
 4992TIP3    H236468   5.204   3.901  16.315 -0.7563  0.1472  0.3937
 4993TIP3   OH236469   4.917   5.482   1.210  0.2281  0.0121 -0.0602
 4993TIP3    H136470   4.892   5.520   1.125  0.3676 -0.0207 -0.1163
 4993TIP3    H236471   4.838   5.439   1.241  0.5737 -1.2048 -0.8427
 4994TIP3   OH236472   6.337   6.677   2.752 -0.0627  0.5479  0.9375
 4994TIP3    H136473   6.385   6.743   2.802 -0.3036  0.0600  1.8353
 4994TIP3    H236474   6.286   6.630   2.818  1.2300 -1.5042  0.5240
 4995TIP3   OH236475   5.009   5.188   4.666  0.4074 -0.3304  0.2770
 4995TIP3    H136476   5.019   5.205   4.760 -0.4615 -1.1892  0.5421
 4995TIP3    H236477   4.959   5.263   4.634  2.1666  0.8097  0.1602
 4996TIP3   OH236478   4.235   4.455  14.439  0.5443 -0.1920  0.1196
 4996TIP3    H136479   4.293   4.386  14.405 -1.2010 -0.5148 -2.2956
 4996TIP3    H236480   4.185   4.411  14.508  1.2575 -0.6226  0.3773
 4997TIP3   OH236481   2.732   3.680   3.159  0.2098  0.6126  0.4982
 4997TIP3    H136482   2.675   3.654   3.087 -1.1334  2.2429  0.9543
 4997TIP3    H236483   2.799   3.612   3.162 -0.5462 -0.2382 -1.3537
 4998TIP3   OH236484   1.428   3.256  13.579 -0.8097 -0.0838  0.3687
 4998TIP3    H136485   1.404   3.335  13.628  1.9921  1.3646 -0.5332
 4998TIP3    H236486   1.479   3.204  13.641  1.1458  0.8920 -0.3948
 4999TIP3   OH236487   6.059   0.771  15.767 -0.0566  0.3460 -0.3978
 4999TIP3    H136488   6.025   0.846  15.816  0.7300  0.8111 -0.5473
 4999TIP3    H236489   6.149   0.795  15.747  0.1303 -0.5533 -0.6435
 5000TIP3   OH236490   1.813   5.120   1.822 -0.2789 -0.7070  0.4711
 5000TIP3    H136491   1.899   5.077   1.820 -0.9055 -1.9141 -0.8337
 5000TIP3    H236492   1.817   5.186   1.752 -0.7710 -1.4628 -0.2740
 5001TIP3   OH236493   0.475   6.238   3.913  0.0819 -0.2619 -0.0103
 5001TIP3    H136494   0.537   6.198   3.851 -0.0665 -1.5586  0.6454
 5001TIP3    H236495   0.397   6.184   3.907 -1.0440  1.4533 -0.9140
 5002TIP3   OH236496   1.138   0.842  13.783  0.1461 -0.1304 -0.1676
 5002TIP3    H136497   1.120   0.779  13.714  0.3878  1.0481 -1.3317
 5002TIP3    H236498   1.069   0.827  13.848 -0.1034 -1.2173 -0.6816
 5003TIP3   OH236499   2.796   1.283   1.307  0.1002 -0.5736  0.3883
 5003TIP3    H136500   2.709   1.264   1.343 -1.4609  0.4010 -2.6621
 5003TIP3    H236501   2.826   1.199   1.271 -0.8868 -0.3229 -1.0918
 5004TIP3   OH236502   1.759   2.245   4.993 -0.1432  0.7458  0.0971
 5004TIP3    H136503   1.746   2.154   4.967  0.8106  0.8760 -0.8847
 5004TIP3    H236504   1.689   2.262   5.056 -0.4513 -0.6011  0.1396
 5005TIP3   OH236505   2.314   4.604  13.207  0.1185 -0.7001 -0.4684
 5005TIP3    H136506   2.367   4.525  13.218 -1.8818 -2.0273 -0.1401
 5005TIP3    H236507   2.228   4.572  13.181 -0.8498  1.3442  0.1078
 5006TIP3   OH236508   1.999   4.671  16.842 -0.0070 -0.2332  0.6175
 5006TIP3    H136509   2.063   4.633  16.902 -0.8926 -1.2078  0.9682
 5006TIP3    H236510   2.050   4.702  16.768  1.0909  0.8241  1.7872
 5007TIP3   OH236511   6.259   5.809   2.762 -0.1752 -0.0240  0.4282
 5007TIP3    H136512   6.176   5.818   2.808  0.5825  0.4743  1.7397
 5007TIP3    H236513   6.278   5.715   2.763 -0.4804 -0.0831  0.5451
 5008TIP3   OH236514   1.021   5.477  16.579 -0.0183 -0.0259 -0.0561
 5008TIP3    H136515   0.960   5.545  16.549 -1.3548 -1.6919 -1.2050
 5008TIP3    H236516   0.967   5.414  16.626  0.9937 -0.9602 -0.1082
 5009TIP3   OH236517   4.700   1.043  16.507  0.0785  0.1817  0.1812
 5009TIP3    H136518   4.657   1.106  16.565  2.4508  0.5274  1.6159
 5009TIP3    H236519   4.648   0.963  16.515 -1.5200  1.2076  0.2375
 5010TIP3   OH236520   4.813   5.180  15.929  0.0956 -0.2101 -0.2266
 5010TIP3    H136521   4.722   5.162  15.952 -0.1692  1.2526 -0.1124
 5010TIP3    H236522   4.841   5.249  15.989  0.8462  0.3349 -1.1722
 5011TIP3   OH236523   6.322   1.520  15.873 -0.2300 -0.0928  0.4805
 5011TIP3    H136524   6.299   1.606  15.838  0.6554 -0.6837 -1.6103
 5011TIP3    H236525   6.411   1.504  15.842  0.8077 -0.4512  3.4293
 5012TIP3   OH236526   4.349   5.062   1.925 -0.2512 -0.0563  0.3283
 5012TIP3    H136527   4.277   5.003   1.904  0.4282 -0.8371  0.1879
 5012TIP3    H236528   4.419   5.005   1.957  1.0755  0.4520 -1.5600
 5013TIP3   OH236529   0.950   5.822   3.361  0.2655 -0.1507  0.1872
 5013TIP3    H136530   0.877   5.854   3.308 -0.9599 -1.7892  0.8359
 5013TIP3    H236531   0.936   5.727   3.366  1.7759 -0.3324  1.3285
 5014TIP3   OH236532   1.147   1.595   2.858 -0.2934 -0.2105 -0.1974
 5014TIP3    H136533   1.228   1.543   2.852 -0.0514  0.1420 -0.0457
 5014TIP3    H236534   1.163   1.653   2.933 -0.5662  0.0711 -0.3597
 5015TIP3   OH236535   6.265   1.578  11.028 -0.2155 -0.3573 -0.1320
 5015TIP3    H136536   6.188   1.530  10.998 -0.5069 -1.1573  1.8228
 5015TIP3    H236537   6.337   1.514  11.023 -0.1155 -0.2635  0.0917
 5016TIP3   OH236538   3.321   2.325   5.197  0.2369  0.1614  0.0031
 5016TIP3    H136539   3.249   2.265   5.215  1.3758 -0.6877  1.9466
 5016TIP3    H236540   3.283   2.412   5.212 -0.4786 -0.2585  0.7312
 5017TIP3   OH236541   4.563   6.613  11.904  0.2079 -0.5462 -0.2671
 5017TIP3    H136542   4.592   6.525  11.881  0.9760 -0.7063  1.2746
 5017TIP3    H236543   4.468   6.607  11.908  0.1011 -0.7342 -2.4253
 5018TIP3   OH236544   6.050   0.924  10.843 -0.1844 -0.0781  0.3877
 5018TIP3    H136545   6.097   0.847  10.811  0.4506  0.0893  0.9018
 5018TIP3    H236546   5.962   0.915  10.807 -0.1354 -1.0776  0.4812
 5019TIP3   OH236547   3.990   2.801   4.253  0.2385 -0.1478  0.1941
 5019TIP3    H136548   3.907   2.834   4.288  0.8421  2.0889 -0.4167
 5019TIP3    H236549   4.047   2.797   4.330 -1.0876 -4.1249  1.1154
 5020TIP3   OH236550   2.772   1.492   4.170 -0.9698 -0.3701 -0.4397
 5020TIP3    H136551   2.815   1.575   4.186 -1.4387 -0.5230  1.7310
 5020TIP3    H236552   2.841   1.434   4.138 -0.2649  0.3171 -0.1576
 5021TIP3   OH236553   0.308   6.566   4.103  0.0792  0.2489 -0.0506
 5021TIP3    H136554   0.402   6.552   4.095  0.2650  1.6100 -0.2748
 5021TIP3    H236555   0.289   6.642   4.048 -1.0198  0.4701  0.6098
 5022TIP3   OH236556   2.958   1.082  16.521  0.5701  0.2240 -0.8689
 5022TIP3    H136557   2.946   0.997  16.478  1.1962  1.0899 -2.8318
 5022TIP3    H236558   3.045   1.077  16.560 -0.1164 -0.6768  0.5845
 5023TIP3   OH236559   3.282   2.494  16.692  0.2934 -0.2924 -0.0429
 5023TIP3    H136560   3.210   2.482  16.631  1.2037 -0.5946 -1.0574
 5023TIP3    H236561   3.257   2.572  16.742 -0.5027 -0.1076 -0.7102
 5024TIP3   OH236562   5.329   4.150  13.587  0.0006  0.2492  0.8323
 5024TIP3    H136563   5.272   4.201  13.644  0.4282  1.1715  0.4681
 5024TIP3    H236564   5.306   4.179  13.498  0.3904 -0.0458  0.6320
 5025TIP3   OH236565   1.659   0.288  12.444 -0.3779 -0.0139  0.0443
 5025TIP3    H136566   1.587   0.252  12.391 -0.3280 -0.4281  0.2565
 5025TIP3    H236567   1.684   0.368  12.399 -0.1937 -0.4761 -0.6838
 5026TIP3   OH236568   1.344   5.373  15.357  0.5822  0.8697 -0.6598
 5026TIP3    H136569   1.435   5.346  15.347  0.0885 -1.0091 -0.2463
 5026TIP3    H236570   1.297   5.292  15.378 -0.9661  2.0358  0.4704
 5027TIP3   OH236571   4.721   0.171   6.330  0.5109 -0.0989 -0.2952
 5027TIP3    H136572   4.786   0.225   6.285  1.3410 -0.5770  0.3134
 5027TIP3    H236573   4.681   0.230   6.394 -0.1796  0.3911 -1.1616
 5028TIP3   OH236574   3.921   1.527  15.147  0.1619  1.0008  0.0254
 5028TIP3    H136575   3.904   1.445  15.193  3.0727 -0.4552 -1.3710
 5028TIP3    H236576   3.835   1.558  15.119 -0.8460 -2.4365 -0.8287
 5029TIP3   OH236577   5.647   5.327   5.749  0.1785  0.2253 -0.1688
 5029TIP3    H136578   5.628   5.249   5.696 -0.7330 -0.3845  1.0117
 5029TIP3    H236579   5.581   5.391   5.724  0.3644  0.2901 -0.4887
 5030TIP3   OH236580   3.678   6.098  13.518 -0.3317  0.3581  0.5127
 5030TIP3    H136581   3.637   6.175  13.558 -0.7812  1.3157 -1.6936
 5030TIP3    H236582   3.766   6.127  13.494  0.1383 -0.3796  1.3417
 5031TIP3   OH236583   1.840   2.681  13.530 -0.0826  0.2552 -0.1255
 5031TIP3    H136584   1.877   2.625  13.598 -0.5448  1.3790  1.0490
 5031TIP3    H236585   1.899   2.756  13.525  0.5129 -0.2875 -1.6767
 5032TIP3   OH236586   3.721   2.510  11.280  0.1352 -0.5969 -0.6137
 5032TIP3    H136587   3.776   2.577  11.238  0.6764  0.1713  1.2603
 5032TIP3    H236588   3.732   2.432  11.225  2.3651 -0.1779 -0.8154
 5033TIP3   OH236589   3.147   5.856  15.859  0.9640 -0.2004 -0.6994
 5033TIP3    H136590   3.172   5.871  15.767  1.1166  2.6241 -0.2368
 5033TIP3    H236591   3.227   5.869  15.908  0.7743 -1.2413 -0.1109
 5034TIP3   OH236592   5.906   4.807   4.710  0.3196 -0.1490  0.2831
 5034TIP3    H136593   5.983   4.758   4.737  1.0234  1.3657  1.1106
 5034TIP3    H236594   5.940   4.876   4.653 -0.5980 -0.3571 -0.5304
 5035TIP3   OH236595   0.340   2.371   1.571 -0.4792  0.6060  0.2689
 5035TIP3    H136596   0.383   2.307   1.628 -2.2211 -0.2503  0.6656
 5035TIP3    H236597   0.257   2.389   1.615 -0.3173  2.6207 -0.2089
 5036TIP3   OH236598   2.997   2.274  16.687 -0.7041 -0.3142  0.1689
 5036TIP3    H136599   2.997   2.249  16.780  0.1481  0.7738  0.4756
 5036TIP3    H236600   3.011   2.192  16.640 -1.7397 -0.9698  0.9701
 5037TIP3   OH236601   4.583   0.826  11.434 -0.3891 -0.2537 -0.1868
 5037TIP3    H136602   4.606   0.733  11.423 -1.4088 -0.5216 -0.0773
 5037TIP3    H236603   4.514   0.826  11.500 -0.5362  0.5696 -0.3431
 5038TIP3   OH236604   5.537   0.186   1.368 -0.4519 -0.1553 -0.9369
 5038TIP3    H136605   5.541   0.098   1.404  1.9777  0.3616  0.1868
 5038TIP3    H236606   5.500   0.240   1.438 -0.1115  0.0394 -0.9028
 5039TIP3   OH236607   5.728   0.487   5.019  0.0165 -0.6803 -0.1798
 5039TIP3    H136608   5.818   0.454   5.014  0.3234 -0.1383  1.3781
 5039TIP3    H236609   5.683   0.424   5.077 -0.4175 -0.5586 -0.3812
 5040TIP3   OH236610   2.139   2.414   0.475  0.0934 -0.6606  0.2759
 5040TIP3    H136611   2.198   2.408   0.400  1.7616 -0.7751  1.5549
 5040TIP3    H236612   2.090   2.332   0.474  1.5900 -1.5769  0.4972
 5041TIP3   OH236613   5.101   2.924  17.009 -0.0752  0.4744 -0.0095
 5041TIP3    H136614   5.100   2.932  17.104  0.3205  1.5980 -0.1024
 5041TIP3    H236615   5.194   2.912  16.987 -0.3576 -1.7502 -0.1044
 5042TIP3   OH236616   4.469   5.847  15.333  0.1918 -0.1830 -0.4809
 5042TIP3    H136617   4.512   5.843  15.248  2.3001  0.5929  0.5119
 5042TIP3    H236618   4.454   5.940  15.349 -0.6647 -0.3566 -0.2205
 5043TIP3   OH236619   5.931   5.240   5.558 -0.1187 -0.0661 -0.1505
 5043TIP3    H136620   5.928   5.156   5.512 -3.3467 -0.2897  0.3493
 5043TIP3    H236621   5.994   5.292   5.508  0.8156 -2.2471 -1.3534
 5044TIP3   OH236622   6.231   0.654   2.877  0.1899  0.4672 -0.2808
 5044TIP3    H136623   6.201   0.572   2.837  1.4296  0.2044 -0.6804
 5044TIP3    H236624   6.201   0.648   2.968 -1.2859  0.3824 -0.7579
 5045TIP3   OH236625   1.671   0.908   3.466  0.3145  0.0056 -0.2430
 5045TIP3    H136626   1.723   0.837   3.429  0.2400 -0.0275 -0.2854
 5045TIP3    H236627   1.585   0.869   3.484  0.6943 -0.2642  1.0168
 5046TIP3   OH236628   5.634   3.361   2.237 -0.2410  0.1764  0.4365
 5046TIP3    H136629   5.546   3.394   2.255 -0.6058 -1.1686  1.2230
 5046TIP3    H236630   5.632   3.271   2.270  0.5514 -0.8235 -2.1451
 5047TIP3   OH236631   5.109   6.625  10.714 -0.6002 -0.2159 -0.4433
 5047TIP3    H136632   5.038   6.602  10.774 -0.0314  2.9563  1.5596
 5047TIP3    H236633   5.170   6.552  10.719 -2.3255 -1.6632  0.0228
 5048TIP3   OH236634   0.348   2.312   3.852  0.0820 -0.2423  0.5263
 5048TIP3    H136635   0.401   2.389   3.872 -0.2017  0.3815 -1.0241
 5048TIP3    H236636   0.312   2.285   3.936  0.9008  0.7852  1.2268
 5049TIP3   OH236637   3.703   0.138   2.069  0.7265 -0.4558  0.5274
 5049TIP3    H136638   3.747   0.067   2.116 -0.4562 -2.5728 -1.4532
 5049TIP3    H236639   3.719   0.119   1.977 -0.5529  1.2762 -0.0791
 5050TIP3   OH236640   4.214   3.576  10.969  0.5112  0.6025 -0.1835
 5050TIP3    H136641   4.227   3.520  10.893 -2.1500 -0.2972 -0.0476
 5050TIP3    H236642   4.200   3.664  10.932 -1.9414 -0.0297 -0.8770
 5051TIP3   OH236643   4.019   2.658  15.869  0.1029 -0.2556  0.0629
 5051TIP3    H136644   3.934   2.695  15.889 -0.7508 -1.5551 -1.0703
 5051TIP3    H236645   4.062   2.722  15.813  0.3836  0.9614  1.6390
 5052TIP3   OH236646   4.613   3.584  11.819 -0.4897  0.5702  1.3121
 5052TIP3    H136647   4.544   3.641  11.785 -0.1523 -0.4251 -1.0862
 5052TIP3    H236648   4.693   3.616  11.778 -0.3469 -1.8577 -0.4141
 5053TIP3   OH236649   2.081   0.595   4.608  0.4571 -0.1331 -1.1889
 5053TIP3    H136650   2.140   0.655   4.563 -0.2849  1.5093 -0.0356
 5053TIP3    H236651   2.038   0.650   4.674 -0.6274 -1.8279 -0.4714
 5054TIP3   OH236652   1.991   1.398   6.305 -0.2520 -0.4870 -0.0269
 5054TIP3    H136653   2.061   1.414   6.368  0.3514 -1.5715 -0.4195
 5054TIP3    H236654   2.035   1.383   6.222 -0.8872 -2.0162 -0.1127
 5055TIP3   OH236655   3.534   5.536   2.050  0.1621  0.0211 -0.0828
 5055TIP3    H136656   3.611   5.483   2.030  1.8021  0.8446  3.6951
 5055TIP3    H236657   3.487   5.486   2.117 -0.5094  1.3476  0.4589
 5056TIP3   OH236658   3.822   5.865  12.181 -0.6712 -0.7456 -0.3615
 5056TIP3    H136659   3.864   5.855  12.266 -2.0852  1.1240  0.6060
 5056TIP3    H236660   3.894   5.885  12.121 -0.1119  3.1042  1.3794
 5057TIP3   OH236661   2.541   4.628  14.232 -0.1462  0.5056 -0.2320
 5057TIP3    H136662   2.523   4.706  14.180 -2.1704 -0.0915 -0.4540
 5057TIP3    H236663   2.462   4.615  14.284  1.4785  0.5166  2.2925
 5058TIP3   OH236664   1.563   2.033   5.177  0.5621 -0.4370  0.0401
 5058TIP3    H136665   1.515   2.054   5.097  0.6627 -1.0704 -0.1934
 5058TIP3    H236666   1.564   2.114   5.227 -2.1276 -0.7855  0.7576
 5059TIP3   OH236667   6.013   4.883  15.940 -0.2727  0.1293 -0.0495
 5059TIP3    H136668   6.047   4.796  15.917 -0.8133 -0.7101  2.1781
 5059TIP3    H236669   6.088   4.929  15.977  0.6664  1.5759 -3.5031
 5060TIP3   OH236670   2.715   6.598  12.390  0.1404  0.1179 -0.8540
 5060TIP3    H136671   2.669   6.609  12.473  1.4432 -0.4406 -0.0402
 5060TIP3    H236672   2.664   6.532  12.343  0.0374 -0.4008 -0.0211
 5061TIP3   OH236673   2.868   3.252   3.597 -0.0497  0.0062 -0.2787
 5061TIP3    H136674   2.801   3.242   3.664 -1.4682  2.1042 -1.3266
 5061TIP3    H236675   2.858   3.342   3.566  1.8234 -0.3290 -1.9699
 5062TIP3   OH236676   2.935   4.085   2.798  0.0465  0.3415 -0.5817
 5062TIP3    H136677   3.009   4.029   2.820 -0.8384 -1.2851 -1.6169
 5062TIP3    H236678   2.898   4.110   2.883  0.2164 -0.9819 -0.1030
 5063TIP3   OH236679   6.206   4.219  15.165 -0.5396 -0.2103 -0.0493
 5063TIP3    H136680   6.202   4.299  15.112 -0.3016  0.2937  0.6883
 5063TIP3    H236681   6.115   4.189  15.170 -1.1946  1.9507  2.6056
 5064TIP3   OH236682   1.988   0.488  13.977  0.4033 -0.3285  0.2391
 5064TIP3    H136683   2.034   0.554  13.925 -0.0731  0.0208  0.2553
 5064TIP3    H236684   1.922   0.452  13.918 -0.0162 -0.0616  0.5357
 5065TIP3   OH236685   1.177   6.747   4.174  0.6082  0.1585 -0.1506
 5065TIP3    H136686   1.196   6.749   4.081 -2.2646  1.3489 -0.7450
 5065TIP3    H236687   1.169   6.653   4.195  1.1222 -0.1001 -1.1090
 5066TIP3   OH236688   1.861   4.632   5.999  0.4051 -0.1949  0.2518
 5066TIP3    H136689   1.777   4.619   5.956  0.0519 -1.2828  1.2466
 5066TIP3    H236690   1.920   4.658   5.928 -1.0098  1.7193 -0.2754
 5067TIP3   OH236691   4.657   0.428   3.913  0.7435 -0.0546 -0.0383
 5067TIP3    H136692   4.713   0.505   3.920  0.0256  0.7058 -2.3218
 5067TIP3    H236693   4.579   0.450   3.965  0.1211  1.1503 -1.4697
 5068TIP3   OH236694   6.148   4.026   5.449  0.8610 -0.8674  0.8563
 5068TIP3    H136695   6.160   3.992   5.360  1.4137  0.7031  0.3196
 5068TIP3    H236696   6.064   3.990   5.478 -0.0284 -0.2119 -0.8551
 5069TIP3   OH236697   4.236   1.781   3.199 -0.1736 -0.0694  0.2649
 5069TIP3    H136698   4.302   1.727   3.156 -0.0411 -0.5925  1.1120
 5069TIP3    H236699   4.179   1.811   3.128  0.0881 -0.8596 -0.2793
 5070TIP3   OH236700   4.720   1.481   2.806 -0.4572 -1.1461  0.1729
 5070TIP3    H136701   4.640   1.459   2.855 -0.1772 -1.5355  0.4623
 5070TIP3    H236702   4.751   1.562   2.845 -0.8358 -0.8770 -0.0877
 5071TIP3   OH236703   4.816   5.441   3.329 -0.2036  0.1938  0.3298
 5071TIP3    H136704   4.770   5.412   3.250 -3.2793  1.4314  1.5755
 5071TIP3    H236705   4.813   5.366   3.387  1.4598 -0.4934 -0.4503
 5072TIP3   OH236706   0.479   3.909  13.132  0.2697  0.2850  0.6558
 5072TIP3    H136707   0.488   3.862  13.214 -0.0970 -0.4538  0.2841
 5072TIP3    H236708   0.416   3.856  13.081 -0.4766  1.4023  0.3995
 5073TIP3   OH236709   0.716   0.079   5.014  0.2996 -0.2689  0.2977
 5073TIP3    H136710   0.775   0.014   4.978 -1.2610 -1.4176 -0.2514
 5073TIP3    H236711   0.657   0.029   5.071 -0.3941  0.7828  0.5224
 5074TIP3   OH236712   1.576   0.020   0.183 -0.5284 -0.2249 -0.2613
 5074TIP3    H136713   1.658  -0.028   0.190 -0.6831 -0.6425 -1.1064
 5074TIP3    H236714   1.519  -0.038   0.131 -0.8866  0.6508 -0.8673
 5075TIP3   OH236715   4.771   5.158   1.205  0.0500  0.4242  0.4269
 5075TIP3    H136716   4.723   5.086   1.246  1.7964 -0.4975  0.9056
 5075TIP3    H236717   4.725   5.237   1.234 -1.6286 -0.4471  0.2363
 5076TIP3   OH236718   0.926   5.650   6.731  0.0777 -0.2667  0.2154
 5076TIP3    H136719   0.920   5.569   6.680 -1.5326 -0.6673  1.0070
 5076TIP3    H236720   0.978   5.626   6.808  0.5234 -0.2642 -0.0835
 5077TIP3   OH236721   5.757   0.865  16.113  0.4264 -0.3325 -0.0482
 5077TIP3    H136722   5.719   0.952  16.108  1.0629 -0.1115 -1.3695
 5077TIP3    H236723   5.694   0.814  16.164 -0.4954  0.6127 -0.2259
 5078TIP3   OH236724   4.814   4.932  14.782  0.8488 -0.1254  0.4223
 5078TIP3    H136725   4.860   4.848  14.781  1.6639  0.3170  0.7149
 5078TIP3    H236726   4.732   4.913  14.828  0.0597 -1.2489 -1.3342
 5079TIP3   OH236727   2.675   3.334   0.012  0.1284  0.7122 -0.3425
 5079TIP3    H136728   2.767   3.313   0.029 -0.0150 -0.8295 -1.4712
 5079TIP3    H236729   2.654   3.399   0.080  1.8213  0.5279  0.4048
 5080TIP3   OH236730   3.541   1.801   0.594  0.5013 -0.2864  0.3068
 5080TIP3    H136731   3.585   1.872   0.547  3.1923 -1.2162  1.2905
 5080TIP3    H236732   3.548   1.726   0.535  0.2018 -0.4268  0.4502
 5081TIP3   OH236733   3.956   6.503   1.973 -1.0050 -0.3862  0.4536
 5081TIP3    H136734   4.007   6.428   2.005  0.0722  0.8590  1.7649
 5081TIP3    H236735   3.949   6.488   1.879  0.4240 -1.4177  0.4769
 5082TIP3   OH236736   3.998   2.747  13.832 -0.6170 -0.0895  0.0958
 5082TIP3    H136737   4.062   2.758  13.902 -0.9234  1.8854  0.0953
 5082TIP3    H236738   4.034   2.678  13.777  0.8022 -0.0021  0.8911
 5083TIP3   OH236739   5.991   4.773   2.777  0.2361 -0.3838 -0.0239
 5083TIP3    H136740   5.931   4.708   2.739  0.0501 -0.3486  0.2103
 5083TIP3    H236741   6.061   4.780   2.713 -0.9204  0.9236 -1.1817
 5084TIP3   OH236742   6.684   2.363  13.260  0.1722  0.6762 -0.2774
 5084TIP3    H136743   6.761   2.363  13.204  0.8137  1.4577  0.5765
 5084TIP3    H236744   6.631   2.436  13.229  0.8849  1.5766  0.5944
 5085TIP3   OH236745   4.164   6.362   0.226  0.3239  0.0879  0.5718
 5085TIP3    H136746   4.248   6.353   0.181  0.7740 -0.6821  1.5394
 5085TIP3    H236747   4.099   6.342   0.159  0.9465 -0.0953  0.0151
 5086TIP3   OH236748   3.097   4.407  16.396  0.8396  0.2309 -0.7130
 5086TIP3    H136749   3.069   4.390  16.486  1.4808 -0.1316 -0.5819
 5086TIP3    H236750   3.112   4.320  16.359 -2.8465  0.1495 -2.2802
 5087TIP3   OH236751   4.632   1.754   1.893 -0.0203  0.0287  0.4576
 5087TIP3    H136752   4.576   1.728   1.820 -0.6519  0.9871  0.5899
 5087TIP3    H236753   4.602   1.700   1.966 -0.7974  0.5547  0.5348
 5088TIP3   OH236754   3.297   5.720   2.098  0.4536 -0.2050 -0.1864
 5088TIP3    H136755   3.340   5.637   2.119  2.4759  0.8412 -0.0982
 5088TIP3    H236756   3.341   5.785   2.153 -1.5668  0.8357  0.2367
 5089TIP3   OH236757   5.922   2.151   6.059  0.3584 -0.4462  0.3396
 5089TIP3    H136758   5.988   2.216   6.085  0.6861 -1.1286  1.2254
 5089TIP3    H236759   5.925   2.151   5.964  1.6841 -0.5175  0.3740
 5090TIP3   OH236760   1.119   0.490  11.355 -0.4020 -0.0741 -0.4021
 5090TIP3    H136761   1.103   0.398  11.375  0.9714 -0.2899 -0.2093
 5090TIP3    H236762   1.179   0.488  11.280  0.6919  0.6349  0.4415
 5091TIP3   OH236763   6.339   0.843  13.722  1.3218  0.5070 -0.0465
 5091TIP3    H136764   6.432   0.847  13.746  1.3451  0.2869 -0.1026
 5091TIP3    H236765   6.339   0.844  13.626  1.2194  1.5441 -0.0375
 5092TIP3   OH236766   4.418   4.007  14.846  0.5419 -0.2044  0.2106
 5092TIP3    H136767   4.507   4.024  14.878  1.5055 -2.5645 -1.0829
 5092TIP3    H236768   4.369   3.983  14.924  0.9313  1.5042  0.9952
 5093TIP3   OH236769   6.109   6.619  16.068  0.2057 -0.2965  0.0857
 5093TIP3    H136770   6.106   6.526  16.046 -1.7361  0.1019 -1.6069
 5093TIP3    H236771   6.195   6.648  16.038  0.6127 -1.4384  0.1278
 5094TIP3   OH236772   6.103   4.811   1.246  0.1191 -0.6181  0.0749
 5094TIP3    H136773   6.192   4.812   1.280  0.2945  4.4284 -0.1859
 5094TIP3    H236774   6.047   4.818   1.323  0.0850 -0.3705  0.0282
 5095TIP3   OH236775   2.124   2.235   3.609  0.5923 -0.4295 -0.3986
 5095TIP3    H136776   2.040   2.259   3.569  1.2520 -1.0108 -2.1686
 5095TIP3    H236777   2.121   2.274   3.697 -0.4786  1.7319 -1.3620
 5096TIP3   OH236778   6.636   3.202   4.316 -0.3642  0.0328  0.6398
 5096TIP3    H136779   6.611   3.114   4.288  1.0816 -0.9007  2.1058
 5096TIP3    H236780   6.728   3.192   4.344 -0.4173  1.8306  1.5173
 5097TIP3   OH236781   5.590   4.502   4.012 -0.6147  0.7422  0.1458
 5097TIP3    H136782   5.576   4.591   4.044  0.9914  0.7353  0.9446
 5097TIP3    H236783   5.581   4.447   4.090 -0.9692  0.2708 -0.2243
 5098TIP3   OH236784   5.973   5.470   3.883 -0.7937 -0.2298  0.0455
 5098TIP3    H136785   5.911   5.462   3.810 -0.9404  1.1314  0.0181
 5098TIP3    H236786   6.017   5.554   3.868 -0.0619 -0.4450  0.9456
 5099TIP3   OH236787   2.339   1.145   3.467 -0.0731  0.4269 -0.5797
 5099TIP3    H136788   2.255   1.191   3.475 -0.2616 -0.0517  0.1894
 5099TIP3    H236789   2.382   1.188   3.393 -1.7238 -0.4575 -2.0911
 5100TIP3   OH236790   4.384   0.494  16.151  0.5937  0.4186  0.3434
 5100TIP3    H136791   4.440   0.547  16.209  2.0551 -1.1276  0.3667
 5100TIP3    H236792   4.442   0.468  16.079 -0.6966  0.6441 -0.7887
 5101TIP3   OH236793   3.804   4.583   3.127 -0.1713 -0.2224 -0.4857
 5101TIP3    H136794   3.783   4.615   3.039 -0.7981  1.6432  0.3173
 5101TIP3    H236795   3.886   4.627   3.150 -0.8706  0.6017  0.4980
 5102TIP3   OH236796   6.362   4.408   1.112 -0.6277  0.5535  0.5338
 5102TIP3    H136797   6.335   4.349   1.041  0.8945 -1.5813  1.6705
 5102TIP3    H236798   6.280   4.433   1.154 -1.4988  1.3680 -1.5824
 5103TIP3   OH236799   5.389   4.074  13.881 -0.4017  0.0953  0.3181
 5103TIP3    H136800   5.427   4.113  13.960 -0.8202  2.0323 -0.3940
 5103TIP3    H236801   5.309   4.125  13.866 -0.2208 -0.1239 -1.4484
 5104TIP3   OH236802   6.191   5.210   2.654  0.0332  0.3056 -0.3801
 5104TIP3    H136803   6.218   5.180   2.740 -0.0774  1.3086  0.0106
 5104TIP3    H236804   6.220   5.141   2.594  1.9064  0.5338  0.2352
 5105TIP3   OH236805   5.700   6.761  13.479  0.2436 -0.1588  0.5174
 5105TIP3    H136806   5.661   6.840  13.516 -1.6244 -0.0436 -1.5217
 5105TIP3    H236807   5.772   6.740  13.537 -1.3171  1.1131  3.0248
 5106TIP3   OH236808   0.061   3.835   3.144 -0.1608  0.0935  0.5580
 5106TIP3    H136809  -0.006   3.798   3.086 -0.7926  1.0210  0.6787
 5106TIP3    H236810   0.131   3.770   3.145  0.4456  0.6261 -2.2729
 5107TIP3   OH236811   2.885   5.817  14.955 -0.0538 -0.4265 -0.3062
 5107TIP3    H136812   2.882   5.734  15.002 -0.1186 -0.7153 -0.8125
 5107TIP3    H236813   2.819   5.808  14.887 -0.1759  0.1044 -0.2574
 5108TIP3   OH236814   3.752   4.346  12.933 -0.4532 -0.3054  0.0234
 5108TIP3    H136815   3.696   4.415  12.897 -0.2445 -0.9271 -1.5293
 5108TIP3    H236816   3.690   4.276  12.956 -0.2994 -1.1852 -2.1416
 5109TIP3   OH236817   5.846   6.467   0.184  0.8569 -0.0679  0.0479
 5109TIP3    H136818   5.897   6.536   0.227  0.6984 -0.1221  0.3203
 5109TIP3    H236819   5.846   6.394   0.246  1.0256 -0.3147 -0.2422
 5110TIP3   OH236820   6.176   5.458  13.290  0.2440 -0.2417 -0.0489
 5110TIP3    H136821   6.094   5.440  13.243  0.7455  1.0559 -1.4705
 5110TIP3    H236822   6.225   5.515  13.231  3.2237 -2.8855 -0.2846
 5111TIP3   OH236823   5.325   6.292   3.518  0.3597 -0.0884 -0.3741
 5111TIP3    H136824   5.275   6.333   3.588 -2.3743  0.0102 -2.3000
 5111TIP3    H236825   5.287   6.204   3.509  0.7790 -0.1678 -1.5954
 5112TIP3   OH236826   5.958   3.388   0.663  0.0579 -0.0789 -0.0015
 5112TIP3    H136827   5.877   3.425   0.627 -1.4635 -0.8075  2.5653
 5112TIP3    H236828   5.976   3.441   0.740  3.2432  1.3953 -1.6577
 5113TIP3   OH236829   5.811   5.197   2.161  0.2202  0.5433  0.3314
 5113TIP3    H136830   5.903   5.222   2.170  0.5286 -0.3528 -0.1960
 5113TIP3    H236831   5.784   5.174   2.250  1.0435 -0.9234  0.2309
 5114TIP3   OH236832   3.637   5.475   2.910  0.1563  0.4061 -0.2501
 5114TIP3    H136833   3.600   5.559   2.936  0.5914  0.8135 -0.9472
 5114TIP3    H236834   3.634   5.422   2.990 -0.6212  0.8962  0.0524
 5115TIP3   OH236835   4.224   4.743   2.003  0.1684  0.0102 -0.2597
 5115TIP3    H136836   4.168   4.794   1.945  0.3665  0.2053 -0.2807
 5115TIP3    H236837   4.240   4.800   2.078  1.7424  0.6376 -1.0392
 5116TIP3   OH236838   0.399   0.427   0.756 -0.6849  0.1049  0.1948
 5116TIP3    H136839   0.458   0.474   0.697 -0.3441 -0.4026  0.1294
 5116TIP3    H236840   0.312   0.458   0.731 -0.8109 -2.2535 -2.5873
 5117TIP3   OH236841   0.413   6.214  15.668  0.2813  0.1161  0.1692
 5117TIP3    H136842   0.363   6.257  15.737 -1.0500  0.1434 -0.8036
 5117TIP3    H236843   0.504   6.223  15.696 -0.1893  0.8193  1.5247
 5118TIP3   OH236844   0.179   0.555   1.744  0.8125 -0.0130  0.1982
 5118TIP3    H136845   0.089   0.524   1.734 -0.5850  3.4548  1.3825
 5118TIP3    H236846   0.213   0.559   1.655  0.1378 -2.2235 -0.1855
 5119TIP3   OH236847   3.105   1.672  11.556 -0.2150 -0.6333 -0.3794
 5119TIP3    H136848   3.169   1.610  11.521 -0.1498 -0.5757 -0.3621
 5119TIP3    H236849   3.039   1.617  11.597 -1.0245 -0.7653 -1.8194
 5120TIP3   OH236850   4.995   2.954  16.035  0.1945  0.6261  1.0400
 5120TIP3    H136851   4.969   3.041  16.006  1.4662  1.0508  1.1794
 5120TIP3    H236852   4.930   2.931  16.101 -0.3250  1.3331  0.7827
 5121TIP3   OH236853   5.164   1.440   5.381  0.3555 -0.1266 -0.1439
 5121TIP3    H136854   5.218   1.443   5.302  0.9362 -2.1569  0.1279
 5121TIP3    H236855   5.129   1.351   5.382 -3.7970  1.3946 -0.7953
 5122TIP3   OH236856   6.481   4.199   5.270 -0.1542 -0.3776  0.1585
 5122TIP3    H136857   6.542   4.174   5.339  1.0146 -0.7525 -0.9744
 5122TIP3    H236858   6.476   4.122   5.213 -1.1808 -0.1132 -0.1209
 5123TIP3   OH236859   2.698   6.065  17.092 -0.0800 -0.4624  0.0131
 5123TIP3    H136860   2.651   6.118  17.027  0.3015 -0.5489 -0.3407
 5123TIP3    H236861   2.642   5.990  17.107 -1.4714  0.9362  1.8836
 5124TIP3   OH236862   4.283   4.738  15.085  0.4607 -0.5432  0.0164
 5124TIP3    H136863   4.273   4.825  15.045 -0.7477  0.1889  1.8496
 5124TIP3    H236864   4.243   4.678  15.022 -1.5266  0.6145  0.1212
 5125TIP3   OH236865   1.905   1.775  16.876 -0.1593  0.0496 -0.4107
 5125TIP3    H136866   1.945   1.701  16.830  0.4279  0.2381 -0.2020
 5125TIP3    H236867   1.978   1.834  16.895 -0.2528 -0.4206  1.5238
 5126TIP3   OH236868   2.823   0.038   2.354 -0.8774  0.4012  0.3070
 5126TIP3    H136869   2.895   0.005   2.300 -1.2671 -1.8489  1.1331
 5126TIP3    H236870   2.836   0.133   2.354  1.2261  0.1540 -0.7657
 5127TIP3   OH236871   6.096   2.230   0.474 -0.4250  0.0737 -0.4663
 5127TIP3    H136872   6.028   2.295   0.493  0.6079  0.8463  0.6919
 5127TIP3    H236873   6.115   2.190   0.559  2.6335  1.9444 -0.2172
 5128TIP3   OH236874   3.934   0.518   3.828 -0.6883 -0.1449 -0.0909
 5128TIP3    H136875   3.853   0.551   3.789 -1.5512  1.1349  2.6693
 5128TIP3    H236876   3.914   0.427   3.849 -0.6898 -0.4341 -1.2881
 5129TIP3   OH236877   0.152   4.671   0.809  0.1003 -0.1714 -0.1791
 5129TIP3    H136878   0.095   4.595   0.797  0.7962 -0.8307  0.7122
 5129TIP3    H236879   0.239   4.641   0.782  0.4289  0.2278  0.4352
 5130TIP3   OH236880   1.768   0.516  13.465  0.0290 -0.0828 -0.5994
 5130TIP3    H136881   1.722   0.573  13.403  0.4318 -1.7314 -2.4836
 5130TIP3    H236882   1.699   0.465  13.507 -0.1378  0.0009 -0.7737
 5131TIP3   OH236883   2.640   2.641  15.813  0.4467  0.1582  0.1460
 5131TIP3    H136884   2.566   2.582  15.830 -0.2069  0.3010 -2.0108
 5131TIP3    H236885   2.717   2.593  15.846 -0.3394 -0.9949  0.3463
 5132TIP3   OH236886   0.293   1.029   1.911 -0.6181  0.4005 -0.1636
 5132TIP3    H136887   0.375   1.078   1.906 -0.1770 -0.0534  1.9307
 5132TIP3    H236888   0.321   0.939   1.930 -1.6421  0.5234  2.0539
 5133TIP3   OH236889   1.448   3.771   3.485  0.7088 -0.0909 -1.0125
 5133TIP3    H136890   1.460   3.782   3.391 -0.8688  2.7498 -0.9239
 5133TIP3    H236891   1.353   3.763   3.497  0.6212  2.7376  0.5996
 5134TIP3   OH236892   2.511   1.669  15.646  1.0986 -0.4816  0.2107
 5134TIP3    H136893   2.440   1.687  15.584  1.4481 -0.4173 -0.1703
 5134TIP3    H236894   2.575   1.738  15.630  1.3014 -0.6076  0.4800
 5135TIP3   OH236895   3.627   1.281  13.895  0.3669 -0.2614 -0.3085
 5135TIP3    H136896   3.603   1.364  13.935  0.7685 -1.3745  2.3533
 5135TIP3    H236897   3.584   1.215  13.950 -1.1334 -1.7953 -3.1944
 5136TIP3   OH236898   2.303   3.837  14.061  0.3927  0.2755  0.1456
 5136TIP3    H136899   2.318   3.871  13.973  2.1085 -0.5239  0.1154
 5136TIP3    H236900   2.286   3.744  14.048 -0.0349  0.2905  0.5980
 5137TIP3   OH236901   5.191   5.631  10.799 -0.3124  0.2653 -1.1477
 5137TIP3    H136902   5.100   5.602  10.785  0.1394 -0.8484 -1.8083
 5137TIP3    H236903   5.233   5.619  10.714  0.5799  0.3218 -0.7137
 5138TIP3   OH236904   0.682   5.860  16.341 -0.0213 -0.5382  0.1353
 5138TIP3    H136905   0.664   5.953  16.327 -1.2545 -0.9392 -0.9288
 5138TIP3    H236906   0.669   5.847  16.435  1.5508  0.6559  0.5480
 5139TIP3   OH236907   3.063   5.715   1.598 -0.0948 -0.4407  0.9448
 5139TIP3    H136908   3.125   5.723   1.525  0.2992 -0.4125  1.2762
 5139TIP3    H236909   3.110   5.662   1.662 -0.6191 -0.8553  0.9829
 5140TIP3   OH236910   6.061   5.170  14.686  0.7049  0.4641  0.2698
 5140TIP3    H136911   6.095   5.255  14.711  0.8708  0.5930 -0.3830
 5140TIP3    H236912   6.133   5.128  14.639 -1.0599  2.0499 -4.1123
 5141TIP3   OH236913   4.926   0.102   0.440  0.5035 -0.0980 -0.1104
 5141TIP3    H136914   4.850   0.096   0.383 -0.1686 -2.8534  1.0149
 5141TIP3    H236915   4.995   0.139   0.385 -1.4400  1.8689 -1.3051
 5142TIP3   OH236916   0.795   2.599  11.384 -0.0604  0.2307 -0.3455
 5142TIP3    H136917   0.762   2.510  11.398 -1.9478  1.1566  1.3255
 5142TIP3    H236918   0.741   2.633  11.313 -0.1136  0.4319 -0.2090
 5143TIP3   OH236919   2.656   6.755   3.503 -0.3381  0.2708  0.5695
 5143TIP3    H136920   2.700   6.785   3.422  0.6529  0.3226  1.1132
 5143TIP3    H236921   2.622   6.836   3.542  2.5146  0.8070  2.1408
 5144TIP3   OH236922   4.278   3.030  16.005  0.3547 -0.0727 -0.0530
 5144TIP3    H136923   4.197   2.987  16.035  0.0017  0.9341  0.4670
 5144TIP3    H236924   4.290   3.103  16.066  1.5602 -0.1036 -0.2475
 5145TIP3   OH236925   2.023   2.338   4.319 -0.2000  0.1183 -0.2748
 5145TIP3    H136926   2.007   2.390   4.240 -0.5491 -1.3387 -1.1965
 5145TIP3    H236927   2.119   2.329   4.323 -0.1798  0.1865 -0.5599
 5146TIP3   OH236928   3.688   4.791  11.400 -0.7100  0.2481 -0.2782
 5146TIP3    H136929   3.676   4.866  11.459 -2.6015 -0.4480  0.2620
 5146TIP3    H236930   3.602   4.748  11.398  0.2541 -1.7002 -0.8653
 5147TIP3   OH236931   4.461   6.073  12.035  0.5221 -0.5700  0.1804
 5147TIP3    H136932   4.511   6.151  12.010 -0.2732  0.1484  0.7861
 5147TIP3    H236933   4.377   6.083  11.990  0.7748 -1.5752 -0.5273
 5148TIP3   OH236934   5.941   1.927   0.703 -0.1270  0.0952 -0.0074
 5148TIP3    H136935   5.866   1.984   0.688 -2.1537 -2.0911  1.4144
 5148TIP3    H236936   5.975   1.953   0.788 -1.9477 -1.6894  1.3145
 5149TIP3   OH236937   2.529   2.293  12.314 -0.2170 -0.1597  0.7997
 5149TIP3    H136938   2.537   2.365  12.376  0.5984 -0.5516  1.1560
 5149TIP3    H236939   2.618   2.279  12.282 -0.4202 -0.8235  0.5130
 5150TIP3   OH236940   1.671   3.331  13.051  0.1166 -0.1773  0.2772
 5150TIP3    H136941   1.645   3.353  12.962  0.3400 -1.2238 -0.0507
 5150TIP3    H236942   1.605   3.267  13.080 -0.1089  0.3590  0.9558
 5151TIP3   OH236943   1.021   2.920  14.648 -0.0820 -0.3192  0.3815
 5151TIP3    H136944   0.934   2.917  14.609 -0.2142 -0.8040  0.7059
 5151TIP3    H236945   1.061   2.835  14.625  0.1217 -0.2961  0.6420
 5152TIP3   OH236946   4.580   4.666  13.216 -0.3387  0.6105 -0.2303
 5152TIP3    H136947   4.547   4.706  13.135 -0.8772  0.3085 -0.1608
 5152TIP3    H236948   4.672   4.694  13.221  0.0710 -0.4082 -1.6256
 5153TIP3   OH236949   4.832   0.813  15.145 -0.0367  0.3258 -0.1436
 5153TIP3    H136950   4.823   0.767  15.228 -1.0237 -0.5363 -0.7141
 5153TIP3    H236951   4.913   0.778  15.107  0.0391  0.2078  0.1254
 5154TIP3   OH236952   1.982   2.071  14.338 -0.1037  0.4228  0.6202
 5154TIP3    H136953   1.934   2.071  14.421  0.8168 -1.0220  1.1790
 5154TIP3    H236954   2.065   2.115  14.359  0.0752  0.1748  0.4299
 5155TIP3   OH236955   1.704   0.382  11.658 -0.3278  0.3919 -0.0347
 5155TIP3    H136956   1.629   0.360  11.714 -1.1201  1.5000 -0.6273
 5155TIP3    H236957   1.730   0.299  11.619 -2.3497  0.2315 -1.1396
 5156TIP3   OH236958   5.387   1.785  12.301 -0.2315  0.3130 -0.1094
 5156TIP3    H136959   5.314   1.822  12.251 -0.4966 -0.8506 -0.6074
 5156TIP3    H236960   5.409   1.853  12.365  0.6063  2.1882 -2.2870
 5157TIP3   OH236961   3.007   0.460  11.756  0.2739 -0.0147  0.0458
 5157TIP3    H136962   3.048   0.386  11.712  2.1152 -0.1040  1.8171
 5157TIP3    H236963   3.037   0.537  11.707 -1.0796 -0.3764 -1.3720
 5158TIP3   OH236964   4.255   6.114   4.297  0.1560 -0.3493 -0.1656
 5158TIP3    H136965   4.224   6.080   4.380  1.6583 -0.2735  0.4550
 5158TIP3    H236966   4.328   6.056   4.274  0.2894  0.1452 -0.9975
 5159TIP3   OH236967   1.529   0.846   2.332  0.8239  0.2420 -0.5072
 5159TIP3    H136968   1.491   0.897   2.261 -0.1531 -0.3841 -0.4488
 5159TIP3    H236969   1.622   0.843   2.313  1.2379  3.8010  0.5873
 5160TIP3   OH236970   1.417   5.830   6.135  0.2593 -0.4284  0.1580
 5160TIP3    H136971   1.506   5.850   6.107  0.7327 -0.5793  1.5262
 5160TIP3    H236972   1.419   5.838   6.230 -1.4724  0.6869  0.1181
 5161TIP3   OH236973   5.454   5.299  11.159  0.1005  0.2164 -0.7459
 5161TIP3    H136974   5.502   5.360  11.215 -0.7722 -1.4364  1.8317
 5161TIP3    H236975   5.392   5.355  11.111 -0.0350  1.4885  0.8719
 5162TIP3   OH236976   3.211   1.246  13.696 -0.8441 -0.1437 -0.5097
 5162TIP3    H136977   3.278   1.302  13.657  0.2071 -0.7170  0.4416
 5162TIP3    H236978   3.203   1.173  13.636  0.6350 -0.9311  0.2242
 5163TIP3   OH236979   2.601   3.285   1.741 -0.2149  0.6283 -1.0052
 5163TIP3    H136980   2.558   3.221   1.797  2.5534 -0.3145  0.1374
 5163TIP3    H236981   2.687   3.247   1.722  1.1686  3.6215 -0.9912
 5164TIP3   OH236982   1.511   4.769   0.139 -0.3638  0.1019 -0.5571
 5164TIP3    H136983   1.547   4.803   0.221  1.6696 -2.3598 -0.3676
 5164TIP3    H236984   1.421   4.799   0.138 -0.1040  1.0680  2.0821
 5165TIP3   OH236985   1.170   5.953  16.878 -0.2609 -0.2960  0.3649
 5165TIP3    H136986   1.199   5.886  16.816  1.9946  0.9146  0.0704
 5165TIP3    H236987   1.156   6.031  16.825  0.3485  0.3699  1.1802
 5166TIP3   OH236988   5.515   1.638  16.906 -0.0729 -0.4824  0.3539
 5166TIP3    H136989   5.434   1.672  16.866  0.0654 -1.2116 -0.5610
 5166TIP3    H236990   5.551   1.580  16.839  1.5821  0.3835  0.4792
 5167TIP3   OH236991   6.288   0.676  13.290  0.1037 -0.5582  0.5376
 5167TIP3    H136992   6.211   0.675  13.347  0.0405 -1.0411  0.4524
 5167TIP3    H236993   6.253   0.692  13.203  0.2397  0.5718  0.6905
 5168TIP3   OH236994   0.760   4.505  15.190  0.1167  0.2872 -0.2827
 5168TIP3    H136995   0.761   4.527  15.096  0.1172 -1.4333 -0.7037
 5168TIP3    H236996   0.668   4.490  15.210  0.3044 -1.2145 -0.4779
 5169TIP3   OH236997   6.713   2.566   5.957  0.3731  0.0891  0.5897
 5169TIP3    H136998   6.784   2.525   6.008  0.2781  1.5178  1.8973
 5169TIP3    H236999   6.745   2.654   5.939  1.1235 -0.9061 -3.3400
 5170TIP3   OH237000   3.902   2.853   2.978 -0.3729  0.0161  0.2383
 5170TIP3    H137001   3.865   2.796   2.911  0.5463 -0.7884  0.4073
 5170TIP3    H237002   3.948   2.921   2.929 -0.5569  0.0012  0.0450
 5171TIP3   OH237003   2.629   1.912   6.104  0.0229  0.2031 -0.3381
 5171TIP3    H137004   2.704   1.948   6.056  0.4972 -0.3653 -0.0312
 5171TIP3    H237005   2.571   1.987   6.117 -0.2197  0.3252 -2.0032
 5172TIP3   OH237006   6.093   4.367  11.911 -0.5136 -0.0569  0.4967
 5172TIP3    H137007   6.071   4.313  11.835  1.8446 -1.8547  1.0461
 5172TIP3    H237008   6.181   4.400  11.892 -0.1044 -0.1346  2.2308
 5173TIP3   OH237009   5.180   5.412  11.657  0.0652 -0.6080  0.0845
 5173TIP3    H137010   5.098   5.462  11.654  1.4516  1.6706 -0.9503
 5173TIP3    H237011   5.175   5.353  11.582  0.8947  2.0310 -2.1015
 5174TIP3   OH237012   4.013   3.840   0.196  0.2445 -0.2406 -0.5245
 5174TIP3    H137013   4.059   3.843   0.280 -1.5740  2.0928  0.4401
 5174TIP3    H237014   3.965   3.923   0.192 -1.0671 -1.0709 -3.1015
 5175TIP3   OH237015   6.680   1.493   1.087  0.1046  0.6744  0.6558
 5175TIP3    H137016   6.648   1.498   0.997 -0.0006 -2.6978  0.4390
 5175TIP3    H237017   6.769   1.527   1.083 -0.3948  1.8659 -0.4366
 5176TIP3   OH237018   4.215   5.219  13.924 -0.0115 -0.3061 -0.3136
 5176TIP3    H137019   4.159   5.147  13.953  0.8851 -1.6340 -1.7781
 5176TIP3    H237020   4.253   5.188  13.842  1.4649  1.2981 -0.2655
 5177TIP3   OH237021   3.591   0.310  12.495 -0.1681  0.3191  0.0532
 5177TIP3    H137022   3.668   0.367  12.506  1.4717 -1.8473  0.0427
 5177TIP3    H237023   3.522   0.353  12.546  1.7669  0.9658  2.1904
 5178TIP3   OH237024   1.135   0.368  15.021 -0.2576  0.0331  0.7514
 5178TIP3    H137025   1.098   0.449  15.056 -1.7022 -1.3655  2.5750
 5178TIP3    H237026   1.062   0.327  14.974  0.0098 -0.9794  1.2163
 5179TIP3   OH237027   4.316   1.870   1.255  0.4325 -0.0809 -0.3611
 5179TIP3    H137028   4.231   1.891   1.292  0.4781 -0.9453  0.2710
 5179TIP3    H237029   4.379   1.919   1.308  0.4415 -0.7536  0.2743
 5180TIP3   OH237030   4.729   5.230   4.376  0.0558 -0.0813  0.4036
 5180TIP3    H137031   4.765   5.287   4.443 -1.2867  0.1147  0.9801
 5180TIP3    H237032   4.657   5.184   4.419 -2.0192  1.3712 -1.3385
 5181TIP3   OH237033   2.528   4.427   4.890  0.5705 -0.5189  0.7399
 5181TIP3    H137034   2.563   4.396   4.806  0.3403  2.0280 -0.3331
 5181TIP3    H237035   2.606   4.444   4.942  0.7679 -0.4274  0.4200
 5182TIP3   OH237036   6.784   2.698  11.962 -0.6665 -0.3403  0.0281
 5182TIP3    H137037   6.752   2.766  12.020 -0.6414 -0.8904  0.6932
 5182TIP3    H237038   6.755   2.616  12.002  0.6583 -0.7975  0.0964
 5183TIP3   OH237039   6.600   1.195   0.908 -0.2138  1.0589  0.1563
 5183TIP3    H137040   6.579   1.107   0.878  1.1298  0.1686  1.7400
 5183TIP3    H237041   6.551   1.205   0.990  0.7309  1.2322  0.7136
 5184TIP3   OH237042   2.850   3.326   6.443 -0.3267  0.1728 -0.1221
 5184TIP3    H137043   2.856   3.269   6.520  0.1933 -1.7041 -1.5162
 5184TIP3    H237044   2.777   3.290   6.392 -0.0391  0.7980 -0.9884
 5185TIP3   OH237045   3.931   0.800  13.689 -0.4575  0.3888 -0.3721
 5185TIP3    H137046   3.889   0.759  13.765 -1.7531  0.1830 -1.1803
 5185TIP3    H237047   4.004   0.849  13.726 -1.9682  1.5246  1.1951
 5186TIP3   OH237048   0.184   1.990  11.741  0.2059  0.7644  0.4668
 5186TIP3    H137049   0.227   1.923  11.794  0.8592  0.8979  0.1017
 5186TIP3    H237050   0.168   2.062  11.802  0.5465  0.7355  0.5911
 5187TIP3   OH237051   5.567   3.951  12.321 -0.5987  0.0628 -0.3552
 5187TIP3    H137052   5.480   3.982  12.297 -0.6100 -0.7401 -1.3690
 5187TIP3    H237053   5.590   3.888  12.254  1.0392  0.7385 -0.4638
 5188TIP3   OH237054   3.401   0.801   0.144 -0.2725  0.1568  0.1239
 5188TIP3    H137055   3.423   0.823   0.053  0.2284 -1.0834 -0.0725
 5188TIP3    H237056   3.470   0.843   0.196 -0.7201  1.1042 -0.0514
 5189TIP3   OH237057   5.705   3.148   6.159  0.2048  0.1192 -0.0797
 5189TIP3    H137058   5.800   3.157   6.168  0.1519  0.4496  0.1771
 5189TIP3    H237059   5.670   3.225   6.205 -0.1839  0.0055 -0.1894
 5190TIP3   OH237060   3.337   5.452  13.135  0.2175 -0.4819  0.0325
 5190TIP3    H137061   3.354   5.375  13.189 -0.9840  0.5217  1.9367
 5190TIP3    H237062   3.256   5.488  13.171  0.1561  1.0140 -1.5675
 5191TIP3   OH237063   0.610   4.266  13.907  0.4274  0.3630  0.0552
 5191TIP3    H137064   0.696   4.303  13.889  0.8049 -0.7128 -0.4124
 5191TIP3    H237065   0.626   4.196  13.970 -0.3262  1.2214  1.2357
 5192TIP3   OH237066   2.580   2.340   4.645  0.0522 -0.0390  0.7648
 5192TIP3    H137067   2.596   2.422   4.598  0.1584  0.0912  1.0252
 5192TIP3    H237068   2.606   2.359   4.736  0.1080 -0.3702  0.8190
 5193TIP3   OH237069   3.612   3.829  15.861 -0.0467 -0.1888  0.2045
 5193TIP3    H137070   3.649   3.896  15.804  0.1921 -1.9921 -1.8066
 5193TIP3    H237071   3.687   3.775  15.887 -0.1600  0.5690  2.2146
 5194TIP3   OH237072   1.538   0.731   5.753 -0.0822  0.5482  0.2461
 5194TIP3    H137073   1.475   0.740   5.682  0.1722 -1.9910 -0.3652
 5194TIP3    H237074   1.612   0.785   5.727  0.5315 -1.3333 -2.0841
 5195TIP3   OH237075   5.056   6.460   0.192  0.2771  0.2412 -0.3732
 5195TIP3    H137076   4.963   6.482   0.180  0.3084  0.5141 -0.1294
 5195TIP3    H237077   5.093   6.465   0.104 -0.0223 -0.2492 -0.5267
 5196TIP3   OH237078   2.428   6.193  12.015 -0.8739  0.1458 -0.2375
 5196TIP3    H137079   2.450   6.130  12.085 -1.1447  0.2178 -0.0869
 5196TIP3    H237080   2.478   6.163  11.940 -1.7096 -0.7983 -0.4242
 5197TIP3   OH237081   4.960   2.703  16.894 -0.2056  0.0269 -0.7778
 5197TIP3    H137082   5.002   2.785  16.921 -1.4757 -0.0631  1.5234
 5197TIP3    H237083   4.880   2.731  16.849  0.7978  0.0981 -2.5973
 5198TIP3   OH237084   3.849   2.123   5.173 -0.5014  0.0219  0.0304
 5198TIP3    H137085   3.887   2.036   5.180  0.3840  0.5365  1.8860
 5198TIP3    H237086   3.815   2.128   5.084 -1.4314 -2.5707  0.2074
 5199TIP3   OH237087   1.375   6.517   5.988  0.0537 -1.1692  0.0415
 5199TIP3    H137088   1.382   6.587   6.053  1.8061 -1.1135 -0.1897
 5199TIP3    H237089   1.339   6.442   6.037  0.6130 -0.8887  0.8962
 5200TIP3   OH237090   1.111   2.043   1.565 -0.2666 -0.3580 -0.1262
 5200TIP3    H137091   1.042   2.098   1.603  0.5237  1.5005 -1.3209
 5200TIP3    H237092   1.191   2.074   1.607  0.1546 -0.8033 -0.5949
 5201TIP3   OH237093   5.179   6.194   4.515  0.6260 -0.1720 -0.0673
 5201TIP3    H137094   5.132   6.270   4.480  1.5532  0.4471  0.0240
 5201TIP3    H237095   5.211   6.223   4.601  1.7510 -0.3581 -0.4175
 5202TIP3   OH237096   6.334   5.576  13.598 -0.9210 -0.1413  0.1921
 5202TIP3    H137097   6.391   5.617  13.533 -1.1645 -0.0947  0.0045
 5202TIP3    H237098   6.341   5.482  13.581 -1.2544 -0.1079 -0.1268
 5203TIP3   OH237099   4.778   6.042   5.911 -0.5210  0.3830 -0.7972
 5203TIP3    H137100   4.716   6.087   5.854 -2.9420  0.0925  1.5572
 5203TIP3    H237101   4.759   5.949   5.899 -1.3738  0.3350  0.8325
 5204TIP3   OH237102   6.646   1.206   5.397  0.2409  0.1383  0.0128
 5204TIP3    H137103   6.561   1.215   5.354  0.6019  0.4842 -0.6462
 5204TIP3    H237104   6.642   1.122   5.442 -0.6784  0.4409  0.5119
 5205TIP3   OH237105   4.592   1.943   6.678  0.0943  0.2602  0.3877
 5205TIP3    H137106   4.642   1.919   6.600 -0.9815  0.4323 -0.3664
 5205TIP3    H237107   4.578   2.037   6.669  0.1692  0.3199  0.9109
 5206TIP3   OH237108   1.230   6.482   3.523 -0.4952 -0.0683  0.2357
 5206TIP3    H137109   1.281   6.401   3.527  2.6041  1.7231 -1.6083
 5206TIP3    H237110   1.173   6.471   3.446  1.3196  0.2597 -1.1816
 5207TIP3   OH237111   1.886   1.939  12.026 -0.3972  0.0156 -0.1382
 5207TIP3    H137112   1.922   1.903  12.107 -0.2016 -0.3076 -0.3684
 5207TIP3    H237113   1.900   2.034  12.034  0.6199 -0.1156 -0.2776
 5208TIP3   OH237114   3.492   3.781  15.563  0.6123 -0.0362  0.0534
 5208TIP3    H137115   3.546   3.702  15.564  0.5500 -0.1479 -1.8650
 5208TIP3    H237116   3.522   3.833  15.637  2.6487 -0.5638 -0.3782
 5209TIP3   OH237117   1.850   4.581   0.227  0.5914 -0.7087 -0.1027
 5209TIP3    H137118   1.838   4.606   0.319  1.4145 -0.9843  0.0758
 5209TIP3    H237119   1.937   4.542   0.223  1.2694  0.8833 -1.3327
 5210TIP3   OH237120   3.676   0.032  16.588  0.0314 -0.2944  0.4759
 5210TIP3    H137121   3.724   0.014  16.507 -1.5115 -0.5184 -0.4092
 5210TIP3    H237122   3.641  -0.052  16.614 -0.5021  0.0003  0.7121
 5211TIP3   OH237123   4.125   2.939   0.564  0.1849 -0.1990  0.3030
 5211TIP3    H137124   4.100   2.850   0.588 -1.9895 -0.1825 -1.7272
 5211TIP3    H237125   4.200   2.929   0.506  1.6420 -0.5213  2.1700
 5212TIP3   OH237126   4.851   0.875  11.483 -0.4341 -0.0518  0.3487
 5212TIP3    H137127   4.878   0.791  11.519  0.5799  0.3911  0.6374
 5212TIP3    H237128   4.756   0.867  11.472 -0.6757 -0.4306  2.4803
 5213TIP3   OH237129   2.725   5.524   3.196  0.4030  0.2476  0.0771
 5213TIP3    H137130   2.687   5.576   3.267  0.0401 -0.2633  0.2652
 5213TIP3    H237131   2.774   5.455   3.241  0.5252  0.1737 -0.1706
 5214TIP3   OH237132   2.165   1.494  12.511  0.0286 -0.2841 -0.1606
 5214TIP3    H137133   2.172   1.480  12.606 -0.0086  0.1190 -0.0990
 5214TIP3    H237134   2.089   1.550  12.501  0.4345  0.2269 -0.3803
 5215TIP3   OH237135   1.479   4.916  12.548  0.3162 -0.1269 -0.6742
 5215TIP3    H137136   1.462   4.986  12.485 -1.2925  1.5046  1.4899
 5215TIP3    H237137   1.393   4.894  12.583  0.8159 -3.0950 -1.1446
 5216TIP3   OH237138   5.304   4.004   4.077 -0.1119 -0.2424  0.3526
 5216TIP3    H137139   5.237   4.068   4.100  0.4497  0.4077  0.2196
 5216TIP3    H237140   5.295   3.935   4.142  0.9734  1.2151  2.1033
 5217TIP3   OH237141   6.125   5.699  13.161  0.0536 -0.1402  0.1268
 5217TIP3    H137142   6.141   5.732  13.250  1.1104  2.1482 -0.8691
 5217TIP3    H237143   6.104   5.777  13.110  1.4708 -1.1661 -2.0794
 5218TIP3   OH237144   1.714   5.872  14.308 -0.3283 -0.0575  0.7552
 5218TIP3    H137145   1.778   5.913  14.367 -0.9505  2.3597 -0.1949
 5218TIP3    H237146   1.745   5.895  14.220 -2.5556  1.2116  0.2912
 5219TIP3   OH237147   6.476   0.954  15.590  0.4119 -0.1042 -0.2124
 5219TIP3    H137148   6.415   0.886  15.619 -1.8591  2.0030  0.0374
 5219TIP3    H237149   6.488   0.938  15.497 -1.3268  0.0494 -0.4769
 5220TIP3   OH237150   4.484   2.015  15.088  0.0980  0.1869  0.0212
 5220TIP3    H137151   4.435   2.093  15.062 -0.0850 -0.0237 -0.2761
 5220TIP3    H237152   4.421   1.943  15.079 -0.1161  0.1636  1.4942
 5221TIP3   OH237153   1.308   2.403  11.477 -0.0858 -0.0307  0.2268
 5221TIP3    H137154   1.330   2.350  11.401  0.0023 -2.4327  1.8933
 5221TIP3    H237155   1.225   2.445  11.453  0.3994 -0.0430 -1.5314
 5222TIP3   OH237156   6.488   3.794  16.051 -0.1984  0.1276  0.2276
 5222TIP3    H137157   6.431   3.863  16.085  1.2563  0.2826  2.4903
 5222TIP3    H237158   6.561   3.841  16.011 -1.4028 -0.0738 -2.2467
 5223TIP3   OH237159   2.180   0.006  12.519  0.4320  0.6757  0.1787
 5223TIP3    H137160   2.174   0.041  12.608 -2.7046 -0.6442  0.5629
 5223TIP3    H237161   2.164   0.081  12.462  2.0984  1.4599  0.7193
 5224TIP3   OH237162   2.754   2.199  12.171 -0.3440 -0.6094 -0.6219
 5224TIP3    H137163   2.748   2.151  12.254  0.7174  1.3868  0.6362
 5224TIP3    H237164   2.842   2.179  12.138  0.3793  0.9990  0.2689
 5225TIP3   OH237165   4.415   1.884  17.086  0.4786 -0.1419  0.2367
 5225TIP3    H137166   4.465   1.965  17.071 -2.0516  1.6582  1.2671
 5225TIP3    H237167   4.475   1.829  17.137  1.7623  1.5863  0.6592
 5226TIP3   OH237168   6.328   0.093   4.763 -0.2801 -0.1657 -0.0813
 5226TIP3    H137169   6.416   0.127   4.778 -0.9247  0.4122  2.5785
 5226TIP3    H237170   6.318   0.022   4.826 -1.1877 -1.2668 -1.4198
 5227TIP3   OH237171   3.990   2.768  15.406  0.2814 -0.2031 -0.0124
 5227TIP3    H137172   3.945   2.697  15.359  0.7241 -1.2729  1.1571
 5227TIP3    H237173   4.076   2.732  15.426  1.1558  1.3302 -0.9812
 5228TIP3   OH237174   6.472   5.711  13.398 -0.2333 -0.1465 -0.6874
 5228TIP3    H137175   6.513   5.730  13.313 -0.6084  1.5026 -0.5203
 5228TIP3    H237176   6.424   5.791  13.419 -0.8060 -0.8466  0.7041
 5229TIP3   OH237177   0.914   5.399  13.427  0.5423 -0.1578  0.2375
 5229TIP3    H137178   0.964   5.468  13.471  0.3266 -0.1118  0.4084
 5229TIP3    H237179   0.971   5.322  13.433  0.4397 -0.1968  0.7478
 5230TIP3   OH237180   3.865   4.148  16.060  0.0685  0.0483 -0.0358
 5230TIP3    H137181   3.875   4.234  16.021 -1.9534  0.0326 -0.6433
 5230TIP3    H237182   3.859   4.164  16.154 -0.9962  0.6471 -0.1983
 5231TIP3   OH237183   2.896   0.890   0.167  0.4989  0.2232  0.2944
 5231TIP3    H137184   2.927   0.824   0.229  0.4035  0.1601  0.2753
 5231TIP3    H237185   2.801   0.889   0.177  0.5519  1.0073  0.9594
 5232TIP3   OH237186   4.932   2.768   0.544  0.1549  0.1329  0.3517
 5232TIP3    H137187   5.003   2.749   0.482  1.3500  0.9612  1.4387
 5232TIP3    H237188   4.944   2.704   0.614 -0.9599 -0.5564 -0.0823
 5233TIP3   OH237189   1.940   4.743   2.101 -0.1639  0.0682 -0.3022
 5233TIP3    H137190   1.910   4.831   2.078  0.1564  0.4100  0.5380
 5233TIP3    H237191   1.945   4.744   2.197  1.2683 -0.3906 -0.3591
 5234TIP3   OH237192   2.040   2.842   6.948 -0.0787  0.4034  0.6217
 5234TIP3    H137193   2.126   2.801   6.935 -0.7531 -0.7797 -0.2706
 5234TIP3    H237194   2.057   2.936   6.945  1.0774  0.1786 -0.3455
 5235TIP3   OH237195   5.705   2.905   1.158 -0.4343 -0.4698 -0.1482
 5235TIP3    H137196   5.764   2.979   1.171  0.0092 -0.8152 -0.1471
 5235TIP3    H237197   5.667   2.889   1.245  0.6217 -1.1954  0.1923
 5236TIP3   OH237198   4.872   5.097  10.776  0.1207  0.1237 -0.1825
 5236TIP3    H137199   4.917   5.013  10.768  0.4960  0.3518 -0.4638
 5236TIP3    H237200   4.779   5.075  10.767  0.1962 -0.3032  0.0887
 5237TIP3   OH237201   3.186   1.868   0.123  0.3914  0.1085  0.0910
 5237TIP3    H137202   3.247   1.816   0.176  1.4308  1.1259 -0.0819
 5237TIP3    H237203   3.107   1.814   0.118  0.3175 -0.0826  2.5449
 5238TIP3   OH237204   3.362   4.519   0.710  0.1626  0.1179  0.3355
 5238TIP3    H137205   3.448   4.519   0.669  0.0111 -2.2182 -0.0666
 5238TIP3    H237206   3.380   4.494   0.801 -0.0656 -0.2987  0.2679
 5239TIP3   OH237207   3.837   4.017  12.672 -0.1426  0.1538  0.0882
 5239TIP3    H137208   3.818   3.977  12.757 -2.4692  1.8963  0.4374
 5239TIP3    H237209   3.904   4.082  12.691 -0.0407 -0.0532  0.4508
 5240TIP3   OH237210   5.941   5.177   6.276  0.2342 -0.2848  0.0088
 5240TIP3    H137211   5.919   5.085   6.266 -2.7361  0.4107 -0.5882
 5240TIP3    H237212   5.945   5.191   6.371 -0.6769 -0.7539  0.1233
 5241TIP3   OH237213   3.797   0.565   1.241 -0.0052 -0.1050  0.5599
 5241TIP3    H137214   3.778   0.551   1.334  0.9126 -0.6077  0.6776
 5241TIP3    H237215   3.717   0.539   1.196 -1.1517  1.9489  1.3177
 5242TIP3   OH237216   4.068   5.282   1.007 -0.1247  0.3422  0.1411
 5242TIP3    H137217   4.075   5.263   1.101  0.6039 -1.7004 -0.3018
 5242TIP3    H237218   4.021   5.207   0.971 -1.4870  1.6895 -0.9615
 5243TIP3   OH237219   0.895   3.667   3.874  0.4428 -0.0259 -0.3326
 5243TIP3    H137220   0.951   3.662   3.797  1.3918 -0.8818  0.4033
 5243TIP3    H237221   0.813   3.626   3.846  0.9260 -0.7078 -0.7692
 5244TIP3   OH237222   5.900   5.008  16.441  0.0977  0.0422  0.3223
 5244TIP3    H137223   5.886   5.062  16.518  1.7011  0.8103  0.1102
 5244TIP3    H237224   5.927   4.923  16.475  3.2828  1.1053  0.6423
 5245TIP3   OH237225   3.345   3.291  14.939 -0.3296  0.0050 -0.3089
 5245TIP3    H137226   3.380   3.212  14.981 -4.9039 -1.6998  0.6949
 5245TIP3    H237227   3.333   3.266  14.847 -1.1601 -0.2806 -0.1296
 5246TIP3   OH237228   2.437   5.044   3.962  0.0050 -0.1207  0.2845
 5246TIP3    H137229   2.457   5.100   3.887  1.3090 -1.0989 -0.1263
 5246TIP3    H237230   2.491   5.078   4.033  1.2084 -1.1784 -0.1142
 5247TIP3   OH237231   4.080   0.821  11.980  0.1834  0.6030 -0.0188
 5247TIP3    H137232   4.080   0.888  12.048  2.3409  1.4151 -0.7857
 5247TIP3    H237233   4.019   0.755  12.012  1.4731  0.7386  2.9166
 5248TIP3   OH237234   0.248   3.615   1.836 -0.1699  0.0960 -0.1373
 5248TIP3    H137235   0.191   3.651   1.767  1.0023  0.0987 -1.1172
 5248TIP3    H237236   0.328   3.667   1.831 -0.5327  0.9152  2.0759
 5249TIP3   OH237237   4.952   2.594  12.449 -0.0913 -0.3838  0.2354
 5249TIP3    H137238   4.870   2.584  12.402 -0.3829  0.4409  0.5497
 5249TIP3    H237239   4.994   2.670  12.408  1.0700 -1.5072 -0.7063
 5250TIP3   OH237240   5.541   2.048  13.828  0.9584 -0.0643  0.0732
 5250TIP3    H137241   5.548   2.092  13.744  0.0938 -2.1758 -1.1304
 5250TIP3    H237242   5.544   1.955  13.808 -0.1909 -0.6265  2.2778
 5251TIP3   OH237243   6.141   5.284  16.859 -0.6575 -0.4346 -0.5246
 5251TIP3    H137244   6.100   5.340  16.924  0.4112 -0.9212  0.5825
 5251TIP3    H237245   6.228   5.267  16.893 -0.4675 -1.5991 -1.5533
 5252TIP3   OH237246   3.606   6.400   2.599 -0.3518  0.6662  0.0499
 5252TIP3    H137247   3.610   6.376   2.691 -1.9376  2.2708  0.5503
 5252TIP3    H237248   3.624   6.318   2.552  0.3586 -0.1739  1.7624
 5253TIP3   OH237249   4.346   5.397  14.071  0.3223  0.0897  0.0580
 5253TIP3    H137250   4.309   5.330  14.013  0.2693  0.1201  0.0567
 5253TIP3    H237251   4.344   5.478  14.020 -0.2414  0.2302  0.3014
 5254TIP3   OH237252   3.912   0.592  15.343 -0.0681 -1.3393 -0.3698
 5254TIP3    H137253   3.944   0.678  15.315  0.1877 -0.8864  1.2210
 5254TIP3    H237254   3.822   0.608  15.372  0.9490 -0.9712  2.7438
 5255TIP3   OH237255   4.332   4.603   2.249 -0.1117 -0.3404  0.1574
 5255TIP3    H137256   4.392   4.576   2.179 -0.8661 -0.5622 -0.4049
 5255TIP3    H237257   4.256   4.639   2.203 -0.1262  0.5616  0.8783
 5256TIP3   OH237258   2.037   0.044  11.129  0.2694 -0.2637 -0.3430
 5256TIP3    H137259   2.127   0.055  11.097  0.1902 -0.1251 -0.5157
 5256TIP3    H237260   1.991   0.121  11.098  0.2323 -0.0483  0.2544
 5257TIP3   OH237261   0.465   4.037  11.843  0.5474 -0.9187 -0.3858
 5257TIP3    H137262   0.388   4.005  11.796  0.5100 -0.9267 -0.3187
 5257TIP3    H237263   0.476   3.976  11.916  1.9707 -2.2652 -1.6947
 5258TIP3   OH237264   3.024   1.841  14.657  0.2400  0.5501 -0.3890
 5258TIP3    H137265   3.047   1.769  14.598 -0.0260 -1.1547  1.5308
 5258TIP3    H237266   3.080   1.828  14.733 -0.9772  1.4315  0.6768
 5259TIP3   OH237267   0.712   4.423   1.659 -0.1906  0.4420 -0.2025
 5259TIP3    H137268   0.698   4.500   1.714 -1.0905 -0.5415  0.9666
 5259TIP3    H237269   0.693   4.454   1.570 -2.1340  1.1741  0.4469
 5260TIP3   OH237270   3.212   3.823   0.430 -0.1911 -0.1468  0.0128
 5260TIP3    H137271   3.123   3.828   0.464  0.5378  1.3910  1.7450
 5260TIP3    H237272   3.247   3.741   0.465 -0.0026  0.6116  1.6420
 5261TIP3   OH237273   1.615   3.932   0.538 -0.1058  0.1646 -0.1329
 5261TIP3    H137274   1.599   3.848   0.495 -0.3954  0.0484  0.2071
 5261TIP3    H237275   1.578   3.997   0.478  1.1399  0.1383 -0.9504
 5262TIP3   OH237276   6.757   0.970   3.449 -0.0608  0.0004  0.0213
 5262TIP3    H137277   6.753   1.062   3.422  0.7864 -0.0592 -0.3279
 5262TIP3    H237278   6.846   0.943   3.427  0.2902 -0.3829  1.7802
 5263TIP3   OH237279   3.823   0.475  12.624  0.1157 -0.4634  0.4809
 5263TIP3    H137280   3.810   0.567  12.646  0.0113 -0.0341 -1.2508
 5263TIP3    H237281   3.867   0.477  12.539 -4.0725 -1.9588 -1.8616
 5264TIP3   OH237282   2.740   3.327  15.422 -0.2982  0.3598 -0.1064
 5264TIP3    H137283   2.812   3.330  15.485 -0.6207 -1.7300  0.3967
 5264TIP3    H237284   2.776   3.366  15.343  1.8209 -1.8425 -0.2768
 5265TIP3   OH237285   2.212   0.125   6.284  0.0474 -0.4783  0.1460
 5265TIP3    H137286   2.193   0.111   6.377 -1.0347 -1.8585 -0.2768
 5265TIP3    H237287   2.240   0.040   6.252 -0.4474 -0.2201 -0.9997
 5266TIP3   OH237288   6.442   4.127   5.830  0.6492 -0.6887  0.4492
 5266TIP3    H137289   6.534   4.107   5.811  1.1484 -0.5389  2.5825
 5266TIP3    H237290   6.441   4.222   5.844  0.1094 -0.6462  0.1269
 5267TIP3   OH237291   2.044   5.595   2.672  0.3628 -0.3320  0.2037
 5267TIP3    H137292   2.132   5.627   2.691  0.3361 -0.2385  0.1701
 5267TIP3    H237293   2.051   5.553   2.586  0.4021 -0.4321  0.2566
 5268TIP3   OH237294   2.890   5.204  10.722 -0.0179 -0.3386 -0.0033
 5268TIP3    H137295   2.942   5.156  10.658  0.3984  1.4358 -1.0513
 5268TIP3    H237296   2.955   5.247  10.778 -0.3504 -0.0032  0.1302
 5269TIP3   OH237297   0.970   1.798  12.807 -0.0808  0.0738  0.4510
 5269TIP3    H137298   0.895   1.854  12.826 -0.7333 -0.3321 -0.8855
 5269TIP3    H237299   1.042   1.859  12.791  0.0490  0.4542  2.3404
 5270TIP3   OH237300   3.125   0.203   5.191 -0.0351 -0.2868 -0.5549
 5270TIP3    H137301   3.040   0.227   5.154  0.1566  0.5146 -0.4949
 5270TIP3    H237302   3.152   0.282   5.239  0.6351 -0.6213 -0.3897
 5271TIP3   OH237303   6.174   2.518   2.046  0.4396 -0.0709 -0.3911
 5271TIP3    H137304   6.156   2.429   2.015  1.2657 -0.9585  1.6153
 5271TIP3    H237305   6.259   2.540   2.006  0.6366 -0.5147 -0.2291
 5272TIP3   OH237306   5.882   3.359  16.587 -0.3494  0.2634  0.3997
 5272TIP3    H137307   5.822   3.434  16.586 -1.1167 -0.3570 -1.8994
 5272TIP3    H237308   5.826   3.283  16.576  0.6252 -0.5170  0.8036
 5273TIP3   OH237309   0.032   5.301   2.081  0.4106 -0.1018 -0.2259
 5273TIP3    H137310   0.122   5.334   2.083  0.0044  1.1500 -1.7793
 5273TIP3    H237311   0.004   5.311   1.990 -1.5036  0.0647  0.3451
 5274TIP3   OH237312   0.960   5.672   2.758 -0.4303  0.5445  0.4334
 5274TIP3    H137313   0.903   5.744   2.732 -1.5797 -0.1039  1.1056
 5274TIP3    H237314   0.912   5.628   2.829  0.7558 -0.2075  0.7815
 5275TIP3   OH237315   3.878   4.871   0.311 -0.0190  0.2155  0.3722
 5275TIP3    H137316   3.840   4.944   0.262 -2.3688 -0.1076  1.6531
 5275TIP3    H237317   3.891   4.802   0.245 -3.9373 -0.5206  0.2322
 5276TIP3   OH237318   0.602   4.014   4.277  0.1061  0.2610  0.5900
 5276TIP3    H137319   0.641   4.075   4.214  0.9279  1.9921  2.7343
 5276TIP3    H237320   0.666   3.942   4.282  0.1792  0.2497 -0.2990
 5277TIP3   OH237321   0.078   3.330  16.608  0.3881  0.0533  0.0530
 5277TIP3    H137322   0.116   3.286  16.533  0.8742 -0.8859  0.8367
 5277TIP3    H237323   0.010   3.387  16.572  2.6771  1.9598 -1.4115
 5278TIP3   OH237324   3.923   0.969  14.919 -0.1062  0.2538 -0.5858
 5278TIP3    H137325   3.901   0.885  14.878 -1.2558 -0.3051  1.1130
 5278TIP3    H237326   3.909   0.954  15.012 -0.7984  2.4761 -0.3022
 5279TIP3   OH237327   5.107   2.199  14.721  0.1561  0.5367  0.0354
 5279TIP3    H137328   5.014   2.203  14.742  0.7053  0.1072  2.7508
 5279TIP3    H237329   5.149   2.168  14.802  2.5240 -0.4958 -1.5171
 5280TIP3   OH237330   1.481   5.248   1.107  0.4008 -0.3306 -0.1366
 5280TIP3    H137331   1.504   5.317   1.045  1.5748 -1.6217 -1.1424
 5280TIP3    H237332   1.515   5.280   1.191  1.5379  0.0183 -0.7196
 5281TIP3   OH237333   1.420   4.883  10.912 -0.3496 -0.1527 -0.6914
 5281TIP3    H137334   1.367   4.823  10.860  0.4044  0.4028 -2.1042
 5281TIP3    H237335   1.358   4.918  10.977 -1.3432 -0.6909 -1.3317
 5282TIP3   OH237336   2.940   0.340   5.057  0.2695  0.3944 -0.2609
 5282TIP3    H137337   2.868   0.293   5.017  0.4927 -0.8138  0.7359
 5282TIP3    H237338   2.998   0.362   4.984 -0.3256  0.0101 -0.8539
 5283TIP3   OH237339   2.965   3.322  15.272  0.0207  0.0166  0.3605
 5283TIP3    H137340   3.034   3.279  15.222 -1.6493 -0.6942 -1.4270
 5283TIP3    H237341   2.986   3.415  15.266  1.4808 -0.2784  0.8659
 5284TIP3   OH237342   4.691   0.739   2.476  0.4601 -0.8877  0.5551
 5284TIP3    H137343   4.749   0.708   2.407  0.3958 -0.0123  0.0958
 5284TIP3    H237344   4.748   0.757   2.550  0.3962 -2.8791  1.1106
 5285TIP3   OH237345   2.939   2.689   3.594  0.2438  0.0504  0.3758
 5285TIP3    H137346   2.995   2.704   3.670  1.2252  2.5066 -0.7916
 5285TIP3    H237347   2.999   2.676   3.522 -0.6996  0.6087 -0.5237
 5286TIP3   OH237348   3.161   4.155   2.116  0.3622  0.0771 -0.0823
 5286TIP3    H137349   3.135   4.084   2.056 -0.8765  0.8037 -0.4340
 5286TIP3    H237350   3.246   4.183   2.085  1.0686 -1.5414  0.3138
 5287TIP3   OH237351   4.048   5.621  12.043  0.1235  0.0327  0.1849
 5287TIP3    H137352   4.062   5.709  12.077 -0.8127 -0.0238  0.7207
 5287TIP3    H237353   4.106   5.615  11.967  0.6890  0.8719  0.5519
 5288TIP3   OH237354   1.539   6.565   0.020 -0.0297  0.6300  1.2710
 5288TIP3    H137355   1.471   6.626  -0.008 -0.0343  0.1164  0.1440
 5288TIP3    H237356   1.497   6.479   0.018  0.4848  0.3779  1.1196
 5289TIP3   OH237357   6.206   6.262   2.409  0.3759 -0.3521 -0.6003
 5289TIP3    H137358   6.258   6.274   2.489 -0.5397 -0.6705  0.0527
 5289TIP3    H237359   6.266   6.284   2.338  1.0068  0.5659  0.2077
 5290TIP3   OH237360   6.105   1.982  14.265  0.0307  0.3419  0.3743
 5290TIP3    H137361   6.109   2.078  14.270 -0.3212  0.3777 -0.0323
 5290TIP3    H237362   6.071   1.964  14.178 -0.1710 -0.1520  0.5548
 5291TIP3   OH237363   0.661   1.031  15.978  0.8038 -0.0023  0.3626
 5291TIP3    H137364   0.651   1.084  16.057 -0.2425 -1.5099  1.2631
 5291TIP3    H237365   0.754   1.008  15.977  0.8986  0.3451  0.9279
 5292TIP3   OH237366   6.335   6.295   2.667  0.5575 -0.1747 -0.1934
 5292TIP3    H137367   6.282   6.297   2.747  0.8938  0.0756  0.0224
 5292TIP3    H237368   6.403   6.230   2.685  0.5263 -0.2485 -0.3427
 5293TIP3   OH237369   3.385   2.648  15.472  0.1322 -0.2265  0.1619
 5293TIP3    H137370   3.405   2.602  15.391  0.2775  0.3908 -0.1589
 5293TIP3    H237371   3.293   2.674  15.463  0.9887  2.6286 -1.2296
 5294TIP3   OH237372   1.455   2.825   3.114 -0.1754 -0.1836 -0.5195
 5294TIP3    H137373   1.544   2.790   3.104  0.4657  1.3960 -0.4853
 5294TIP3    H237374   1.457   2.907   3.065 -1.7668 -0.3785 -0.9192
 5295TIP3   OH237375   2.536   3.034  13.281  0.0900  0.1958 -0.2371
 5295TIP3    H137376   2.587   3.008  13.357  0.5030  1.0032 -0.2289
 5295TIP3    H237377   2.448   3.049  13.316 -0.0170 -0.6233 -0.1463
 5296TIP3   OH237378   6.058   6.693   5.429  0.0688 -0.0400 -0.6242
 5296TIP3    H137379   6.031   6.628   5.365 -2.6941 -0.1576  0.6006
 5296TIP3    H237380   6.098   6.642   5.500 -0.9921 -0.3016 -0.2117
 5297TIP3   OH237381   2.302   2.185   4.244 -0.0487  0.2330  0.3590
 5297TIP3    H137382   2.335   2.240   4.316  1.9972  1.0401 -1.1369
 5297TIP3    H237383   2.363   2.112   4.240 -0.0770  0.2598 -0.6352
 5298TIP3   OH237384   1.424   4.450  10.394  0.0792 -0.0632  0.2277
 5298TIP3    H137385   1.491   4.518  10.386 -0.2502  0.1796 -0.5044
 5298TIP3    H237386   1.344   4.491  10.362 -0.2011 -0.6791  0.1291
 5299TIP3   OH237387   5.902   2.523   1.403  0.2596  0.3208 -0.4659
 5299TIP3    H137388   5.941   2.605   1.375  0.3086  0.0421 -1.2383
 5299TIP3    H237389   5.916   2.464   1.329  1.1614 -0.6908  0.4828
 5300TIP3   OH237390   6.286   1.921   4.967  0.0765  0.0145  0.2185
 5300TIP3    H137391   6.230   1.984   4.922 -0.3894 -0.5475  0.0022
 5300TIP3    H237392   6.348   1.891   4.901  0.5308  0.5174  0.4164
 5301TIP3   OH237393   5.767   1.018  14.784 -0.1829 -0.3883 -0.6463
 5301TIP3    H137394   5.701   1.039  14.717 -0.5963 -0.4696 -0.2659
 5301TIP3    H237395   5.755   1.085  14.851  0.6072  0.0220 -0.9104
 5302TIP3   OH237396   1.614   4.165  10.975 -0.0592  0.4610 -0.5592
 5302TIP3    H137397   1.573   4.137  10.893  0.6809  1.4049 -1.2671
 5302TIP3    H237398   1.657   4.248  10.953 -0.3756  1.0327  0.9438
 5303TIP3   OH237399   4.087   5.732  13.036 -0.5285  0.2941 -0.3073
 5303TIP3    H137400   4.001   5.699  13.063  0.2831 -1.4990  0.1391
 5303TIP3    H237401   4.143   5.718  13.112  0.6794 -0.5635 -1.3426
 5304TIP3   OH237402   4.455   0.756   4.839  0.0744  0.0204  0.6886
 5304TIP3    H137403   4.391   0.781   4.905 -0.1251  1.4639 -0.0331
 5304TIP3    H237404   4.513   0.832   4.831  2.6357 -1.7136  2.1877
 5305TIP3   OH237405   0.301   5.494  15.823 -0.0944 -0.8210  0.0436
 5305TIP3    H137406   0.363   5.438  15.777  2.6701  0.2897  2.2730
 5305TIP3    H237407   0.297   5.458  15.911  0.0562  1.2060  0.8996
 5306TIP3   OH237408   2.635   5.017   3.581  0.3158 -0.1813  0.2456
 5306TIP3    H137409   2.579   5.091   3.604  1.6784  0.2962  2.2021
 5306TIP3    H237410   2.655   4.976   3.665 -1.1554 -3.3561 -0.9016
 5307TIP3   OH237411   4.196   5.323  12.767  0.5097  0.1189 -0.1069
 5307TIP3    H137412   4.158   5.355  12.685  2.5226 -1.2591 -1.6392
 5307TIP3    H237413   4.129   5.263  12.801 -0.4539  0.8812 -0.6083
 5308TIP3   OH237414   0.323   1.957  17.153 -0.9370  0.0943  0.3726
 5308TIP3    H137415   0.347   2.023  17.088 -0.8491 -1.2323 -0.9683
 5308TIP3    H237416   0.389   1.889  17.143 -1.9110 -0.9099  0.6783
 5309TIP3   OH237417   5.664   1.728   2.279 -0.5684 -0.1842 -0.4308
 5309TIP3    H137418   5.589   1.691   2.325  0.9377  0.3171  2.5700
 5309TIP3    H237419   5.648   1.823   2.281  0.1315 -0.0688  0.2985
 5310TIP3   OH237420   2.016   2.351  17.064 -1.0164 -0.2768 -0.1852
 5310TIP3    H137421   1.990   2.306  17.145  2.9263 -0.5780  1.0277
 5310TIP3    H237422   2.068   2.286  17.017  1.0715  1.5511 -0.4777
 5311TIP3   OH237423   5.891   4.509   2.996  0.1021  0.2285 -0.2727
 5311TIP3    H137424   5.981   4.521   2.966  0.2423  0.7752  0.3376
 5311TIP3    H237425   5.900   4.460   3.078 -0.1825 -0.0739 -0.4213
 5312TIP3   OH237426   2.301   2.738   1.786  0.4644 -0.6885  0.5950
 5312TIP3    H137427   2.262   2.678   1.722  1.1522  1.1015 -1.5707
 5312TIP3    H237428   2.317   2.683   1.863 -1.4145 -2.6541 -0.3537
 5313TIP3   OH237429   0.923   0.563   2.060 -0.1137 -0.1943  0.3367
 5313TIP3    H137430   1.014   0.535   2.046 -0.7586 -1.8130 -0.7705
 5313TIP3    H237431   0.885   0.566   1.972 -1.2553  0.0614  0.8297
 5314TIP3   OH237432   5.689   6.658  16.100 -0.0991 -0.2044 -0.1666
 5314TIP3    H137433   5.623   6.642  16.032 -0.1153  1.0208 -0.4467
 5314TIP3    H237434   5.737   6.575  16.106 -0.5610 -0.5546 -1.1710
 5315TIP3   OH237435   6.434   5.606   0.902 -0.4228 -0.4785 -0.2715
 5315TIP3    H137436   6.516   5.654   0.898 -0.1764 -0.9605 -1.1904
 5315TIP3    H237437   6.378   5.658   0.960  1.4150 -1.5271  2.5133
 5316TIP3   OH237438   1.116   3.650   4.501 -0.3152 -0.6454 -0.2700
 5316TIP3    H137439   1.118   3.700   4.582 -2.0252  1.5441 -1.5485
 5316TIP3    H237440   1.189   3.684   4.449 -0.6781 -0.3931 -0.6157
 5317TIP3   OH237441   5.418   3.719   3.315  0.3294 -0.3999 -0.2359
 5317TIP3    H137442   5.478   3.652   3.347 -0.1771 -0.4904  0.5172
 5317TIP3    H237443   5.398   3.772   3.392 -1.7528 -1.2627 -0.1570
 5318TIP3   OH237444   5.722   5.855  16.773  0.0507 -0.3620  0.2354
 5318TIP3    H137445   5.629   5.858  16.751 -0.3793 -0.4813  1.9867
 5318TIP3    H237446   5.744   5.944  16.800  0.9254  0.1347 -1.9101
 5319TIP3   OH237447   4.913   3.962  15.649  0.0218 -0.4625 -0.7549
 5319TIP3    H137448   4.892   4.034  15.589  1.7986  0.1456 -0.6685
 5319TIP3    H237449   4.980   3.911  15.603 -0.7235 -1.6798 -0.5173
 5320TIP3   OH237450   0.824   1.126  17.264 -0.0228  0.0869 -0.2709
 5320TIP3    H137451   0.746   1.096  17.311  0.1060 -0.0727 -0.1595
 5320TIP3    H237452   0.795   1.204  17.216 -0.1932  0.1622 -0.0458
 5321TIP3   OH237453   1.167   3.429   6.125 -0.0706 -0.3879 -0.0332
 5321TIP3    H137454   1.105   3.458   6.192 -0.4976 -1.3758  0.0121
 5321TIP3    H237455   1.252   3.429   6.170 -0.2574 -0.4123  0.3233
 5322TIP3   OH237456   0.988   3.180  14.965  0.1055  0.1395 -0.1349
 5322TIP3    H137457   0.924   3.111  14.950 -0.4135  0.2111  1.6589
 5322TIP3    H237458   0.988   3.231  14.884 -0.5649 -1.0992 -0.9219
 5323TIP3   OH237459   4.817   5.500  14.790 -0.3225  0.5373 -0.1506
 5323TIP3    H137460   4.899   5.452  14.782 -0.5279 -0.1144  1.3323
 5323TIP3    H237461   4.777   5.495  14.703  1.1456  0.7554 -0.8463
 5324TIP3   OH237462   2.962   4.731  13.112  0.6658  0.0539 -0.4323
 5324TIP3    H137463   2.904   4.710  13.039 -0.2393 -0.9424  0.5533
 5324TIP3    H237464   3.038   4.675  13.098  0.4294 -0.2448 -0.5260
 5325TIP3   OH237465   6.566   2.227   0.988  0.0472 -0.3462 -0.2046
 5325TIP3    H137466   6.577   2.311   1.034  0.1331 -0.5181  0.0924
 5325TIP3    H237467   6.619   2.166   1.038 -0.4866 -0.7049 -0.0751
 5326TIP3   OH237468   2.126   3.772  16.144 -0.4067 -0.7323 -0.2735
 5326TIP3    H137469   2.061   3.788  16.076 -1.1457 -1.4803  0.2480
 5326TIP3    H237470   2.078   3.725  16.213  0.5908 -0.9657  0.2774
 5327TIP3   OH237471   3.368   2.095   4.492  0.1596 -0.4344 -0.5204
 5327TIP3    H137472   3.388   2.078   4.584  0.5670 -0.5723 -0.6298
 5327TIP3    H237473   3.423   2.033   4.444 -0.7277 -1.0023 -0.8293
 5328TIP3   OH237474   3.694   2.106  14.662  0.1425  0.0051 -0.8656
 5328TIP3    H137475   3.767   2.054  14.627 -0.0875  0.3391 -1.8643
 5328TIP3    H237476   3.651   2.142  14.584  0.7958  2.3895 -0.1663
 5329TIP3   OH237477   4.213   1.405  13.011  0.8639  0.0749 -0.1568
 5329TIP3    H137478   4.158   1.385  13.087  1.1146  0.1953  0.0583
 5329TIP3    H237479   4.296   1.361  13.029  1.5821  1.6394  0.5410
 5330TIP3   OH237480   3.450   3.009  14.689 -0.7724 -0.1366 -0.3705
 5330TIP3    H137481   3.412   3.083  14.642 -0.8249  0.0267 -0.0728
 5330TIP3    H237482   3.387   2.989  14.758  0.6318  1.4921  1.4484
 5331TIP3   OH237483   2.920   3.339  15.649  0.3176  0.1839  1.0841
 5331TIP3    H137484   2.950   3.303  15.733  1.4036  0.0649  0.6535
 5331TIP3    H237485   2.992   3.396  15.621  1.4016 -2.2597 -1.3259
 5332TIP3   OH237486   2.991   3.082  17.026 -0.0511 -0.2284  0.4618
 5332TIP3    H137487   2.903   3.062  17.057  0.2797 -0.9534  0.9528
 5332TIP3    H237488   2.989   3.063  16.932 -0.5335  0.1675  0.3935
 5333TIP3   OH237489   0.573   3.402  11.567  0.2925 -0.4492 -0.7171
 5333TIP3    H137490   0.538   3.313  11.568 -0.9676  0.0545  1.6033
 5333TIP3    H237491   0.612   3.410  11.480 -0.3565 -2.9555 -1.2983
 5334TIP3   OH237492   0.418   3.620   4.700 -0.6383 -0.4553  0.6980
 5334TIP3    H137493   0.484   3.677   4.739 -1.3102  0.0074  1.1708
 5334TIP3    H237494   0.466   3.542   4.673  0.6557  1.0993 -1.7056
 5335TIP3   OH237495   4.841   0.823  15.680 -0.1138  0.1149 -0.2833
 5335TIP3    H137496   4.932   0.818  15.653  0.1396  1.6491  0.2363
 5335TIP3    H237497   4.811   0.732  15.681  2.1354 -0.6440  1.9811
 5336TIP3   OH237498   2.154   3.937  12.211  0.3894  0.2325 -0.1210
 5336TIP3    H137499   2.210   3.991  12.268  1.4365 -0.2414 -0.6771
 5336TIP3    H237500   2.164   3.977  12.124 -0.5210  0.4368 -0.1279
 5337TIP3   OH237501   3.357   3.541   2.547  0.0040  0.1230 -0.1282
 5337TIP3    H137502   3.411   3.552   2.469 -0.1818  1.2738 -0.1147
 5337TIP3    H237503   3.342   3.631   2.578  1.1446 -0.3727  1.9638
 5338TIP3   OH237504   4.166   1.487   6.725 -0.1847  0.0477  0.3970
 5338TIP3    H137505   4.244   1.494   6.670  0.2912  0.5071  1.1284
 5338TIP3    H237506   4.119   1.411   6.690 -0.4678  0.9898 -1.3775
 5339TIP3   OH237507   0.878   5.321   2.842 -0.6794  0.0734  0.2493
 5339TIP3    H137508   0.866   5.364   2.927 -0.7810 -1.1124  0.8403
 5339TIP3    H237509   0.901   5.231   2.864 -0.1006 -0.0840 -0.9825
 5340TIP3   OH237510   2.860   1.861   3.424  0.1764  0.6697 -1.1357
 5340TIP3    H137511   2.789   1.880   3.363  0.3662  1.3346 -1.1530
 5340TIP3    H237512   2.821   1.803   3.490 -0.8307  2.3241 -0.2319
 5341TIP3   OH237513   6.193   3.625   2.001 -0.0041 -0.1742  0.1505
 5341TIP3    H137514   6.167   3.681   1.929  1.5113  0.5698  0.1652
 5341TIP3    H237515   6.161   3.669   2.079  1.0391  0.5909  0.1503
 5342TIP3   OH237516   1.230   5.488   2.187  0.0773 -0.1441 -0.2555
 5342TIP3    H137517   1.289   5.542   2.240 -0.7209  1.9720 -1.4758
 5342TIP3    H237518   1.148   5.485   2.237  0.6924 -1.8336  0.7106
 5343TIP3   OH237519   5.438   2.913  17.090 -0.3233 -0.1997 -0.4981
 5343TIP3    H137520   5.386   2.903  17.170  0.0882  0.4757 -0.1363
 5343TIP3    H237521   5.508   2.849  17.099 -1.2783 -1.3581 -1.1469
 5344TIP3   OH237522   0.077   5.593  17.237  0.3128  0.6664  0.3381
 5344TIP3    H137523   0.155   5.638  17.203 -0.0490  0.0564 -1.3509
 5344TIP3    H237524   0.063   5.631  17.324  2.3478  0.9656  0.5622
 5345TIP3   OH237525   3.797   6.589  16.445  0.7413 -0.4041  0.1982
 5345TIP3    H137526   3.873   6.533  16.461  0.9709  0.5803  2.8795
 5345TIP3    H237527   3.834   6.675  16.425  0.3575 -0.5278 -1.0496
 5346TIP3   OH237528   5.776   1.821  11.498 -0.2610  0.1231 -0.2120
 5346TIP3    H137529   5.687   1.810  11.530 -0.9317  1.0086 -1.7299
 5346TIP3    H237530   5.791   1.916  11.501  1.2541 -0.1285  1.6526
 5347TIP3   OH237531   4.946   0.250  16.713 -0.1276  0.5045  0.6523
 5347TIP3    H137532   5.024   0.201  16.687  0.5781  0.8883  1.9656
 5347TIP3    H237533   4.981   0.332  16.750 -1.2302  1.3861 -0.2279
 5348TIP3   OH237534   4.857   6.046  13.641 -0.2056 -0.3840  0.0827
 5348TIP3    H137535   4.918   6.102  13.592 -1.3690  0.8909  0.0525
 5348TIP3    H237536   4.905   5.964  13.654  0.9911  0.0959 -1.1475
 5349TIP3   OH237537   1.700   6.197  12.181 -0.4316  0.2497 -0.0975
 5349TIP3    H137538   1.746   6.177  12.100 -2.3167  0.2165 -1.1832
 5349TIP3    H237539   1.691   6.112  12.225  1.3649  0.3926  0.5942
 5350TIP3   OH237540   3.292   3.798  11.424  0.8139  0.0131 -0.0552
 5350TIP3    H137541   3.378   3.840  11.417  0.3797  0.6883 -1.6191
 5350TIP3    H237542   3.258   3.799  11.334 -1.8634  1.9270  0.9256
 5351TIP3   OH237543   2.259   3.299  17.244 -0.2575  0.1600  0.4065
 5351TIP3    H137544   2.216   3.378  17.277  0.5176  0.8311 -0.1428
 5351TIP3    H237545   2.202   3.227  17.270 -1.0715  0.9248  0.7543
 5352TIP3   OH237546   5.581   2.783  12.047 -0.2139  0.4690 -0.0121
 5352TIP3    H137547   5.573   2.864  11.997 -0.1237  0.2266 -0.4266
 5352TIP3    H237548   5.577   2.810  12.138 -2.2402  0.7426 -0.1468
 5353TIP3   OH237549   4.749   2.006  12.498 -0.0419 -0.3359 -0.0606
 5353TIP3    H137550   4.817   1.941  12.515  0.4141  0.2402  0.3544
 5353TIP3    H237551   4.796   2.089  12.489 -0.7459  0.1903  0.9314
 5354TIP3   OH237552   0.616   1.443  16.647  0.1705 -0.1709  0.2892
 5354TIP3    H137553   0.640   1.488  16.728  1.6053 -0.3812 -0.0039
 5354TIP3    H237554   0.525   1.416  16.660  0.5177 -0.5529  1.9702
 5355TIP3   OH237555   0.307   1.167   4.525 -0.1649  0.6498 -0.0338
 5355TIP3    H137556   0.370   1.224   4.568  1.3598 -0.3244 -0.8879
 5355TIP3    H237557   0.268   1.221   4.456 -0.0466  1.1877  0.3248
 5356TIP3   OH237558   3.634   3.313  12.168 -0.1421 -0.0755  0.7772
 5356TIP3    H137559   3.657   3.394  12.123 -2.3263 -0.4679 -1.1333
 5356TIP3    H237560   3.667   3.324  12.257  0.0702  2.6868  0.3784
 5357TIP3   OH237561   2.553   4.741  15.514 -0.0310  0.4374 -0.0107
 5357TIP3    H137562   2.622   4.687  15.475  0.3797  1.2761 -0.4629
 5357TIP3    H237563   2.596   4.785  15.587 -0.9569 -1.5981  1.8097
 5358TIP3   OH237564   3.653   5.652   3.168  0.3563  0.4847 -0.6630
 5358TIP3    H137565   3.659   5.557   3.171  0.9818  0.5408  0.2793
 5358TIP3    H237566   3.579   5.673   3.225  0.9399  0.6143  0.0607
 5359TIP3   OH237567   5.978   3.287  13.400 -0.2680  0.1258  0.2301
 5359TIP3    H137568   6.018   3.208  13.364 -0.6961  0.2236 -0.4639
 5359TIP3    H237569   5.926   3.256  13.474  1.3017  0.0312  1.3306
 5360TIP3   OH237570   1.786   5.412  17.031 -0.1243  0.2087 -0.2727
 5360TIP3    H137571   1.699   5.374  17.043  0.4802 -0.9579  0.5389
 5360TIP3    H237572   1.841   5.367  17.095  1.2712  0.3027 -1.3716
 5361TIP3   OH237573   6.637   3.455   2.176  0.0073  0.1806  0.1540
 5361TIP3    H137574   6.659   3.377   2.227  0.6440 -0.1463 -0.6095
 5361TIP3    H237575   6.553   3.434   2.135  1.0921 -0.8647 -1.5725
 5362TIP3   OH237576   4.034   5.710   0.705 -0.3593 -0.3491 -0.1326
 5362TIP3    H137577   4.021   5.625   0.748 -0.9547 -0.5696 -0.7480
 5362TIP3    H237578   3.982   5.771   0.758  2.2266  0.1581  1.9564
 5363TIP3   OH237579   1.820   1.896  13.027  0.1096 -0.3577 -0.4527
 5363TIP3    H137580   1.783   1.966  12.973  1.8010  0.3023 -0.7938
 5363TIP3    H237581   1.904   1.931  13.056 -0.6623 -0.8212  2.4023
 5364TIP3   OH237582   0.082   3.928  13.842 -0.3608 -0.1179 -0.0063
 5364TIP3    H137583   0.159   3.871  13.840  1.6616  2.4745  1.1474
 5364TIP3    H237584   0.053   3.933  13.751  2.7164  1.2928 -0.9530
 5365TIP3   OH237585   1.199   1.207   4.893 -0.2161  0.4171 -0.6451
 5365TIP3    H137586   1.176   1.250   4.811  0.9578  0.6714 -0.8544
 5365TIP3    H237587   1.265   1.264   4.932 -0.4380  0.0607  0.2539
 5366TIP3   OH237588   2.654   1.685   3.246  0.1737 -0.2662  0.1780
 5366TIP3    H137589   2.584   1.678   3.312  0.9428  1.2799  1.1861
 5366TIP3    H237590   2.726   1.633   3.283  0.6152  0.6237  0.5788
 5367TIP3   OH237591   3.440   6.539  11.721 -0.3827  0.7686 -0.0460
 5367TIP3    H137592   3.523   6.583  11.740 -1.1536  1.7392  1.1245
 5367TIP3    H237593   3.395   6.534  11.805  0.5077 -4.1321  0.2662
 5368TIP3   OH237594   5.758   2.152  13.918  0.4882  0.0333  0.7474
 5368TIP3    H137595   5.743   2.245  13.934 -0.9272 -0.3246  1.6263
 5368TIP3    H237596   5.680   2.123  13.871  1.5743 -0.4160 -0.8216
 5369TIP3   OH237597   1.989   3.545  16.935 -0.4337 -0.6051  0.6444
 5369TIP3    H137598   2.030   3.598  17.004 -1.7047  0.2459  0.7447
 5369TIP3    H237599   2.062   3.524  16.876  0.2910  0.3335  1.1806
 5370TIP3   OH237600   4.510   4.663  11.579  0.2153  0.1072 -0.0329
 5370TIP3    H137601   4.502   4.690  11.670 -0.4005  1.2791 -0.4311
 5370TIP3    H237602   4.445   4.593  11.569  1.0518 -0.7953  0.7030
 5371TIP3   OH237603   5.626   4.328   0.817 -0.0318  0.0453 -0.3413
 5371TIP3    H137604   5.587   4.311   0.903  0.0108  0.9793 -0.1377
 5371TIP3    H237605   5.596   4.415   0.793  0.1730 -0.1058 -1.1642
 5372TIP3   OH237606   1.142   1.010  16.998 -0.6637 -0.7819  0.0332
 5372TIP3    H137607   1.090   1.089  17.009  0.1112 -0.2513 -0.0960
 5372TIP3    H237608   1.185   0.997  17.082  0.7509  0.0519 -0.5372
 5373TIP3   OH237609   2.077   6.504   0.390 -0.5009  0.6514 -0.3915
 5373TIP3    H137610   2.101   6.420   0.350 -2.0667  0.0076 -0.0427
 5373TIP3    H237611   2.159   6.553   0.395  0.2491 -0.4611 -1.5446
 5374TIP3   OH237612   1.432   6.258   2.599 -0.2568 -0.1847 -0.0756
 5374TIP3    H137613   1.494   6.201   2.644  0.0944  0.0682 -0.2405
 5374TIP3    H237614   1.383   6.198   2.541  0.6699 -0.2029 -0.8572
 5375TIP3   OH237615   5.023   2.959  12.029  0.4295 -0.6277  0.5707
 5375TIP3    H137616   5.067   3.043  12.019 -0.8026 -0.2344 -2.0902
 5375TIP3    H237617   5.073   2.899  11.973 -0.4589 -0.9404  0.0972
 5376TIP3   OH237618   2.460   0.461   2.827  0.6484  0.3194 -0.0478
 5376TIP3    H137619   2.493   0.372   2.810  2.0956  0.5438  1.3832
 5376TIP3    H237620   2.532   0.504   2.873 -0.0381  2.2605 -0.7768
 5377TIP3   OH237621   0.719   3.585  16.387  0.0293  0.2459 -0.3788
 5377TIP3    H137622   0.813   3.597  16.398 -0.1014 -0.0627  1.3052
 5377TIP3    H237623   0.710   3.498  16.347  0.4431  0.0565 -0.0608
 5378TIP3   OH237624   6.514   5.987   0.119  0.2562  0.1692  0.2821
 5378TIP3    H137625   6.465   5.905   0.124  1.0734 -0.1835  3.0067
 5378TIP3    H237626   6.533   6.010   0.210  0.9905  2.8153 -0.4941
 5379TIP3   OH237627   4.785   5.362  12.867  0.2993  0.6000  0.2708
 5379TIP3    H137628   4.839   5.441  12.867  1.1231  0.0545  0.9555
 5379TIP3    H237629   4.711   5.383  12.810  1.7617  1.0171 -1.5177
 5380TIP3   OH237630   5.563   4.334   3.320  0.5667  0.1176  0.1721
 5380TIP3    H137631   5.602   4.366   3.401  1.2127  1.9570 -0.8578
 5380TIP3    H237632   5.492   4.395   3.301  2.1060  1.2882 -2.0589
 5381TIP3   OH237633   5.142   3.721   3.837  0.0782  0.0218 -0.4350
 5381TIP3    H137634   5.176   3.658   3.774 -0.2305  0.7159 -1.3094
 5381TIP3    H237635   5.198   3.799   3.826  0.4936 -0.1090  0.6689
 5382TIP3   OH237636   0.105   3.063  15.732 -0.2612 -0.0663 -0.3958
 5382TIP3    H137637   0.126   3.123  15.804  0.1172 -0.7951  0.1037
 5382TIP3    H237638   0.152   2.983  15.753 -1.9319 -1.0412 -0.2950
 5383TIP3   OH237639   1.071   4.270   2.804  0.5681  0.3332  0.1229
 5383TIP3    H137640   1.089   4.339   2.741 -0.3706 -0.0984 -0.6397
 5383TIP3    H237641   1.137   4.281   2.872  2.2840  0.1278 -1.4734
 5384TIP3   OH237642   4.605   4.768   1.087  0.2699  0.0401  0.0097
 5384TIP3    H137643   4.670   4.775   1.016 -0.4669 -2.6989 -1.0106
 5384TIP3    H237644   4.639   4.698   1.143 -0.7679 -0.0089  0.5896
 5385TIP3   OH237645   1.085   5.715  14.697  0.0825  0.3032  0.1858
 5385TIP3    H137646   1.024   5.769  14.746  1.4892  2.3724 -0.2564
 5385TIP3    H237647   1.096   5.760  14.613  1.4063 -0.5793 -0.1408
 5386TIP3   OH237648   1.892   2.826  14.899  0.2278  0.2457  0.1865
 5386TIP3    H137649   1.964   2.808  14.959  0.6960  0.8461 -0.1896
 5386TIP3    H237650   1.813   2.819  14.953  0.4737 -1.6909  0.3098
 5387TIP3   OH237651   6.196   0.588   0.770  0.0379  0.0447  0.3082
 5387TIP3    H137652   6.138   0.512   0.762  1.0703 -0.6567 -0.7878
 5387TIP3    H237653   6.181   0.637   0.689 -0.7958  1.1622  1.1143
 5388TIP3   OH237654   2.946   4.516  11.454  0.1908 -0.2094  0.3318
 5388TIP3    H137655   2.916   4.605  11.435  0.1337 -0.0525  1.1820
 5388TIP3    H237656   2.870   4.472  11.491  0.9390  0.1315  2.3187
 5389TIP3   OH237657   0.678   4.602   3.819 -0.3459  0.2259  0.4942
 5389TIP3    H137658   0.656   4.641   3.904 -0.5208  0.0461  0.5324
 5389TIP3    H237659   0.730   4.669   3.774 -0.3588  0.3697  0.6940
 5390TIP3   OH237660   6.492   6.738  12.450 -0.7179  0.7650 -0.9600
 5390TIP3    H137661   6.516   6.645  12.448 -0.7045  0.7669 -0.8743
 5390TIP3    H237662   6.532   6.774  12.371  1.2806  1.1883  0.2049
 5391TIP3   OH237663   1.081   6.186  15.063 -0.3627 -0.0897  0.2412
 5391TIP3    H137664   1.174   6.207  15.056 -0.5765  0.4204 -1.1836
 5391TIP3    H237665   1.036   6.269  15.048 -1.0871 -0.6235 -0.5552
 5392TIP3   OH237666   0.990   5.941   5.563 -0.1764  0.4111  0.7463
 5392TIP3    H137667   0.923   5.975   5.622 -0.4213  1.9378 -0.3688
 5392TIP3    H237668   1.067   5.995   5.581 -0.6134  1.7217 -1.1629
 5393TIP3   OH237669   4.090   4.136  11.966  0.1187 -0.2471 -0.1881
 5393TIP3    H137670   3.995   4.141  11.966  0.0874 -0.7140  0.7428
 5393TIP3    H237671   4.109   4.052  11.924  0.0943 -0.4416  0.1836
 5394TIP3   OH237672   4.958   1.580  12.277 -0.4777 -0.4368 -0.4778
 5394TIP3    H137673   4.973   1.595  12.183  0.6879 -1.3544 -0.4511
 5394TIP3    H237674   4.978   1.487  12.290  0.7263  0.0010  0.9356
 5395TIP3   OH237675   2.861   6.009   2.589 -0.0146  0.2692 -0.5073
 5395TIP3    H137676   2.934   5.948   2.591 -0.5717 -0.4335 -1.5131
 5395TIP3    H237677   2.812   5.987   2.510 -0.4366  1.7582 -0.6854
 5396TIP3   OH237678   1.222   2.175   3.022 -0.0184 -0.5416  0.2888
 5396TIP3    H137679   1.154   2.238   2.999  0.6774 -0.2073 -0.8543
 5396TIP3    H237680   1.174   2.098   3.054 -0.8694  0.5437  1.6654
 5397TIP3   OH237681   5.992   2.980   3.527 -0.1854 -0.1627  0.2421
 5397TIP3    H137682   6.018   2.928   3.451  1.3469  0.3827  0.3672
 5397TIP3    H237683   5.948   3.056   3.491 -1.0580 -0.7842 -0.0118
 5398TIP3   OH237684   2.443   3.590  14.291 -0.5442 -0.2212 -0.5536
 5398TIP3    H137685   2.359   3.618  14.327 -0.6211 -1.3923  0.1955
 5398TIP3    H237686   2.420   3.553  14.206 -0.6433  0.4478 -0.8238
 5399TIP3   OH237687   3.958   4.377   2.485 -0.1524 -0.2868  0.5346
 5399TIP3    H137688   3.913   4.327   2.418 -0.0079 -2.4082  1.9717
 5399TIP3    H237689   4.051   4.368   2.465 -0.1726  0.4819  0.0684
 5400TIP3   OH237690   5.427   6.538   3.502  0.0061 -0.0982  0.0207
 5400TIP3    H137691   5.389   6.449   3.505 -0.0181 -0.0938 -0.1684
 5400TIP3    H237692   5.351   6.595   3.494  0.0254 -0.0627  0.0901
 5401TIP3   OH237693   0.457   6.784   3.771  0.0200  0.6339 -0.3349
 5401TIP3    H137694   0.478   6.844   3.843 -0.1228  1.5129 -1.0066
 5401TIP3    H237695   0.542   6.756   3.737  0.0887 -0.2236  0.5273
 5402TIP3   OH237696   6.206   4.239  16.713  0.0787 -0.1779 -0.6297
 5402TIP3    H137697   6.119   4.232  16.753 -0.2704 -0.3155 -1.4060
 5402TIP3    H237698   6.229   4.331  16.719  1.1525 -0.5612  2.2286
 5403TIP3   OH237699   2.823   6.302  16.877 -0.2529  0.5079 -0.1239
 5403TIP3    H137700   2.741   6.262  16.906 -0.4072 -0.3155 -1.6278
 5403TIP3    H237701   2.796   6.380  16.830 -0.1939  0.0868 -0.8627
 5404TIP3   OH237702   6.306   1.777  15.741 -0.0035 -0.1803 -0.9044
 5404TIP3    H137703   6.393   1.812  15.761  0.2121 -0.3759 -1.4804
 5404TIP3    H237704   6.283   1.817  15.657  0.5450 -1.9269 -1.9157
 5405TIP3   OH237705   5.712   1.462  14.996  0.1146  0.0891 -0.2333
 5405TIP3    H137706   5.724   1.545  15.041 -0.5767 -0.9245  1.9080
 5405TIP3    H237707   5.800   1.429  14.981  0.3619  0.6207  0.0713
 5406TIP3   OH237708   2.618   4.979  12.474 -0.2280 -0.5925  0.4164
 5406TIP3    H137709   2.639   4.912  12.539  0.2209 -1.2171 -0.3630
 5406TIP3    H237710   2.651   5.060  12.511  1.8619 -1.2530  0.0866
 5407TIP3   OH237711   2.786   2.318  15.518  0.1286 -0.4177 -0.1097
 5407TIP3    H137712   2.744   2.402  15.540  0.1169 -0.0080 -1.6245
 5407TIP3    H237713   2.863   2.342  15.466 -1.3864 -1.4100 -2.9598
 5408TIP3   OH237714   5.647   0.875  11.828 -0.3331  0.0853 -0.1593
 5408TIP3    H137715   5.696   0.953  11.801 -0.1152 -0.7071 -2.1498
 5408TIP3    H237716   5.714   0.810  11.848 -0.5313 -0.0921 -0.0654
 5409TIP3   OH237717   2.954   0.391   6.558 -0.3114 -0.4632 -0.1405
 5409TIP3    H137718   3.013   0.331   6.604  1.8711  1.7582  0.0776
 5409TIP3    H237719   2.919   0.447   6.627  0.7765  1.0516 -0.7833
 5410TIP3   OH237720   1.534   3.493   0.666  0.3921  0.3800  0.6136
 5410TIP3    H137721   1.499   3.419   0.716 -0.9717  0.8204  0.3327
 5410TIP3    H237722   1.621   3.508   0.703  1.0976 -1.9708  0.0442
 5411TIP3   OH237723   2.626   1.473   5.422 -0.2398  0.2887  0.5454
 5411TIP3    H137724   2.549   1.440   5.375  0.8205 -1.2176 -0.2069
 5411TIP3    H237725   2.619   1.436   5.510 -0.0978 -0.3209  0.3048
 5412TIP3   OH237726   6.791   3.286  11.726  0.0151  0.0446  0.7480
 5412TIP3    H137727   6.700   3.260  11.716 -0.1622  1.3305 -1.1925
 5412TIP3    H237728   6.794   3.378  11.699  1.8632  0.0495  0.8612
 5413TIP3   OH237729   3.843   6.690   5.337 -0.0046  0.0467  0.3394
 5413TIP3    H137730   3.750   6.698   5.314 -0.1205 -1.2096  0.3458
 5413TIP3    H237731   3.889   6.732   5.264 -0.5908  1.0553  0.5426
 5414TIP3   OH237732   0.932   1.773   4.399 -0.3400 -0.0290  0.0527
 5414TIP3    H137733   0.983   1.757   4.320 -0.4766 -1.0926  0.1705
 5414TIP3    H237734   0.884   1.853   4.381  0.6388  0.4624 -0.4255
 5415TIP3   OH237735   1.830   1.926   0.608 -0.8578 -0.4427 -0.7730
 5415TIP3    H137736   1.849   1.963   0.522 -0.9314  2.4350  0.4009
 5415TIP3    H237737   1.739   1.896   0.602 -2.1720  3.2859 -0.5743
 5416TIP3   OH237738   6.512   3.854   1.279  0.0181  0.3134  0.2754
 5416TIP3    H137739   6.449   3.797   1.324  0.6402 -1.0075 -0.4895
 5416TIP3    H237740   6.493   3.942   1.312 -1.8548 -0.1454  0.4619
 5417TIP3   OH237741   6.011   3.135   2.723 -0.4002 -0.2683 -0.2529
 5417TIP3    H137742   5.981   3.110   2.636 -0.5118 -0.0333 -0.2831
 5417TIP3    H237743   5.935   3.175   2.765  0.4206  2.2793 -1.0980
 5418TIP3   OH237744   1.788   5.606  16.562  0.5289 -0.1467  0.1200
 5418TIP3    H137745   1.771   5.675  16.498 -0.3104  0.5113  1.0470
 5418TIP3    H237746   1.822   5.651  16.639  1.3230 -0.9134  0.2320
 5419TIP3   OH237747   2.153   1.464   5.437  0.1979  0.3628 -0.0052
 5419TIP3    H137748   2.215   1.489   5.368 -0.8281  1.4272 -0.5608
 5419TIP3    H237749   2.209   1.429   5.507  1.2015 -1.2656 -1.5794
 5420TIP3   OH237750   2.724   5.958  13.856 -0.0652 -0.1677  0.0321
 5420TIP3    H137751   2.780   5.912  13.794  0.2201 -0.8707  0.7986
 5420TIP3    H237752   2.781   5.980  13.929 -0.4665  0.3982  0.1851
 5421TIP3   OH237753   5.556   0.906  11.523 -0.1510  0.4627  0.6662
 5421TIP3    H137754   5.619   0.866  11.583 -1.2156  0.5333  1.8700
 5421TIP3    H237755   5.567   0.860  11.440  0.5033 -0.4804  1.2725
 5422TIP3   OH237756   5.765   5.802  14.690 -0.1911  0.3516 -0.4300
 5422TIP3    H137757   5.735   5.720  14.729 -1.3575  0.6913 -0.5953
 5422TIP3    H237758   5.845   5.824  14.738 -0.3653 -0.4168  0.2117
 5423TIP3   OH237759   3.537   4.270  14.796 -0.0121  0.3474 -0.0500
 5423TIP3    H137760   3.604   4.210  14.765  0.7830  0.9544  0.4609
 5423TIP3    H237761   3.580   4.356  14.795 -0.1477  0.4759  2.1232
 5424TIP3   OH237762   4.516   5.303  15.187 -0.3724  0.1910 -0.1075
 5424TIP3    H137763   4.582   5.309  15.257  2.1385 -3.1162 -2.0168
 5424TIP3    H237764   4.541   5.373  15.126  0.2447  0.1575  0.0936
 5425TIP3   OH237765   5.772   3.805  13.170 -0.1733  0.4899 -0.2343
 5425TIP3    H137766   5.850   3.756  13.143 -0.7227  0.8281 -2.5908
 5425TIP3    H237767   5.800   3.857  13.244  1.8837  0.6804 -1.1259
 5426TIP3   OH237768   0.185   6.753   3.068  0.1110  0.1455 -0.1084
 5426TIP3    H137769   0.243   6.813   3.115 -0.2054  1.5464 -1.4460
 5426TIP3    H237770   0.103   6.755   3.117  0.2413  0.4795  0.1001
 5427TIP3   OH237771   3.874   2.122   3.502  0.2114  0.5550 -0.0628
 5427TIP3    H137772   3.858   2.029   3.485 -0.8527  0.7527 -0.1905
 5427TIP3    H237773   3.910   2.155   3.420  2.4219 -0.1389  0.5895
 5428TIP3   OH237774   4.610   3.578  16.256 -0.3528  0.0863  0.5130
 5428TIP3    H137775   4.600   3.620  16.170 -0.6353  0.3173  0.6589
 5428TIP3    H237776   4.683   3.518  16.245 -1.2903 -0.9310 -0.2964
 5429TIP3   OH237777   1.064   1.718   4.942 -0.3345  0.0502  0.8256
 5429TIP3    H137778   1.043   1.729   4.849 -0.6028  0.3054  0.9144
 5429TIP3    H237779   1.026   1.633   4.964 -0.1212 -0.0890  0.6600
 5430TIP3   OH237780   3.868   4.563  10.509 -0.1452 -0.5287  0.3075
 5430TIP3    H137781   3.829   4.558  10.596  0.6927  0.7735  0.7786
 5430TIP3    H237782   3.795   4.546  10.449 -1.3454  1.4042  1.1781
 5431TIP3   OH237783   1.597   6.513  16.309 -0.1385 -0.0763  0.1091
 5431TIP3    H137784   1.641   6.580  16.362 -2.4789  1.8210 -0.2937
 5431TIP3    H237785   1.618   6.537  16.218 -1.0284  0.1378 -0.0379
 5432TIP3   OH237786   3.757   2.543  16.970  0.4415  0.3125  0.8187
 5432TIP3    H137787   3.783   2.451  16.969 -1.7530 -0.3562 -1.7497
 5432TIP3    H237788   3.664   2.542  16.991  0.0708  1.8169 -0.6418
 5433TIP3   OH237789   3.483   5.124   2.523  0.6179  0.4617 -0.2346
 5433TIP3    H137790   3.512   5.172   2.601  1.4975  1.1282 -0.9630
 5433TIP3    H237791   3.400   5.085   2.549 -0.3156  2.7261  0.2454
 5434TIP3   OH237792   0.768   2.437  17.248 -0.5256  0.2601  0.0998
 5434TIP3    H137793   0.688   2.477  17.283 -1.3943 -1.6062  0.2887
 5434TIP3    H237794   0.814   2.404  17.325 -0.9460 -1.1286 -0.2318
 5435TIP3   OH237795   4.423   1.329  16.120 -0.3454  0.5888 -0.0023
 5435TIP3    H137796   4.411   1.373  16.036 -1.7169  0.7700  0.2799
 5435TIP3    H237797   4.492   1.265  16.103 -0.0544  1.1596 -1.0547
 5436TIP3   OH237798   2.192   1.242  10.948 -0.0422 -0.2327 -0.3565
 5436TIP3    H137799   2.142   1.162  10.931 -1.5946  0.3371  1.3512
 5436TIP3    H237800   2.178   1.296  10.870  0.5462 -1.3828 -1.2707
 5437TIP3   OH237801   3.845   2.909   2.236 -0.3898  0.0190  0.2540
 5437TIP3    H137802   3.888   2.831   2.271 -1.1640  0.2059  1.6380
 5437TIP3    H237803   3.883   2.920   2.149  0.2807 -1.4633  0.3470
 5438TIP3   OH237804   3.824   4.106  11.676 -0.1660 -0.0156 -0.4904
 5438TIP3    H137805   3.770   4.078  11.603 -2.3069 -0.8698  1.3509
 5438TIP3    H237806   3.898   4.045  11.678 -1.9837 -2.2569  0.2229
 5439TIP3   OH237807   5.890   6.284  15.105  0.6208  0.3829 -0.2694
 5439TIP3    H137808   5.903   6.378  15.115  0.5306  0.1971  1.8060
 5439TIP3    H237809   5.809   6.276  15.055  0.8347  1.4170 -0.7759
 5440TIP3   OH237810   5.849   5.370   2.957  0.4234  0.0428  0.5863
 5440TIP3    H137811   5.800   5.314   2.895  0.9592 -0.8613  0.9753
 5440TIP3    H237812   5.807   5.456   2.949  0.5895 -0.0207 -1.1586
 5441TIP3   OH237813   0.077   4.297  10.390 -0.0425 -0.6322  0.1286
 5441TIP3    H137814  -0.011   4.260  10.387 -0.5628  0.7540 -2.2333
 5441TIP3    H237815   0.122   4.258  10.315  0.9330 -0.2673  0.5133
 5442TIP3   OH237816   0.517   6.022  14.463 -0.2093 -0.2306 -0.4690
 5442TIP3    H137817   0.543   6.061  14.379  0.8148 -0.8357 -0.4528
 5442TIP3    H237818   0.584   6.052  14.525 -0.9976  0.2622  0.1449
 5443TIP3   OH237819   2.495   6.073   4.935  0.0225  0.3705 -0.7284
 5443TIP3    H137820   2.443   6.057   5.014 -0.4938  0.1058 -1.1257
 5443TIP3    H237821   2.526   6.163   4.945 -1.4204  0.9095 -1.0222
 5444TIP3   OH237822   1.411   0.192  15.531  0.4464  0.1708 -0.4644
 5444TIP3    H137823   1.431   0.277  15.492 -0.7542 -0.0379 -1.5333
 5444TIP3    H237824   1.353   0.213  15.605 -0.9936  0.1725 -1.5785
 5445TIP3   OH237825   1.170   6.634  11.151  0.2212 -0.3174  0.3622
 5445TIP3    H137826   1.127   6.715  11.123  0.8753  0.1585  0.6919
 5445TIP3    H237827   1.144   6.623  11.242  1.5318  0.5038  0.8682
 5446TIP3   OH237828   0.066   0.658   4.349  0.0114  0.4288  0.0323
 5446TIP3    H137829  -0.005   0.594   4.335  0.5315  0.0127 -0.7671
 5446TIP3    H237830   0.091   0.646   4.441  1.1318 -1.6244 -0.4923
 5447TIP3   OH237831   0.547   1.098  15.501  0.0408 -0.3191  0.1182
 5447TIP3    H137832   0.604   1.048  15.560  1.9568  0.0096 -1.3850
 5447TIP3    H237833   0.547   1.187  15.537  0.2871 -0.3741  0.2533
 5448TIP3   OH237834   5.932   5.822  14.115  0.3949  0.8398 -0.1882
 5448TIP3    H137835   5.865   5.825  14.047  1.5599  0.0133 -1.4016
 5448TIP3    H237836   5.989   5.896  14.096  1.5829 -0.2756 -1.0417
 5449TIP3   OH237837   1.378   1.139   3.394 -0.1840  0.1176 -0.0527
 5449TIP3    H137838   1.338   1.071   3.449  2.4572 -0.3181  1.4164
 5449TIP3    H237839   1.346   1.221   3.430  0.2028 -0.2227  1.0824
 5450TIP3   OH237840   4.282   0.223  11.310  0.1672 -0.4356  0.1987
 5450TIP3    H137841   4.279   0.299  11.368 -0.3977 -1.3810  1.4316
 5450TIP3    H237842   4.229   0.156  11.355  1.7236 -1.9967 -0.2267
 5451TIP3   OH237843   1.696   1.492   1.233 -0.3161  0.7472  0.4316
 5451TIP3    H137844   1.788   1.480   1.210  0.3853  1.7921  2.6072
 5451TIP3    H237845   1.665   1.559   1.171  1.0605  2.2039  1.2838
 5452TIP3   OH237846   5.242   4.002   5.460  0.1158  0.4791  0.2300
 5452TIP3    H137847   5.195   3.938   5.406  0.6222 -0.6065  1.0679
 5452TIP3    H237848   5.174   4.065   5.487 -0.2032  0.8492 -1.3934
 5453TIP3   OH237849   2.105   1.373   2.371  0.4676 -0.4842 -0.1098
 5453TIP3    H137850   2.049   1.316   2.318  0.2803 -1.4684  1.1086
 5453TIP3    H237851   2.054   1.387   2.451  1.0500  0.3872  0.1061
 5454TIP3   OH237852   3.693   1.214  12.015  0.3010  0.1083 -0.1100
 5454TIP3    H137853   3.726   1.194  12.103  0.0052 -0.7726 -0.1984
 5454TIP3    H237854   3.633   1.288  12.028  1.5765  1.1041  0.1805
 5455TIP3   OH237855   5.782   2.344  15.221  0.0379 -0.3991  0.3081
 5455TIP3    H137856   5.839   2.272  15.198  0.8782  0.9166 -1.8754
 5455TIP3    H237857   5.708   2.337  15.161  0.6209  1.1141 -0.6336
 5456TIP3   OH237858   4.644   2.160  12.902 -0.1150  0.1955 -0.1486
 5456TIP3    H137859   4.646   2.108  12.822  0.0388  0.1988 -0.1481
 5456TIP3    H237860   4.587   2.111  12.961  0.8689 -0.5205  0.2249
 5457TIP3   OH237861   4.313   5.231   4.203 -0.0903  0.1347  0.5980
 5457TIP3    H137862   4.225   5.204   4.175 -0.6442  0.4400  1.9994
 5457TIP3    H237863   4.303   5.254   4.295  1.0816  1.8883  0.3135
 5458TIP3   OH237864   5.790   5.034  15.867 -0.0875 -0.8723 -0.7689
 5458TIP3    H137865   5.876   5.026  15.909 -0.2707  0.5478 -0.1171
 5458TIP3    H237866   5.776   4.948  15.827  0.9778 -1.5957  0.3557
 5459TIP3   OH237867   5.790   0.901  10.766  0.3532 -0.3655 -0.0746
 5459TIP3    H137868   5.769   0.919  10.675  1.5138 -1.0167 -0.4715
 5459TIP3    H237869   5.707   0.914  10.813 -0.0027  1.0256 -1.0555
 5460TIP3   OH237870   4.736   1.979   5.545 -0.1991 -0.4448  0.4210
 5460TIP3    H137871   4.761   2.070   5.559  1.2252 -0.7139 -0.3544
 5460TIP3    H237872   4.749   1.936   5.629  0.8801 -0.3323  0.3105
 5461TIP3   OH237873   5.127   6.064   3.446  0.4715 -0.4024 -0.1878
 5461TIP3    H137874   5.085   6.029   3.524  1.5055 -0.3828  0.3974
 5461TIP3    H237875   5.118   6.159   3.453 -0.0455 -0.4350 -0.4409
 5462TIP3   OH237876   1.706   2.527   2.568 -0.1193 -0.0943 -0.3068
 5462TIP3    H137877   1.764   2.476   2.625 -0.8195 -1.3265 -0.6812
 5462TIP3    H237878   1.668   2.463   2.509 -1.6718  0.7321 -0.2448
 5463TIP3   OH237879   2.065   5.594   1.192 -0.5817  0.9397 -0.3181
 5463TIP3    H137880   2.089   5.506   1.219 -0.2378  1.2019  0.2395
 5463TIP3    H237881   1.979   5.609   1.232 -0.9628  0.5928 -1.0031
 5464TIP3   OH237882   6.114   3.764   1.510 -0.4600  0.1997  0.5016
 5464TIP3    H137883   6.187   3.711   1.478 -0.3958  0.1574  0.7216
 5464TIP3    H237884   6.116   3.843   1.455 -1.0805 -0.3979 -0.3954
 5465TIP3   OH237885   3.560   6.263  16.809  0.6650  0.0462  0.7886
 5465TIP3    H137886   3.582   6.346  16.766 -0.8210  0.5310  0.9602
 5465TIP3    H237887   3.472   6.242  16.777  0.6047 -0.9127  1.5892
 5466TIP3   OH237888   6.335   5.652   1.436 -0.3497  0.0160  0.1502
 5466TIP3    H137889   6.365   5.565   1.464  0.1047  0.2460  0.3769
 5466TIP3    H237890   6.360   5.710   1.508 -0.1891  0.4208 -0.2369
 5467TIP3   OH237891   6.651   0.389   3.339  0.3056  0.4616  0.3151
 5467TIP3    H137892   6.660   0.378   3.244  0.9600  0.3347  0.3891
 5467TIP3    H237893   6.574   0.444   3.350  0.2726  0.5362 -0.2965
 5468TIP3   OH237894   6.650   4.696  15.711  0.0588 -0.2087  0.0187
 5468TIP3    H137895   6.699   4.617  15.685  1.6515  1.0946 -1.0621
 5468TIP3    H237896   6.709   4.742  15.771 -0.1497  0.9955 -0.6828
 5469TIP3   OH237897   4.287   3.624  13.304 -0.0231 -0.0486 -0.2608
 5469TIP3    H137898   4.350   3.638  13.234 -0.3421  1.5564 -0.2501
 5469TIP3    H237899   4.292   3.530  13.322  2.0796 -0.0116 -0.5011
 5470TIP3   OH237900   5.314   6.287  16.861  0.0115 -0.0611 -0.3930
 5470TIP3    H137901   5.387   6.312  16.804 -1.0110  0.8544 -1.3297
 5470TIP3    H237902   5.270   6.370  16.881 -0.2024 -0.4878  0.9590
 5471TIP3   OH237903   3.821   2.907  16.333  0.3981  0.0463  0.4196
 5471TIP3    H137904   3.785   2.818  16.335  2.0649 -0.6894 -1.2230
 5471TIP3    H237905   3.807   2.937  16.243  2.4218  0.3391  0.1778
 5472TIP3   OH237906   1.779   1.543  15.652 -0.1135  0.4567  0.6700
 5472TIP3    H137907   1.747   1.574  15.736 -2.2098 -0.4980  0.2573
 5472TIP3    H237908   1.733   1.460  15.637  1.2640 -0.0951 -0.7706
 5473TIP3   OH237909   5.676   5.877   2.743  0.2174  0.4911 -0.1763
 5473TIP3    H137910   5.597   5.824   2.753  0.6243  0.1116  1.0674
 5473TIP3    H237911   5.661   5.955   2.797  0.8681  0.2179  0.4056
 5474TIP3   OH237912   0.932   4.661  15.686 -0.0550  0.4067 -0.3646
 5474TIP3    H137913   0.898   4.668  15.597  0.6188 -0.3727 -0.6842
 5474TIP3    H237914   0.925   4.750  15.720 -3.5159  0.0719  0.0084
 5475TIP3   OH237915   4.613   4.678   2.317 -0.1102 -0.5388 -0.6583
 5475TIP3    H137916   4.607   4.689   2.412 -0.1550 -1.2385 -0.5821
 5475TIP3    H237917   4.523   4.684   2.286 -0.3865 -2.8250 -0.3824
 5476TIP3   OH237918   1.611   2.312   5.281  0.2897  0.5694  0.3855
 5476TIP3    H137919   1.672   2.362   5.228  1.1824 -0.7297  0.1673
 5476TIP3    H237920   1.666   2.262   5.341 -0.4554 -1.8047 -0.8658
 5477TIP3   OH237921   6.768   1.506  15.218 -0.1441 -0.0677 -0.2801
 5477TIP3    H137922   6.796   1.440  15.282 -0.9907 -0.0621  0.0953
 5477TIP3    H237923   6.712   1.459  15.157 -0.1176  0.1357 -0.4598
 5478TIP3   OH237924   5.063   6.683   0.740  0.1650 -0.0175 -0.4340
 5478TIP3    H137925   5.121   6.663   0.666 -0.0075 -4.3969  0.4463
 5478TIP3    H237926   4.992   6.619   0.732  0.0433 -0.4736  3.3922
 5479TIP3   OH237927   1.044   0.412   5.914  0.6814 -0.1136 -0.3087
 5479TIP3    H137928   1.127   0.458   5.901  1.2262 -1.0375 -0.1566
 5479TIP3    H237929   1.033   0.359   5.835 -1.2269  2.1894 -1.6569
 5480TIP3   OH237930   1.873   1.243   5.919  0.3340  0.4045  0.1366
 5480TIP3    H137931   1.948   1.285   5.962 -1.0963  4.2139 -0.8648
 5480TIP3    H237932   1.895   1.244   5.826 -0.1873 -0.1297  0.0083
 5481TIP3   OH237933   4.514   0.405  14.685 -0.0038  0.1394  0.0287
 5481TIP3    H137934   4.419   0.397  14.680  0.0977 -0.7639 -0.5768
 5481TIP3    H237935   4.533   0.493  14.651 -0.6881  0.6988  1.0627
 5482TIP3   OH237936   4.061   6.705   0.744 -0.7100 -0.9112  0.0386
 5482TIP3    H137937   4.021   6.685   0.659 -0.5741 -0.9305 -0.0219
 5482TIP3    H237938   3.994   6.681   0.808 -0.4858 -1.7372 -0.0278
 5483TIP3   OH237939   0.456   1.892   3.216  0.1539 -0.7363 -0.6979
 5483TIP3    H137940   0.513   1.862   3.146 -1.8062 -0.6096 -2.4099
 5483TIP3    H237941   0.369   1.898   3.175 -0.9184 -0.0842  1.5826
 5484TIP3   OH237942   2.608   5.418  10.413  0.3324  0.2756  0.6827
 5484TIP3    H137943   2.698   5.393  10.393  0.3100 -0.1931  1.1458
 5484TIP3    H237944   2.583   5.478  10.343  0.4938 -0.7529 -0.2689
 5485TIP3   OH237945   5.102   0.736   1.467  0.0007  0.2825  0.5475
 5485TIP3    H137946   5.020   0.780   1.486  0.4139  1.0998  0.4567
 5485TIP3    H237947   5.084   0.686   1.387 -0.8255 -0.7019  1.3412
 5486TIP3   OH237948   3.207   2.956  14.536 -0.5617  0.0912 -0.7249
 5486TIP3    H137949   3.125   3.001  14.556  0.6983  2.3673 -0.4245
 5486TIP3    H237950   3.204   2.875  14.587 -2.4698  0.2892 -0.4976
 5487TIP3   OH237951   0.950   1.618  16.287 -0.1074  0.1260  0.1996
 5487TIP3    H137952   0.976   1.531  16.317  1.1047  0.0505 -1.0366
 5487TIP3    H237953   0.857   1.625  16.309  0.0685 -1.0348  1.3263
 5488TIP3   OH237954   2.556   1.263   3.945  0.2480  0.6895  0.3426
 5488TIP3    H137955   2.635   1.317   3.947  1.8468 -1.5505  1.0620
 5488TIP3    H237956   2.518   1.271   4.032  3.5822 -3.5590  2.3877
 5489TIP3   OH237957   5.348   2.797   3.795  0.6165  0.5867  0.2453
 5489TIP3    H137958   5.335   2.878   3.844  1.0282 -1.1630  3.3050
 5489TIP3    H237959   5.423   2.755   3.837  0.5100 -1.3238 -1.3985
 5490TIP3   OH237960   5.774   0.272   0.895 -0.5980 -0.2936  0.6352
 5490TIP3    H137961   5.840   0.235   0.953 -0.5138 -1.1375  0.0130
 5490TIP3    H237962   5.693   0.227   0.919 -0.1829 -2.1737 -1.2450
 5491TIP3   OH237963   2.199   0.296   5.613 -1.1124 -0.4949 -0.6938
 5491TIP3    H137964   2.192   0.228   5.680 -1.7706 -0.1356 -0.3952
 5491TIP3    H237965   2.291   0.322   5.615 -1.2144 -0.1956  0.3617
 5492TIP3   OH237966   6.800   4.672  14.127 -0.1889  0.8518  0.1384
 5492TIP3    H137967   6.761   4.588  14.104 -0.6748  0.8628  0.9038
 5492TIP3    H237968   6.732   4.717  14.179  0.1810  1.5818 -0.0011
 5493TIP3   OH237969   5.397   0.019  15.906  0.2076  0.7210  0.0080
 5493TIP3    H137970   5.427   0.024  15.997 -0.1678 -0.0166  0.1792
 5493TIP3    H237971   5.431  -0.064  15.874 -0.5436  0.4845 -0.1949
 5494TIP3   OH237972   4.392   2.175  14.876  0.4006 -0.2103  0.0221
 5494TIP3    H137973   4.347   2.234  14.815 -0.9920  1.4204  2.5502
 5494TIP3    H237974   4.474   2.219  14.896  0.5129 -0.3693 -0.0891
 5495TIP3   OH237975   6.146   1.185  13.521 -0.4689  0.4170  0.4738
 5495TIP3    H137976   6.121   1.100  13.558  2.5616 -1.2610 -1.1186
 5495TIP3    H237977   6.186   1.164  13.437 -1.5334  3.6430 -0.9188
 5496TIP3   OH237978   4.442   6.490  11.153 -0.0930 -0.0831 -0.5986
 5496TIP3    H137979   4.403   6.554  11.214  0.9891 -0.4758  0.5209
 5496TIP3    H237980   4.441   6.408  11.201  0.4977 -0.4581 -1.2254
 5497TIP3   OH237981   3.925   3.904  10.619  0.1053 -0.3917  0.6606
 5497TIP3    H137982   3.840   3.938  10.592 -1.0853 -1.7887  2.5232
 5497TIP3    H237983   3.938   3.826  10.565  1.0200  0.7754 -0.8338
 5498TIP3   OH237984   0.978   4.095   4.079  0.5006 -0.5435  0.2308
 5498TIP3    H137985   1.056   4.106   4.134  2.3406  0.0573 -2.4107
 5498TIP3    H237986   0.987   4.007   4.042 -0.7351 -0.9494  0.8787
 5499TIP3   OH237987   5.588   3.356  12.977  0.0861  0.0425 -0.0513
 5499TIP3    H137988   5.595   3.338  12.884 -0.0648  3.9863 -0.9243
 5499TIP3    H237989   5.646   3.293  13.019 -0.0904 -1.9807 -2.7681
 5500TIP3   OH237990   6.813   6.799   1.762 -0.3924 -0.2261 -0.3660
 5500TIP3    H137991   6.738   6.824   1.816 -1.8633  0.6590 -2.7013
 5500TIP3    H237992   6.808   6.857   1.686  2.3130 -0.5879 -0.8653
 5501TIP3   OH237993   3.392   1.556  12.079 -0.0632  0.1376  0.0841
 5501TIP3    H137994   3.392   1.650  12.057  0.1976 -0.6017 -3.4346
 5501TIP3    H237995   3.314   1.521  12.036  0.6899 -1.5461  0.0541
 5502TIP3   OH237996   5.832   4.690  11.157  0.1549 -0.3314  0.0307
 5502TIP3    H137997   5.856   4.597  11.147  0.1085 -0.2617 -0.8296
 5502TIP3    H237998   5.860   4.730  11.074 -0.5118  0.2758  0.0987
 5503TIP3   OH237999   1.427   1.538   1.418 -0.1903  0.0904  0.3621
 5503TIP3    H138000   1.496   1.601   1.394 -1.2447  0.6474 -1.3549
 5503TIP3    H238001   1.425   1.476   1.345 -3.0761  1.4512 -0.7988
 5504TIP3   OH238002   0.842   5.668  17.080  0.0804 -0.1698 -0.2480
 5504TIP3    H138003   0.895   5.607  17.131 -0.0738 -0.2774 -0.2149
 5504TIP3    H238004   0.897   5.745  17.067  1.1037 -1.1900 -2.1773
 5505TIP3   OH238005   3.236   2.089   3.889  0.2235  0.5227  0.2087
 5505TIP3    H138006   3.149   2.095   3.927 -0.9148 -1.1010 -2.0170
 5505TIP3    H238007   3.248   2.171   3.841  0.0460  0.8840  0.7895
 5506TIP3   OH238008   6.143   6.337  13.324 -0.5960  0.0187 -0.6894
 5506TIP3    H138009   6.054   6.372  13.326 -0.1036  1.3174  3.2002
 5506TIP3    H238010   6.197   6.409  13.291 -0.8466 -0.4684 -2.1906
 5507TIP3   OH238011   0.117   5.277   2.972 -0.1392 -0.4517 -0.4078
 5507TIP3    H138012   0.047   5.304   3.031  1.3887 -0.7874  1.6184
 5507TIP3    H238013   0.074   5.221   2.907 -1.7677 -0.4612  0.6525
 5508TIP3   OH238014   2.919   6.475   0.917 -0.2242  0.3394 -0.0600
 5508TIP3    H138015   2.906   6.429   0.834  0.5961 -0.5507  0.2955
 5508TIP3    H238016   2.888   6.564   0.900 -0.8794 -0.0664 -1.0599
 5509TIP3   OH238017   5.733   4.804   2.166  0.1118 -0.3383  0.1183
 5509TIP3    H138018   5.681   4.753   2.228 -0.4110  2.0454  1.6972
 5509TIP3    H238019   5.682   4.882   2.150  1.9056  0.7414 -0.4961
 5510TIP3   OH238020   6.384   6.220  16.103 -0.4758 -0.6025 -0.5531
 5510TIP3    H138021   6.328   6.143  16.101 -0.6396 -0.5607  1.5028
 5510TIP3    H238022   6.374   6.254  16.192 -0.0538  1.5278 -1.2951
 5511TIP3   OH238023   0.129   5.780   2.255 -0.2720 -0.2168 -0.4811
 5511TIP3    H138024   0.066   5.772   2.183  0.7633  1.6273 -1.6319
 5511TIP3    H238025   0.173   5.863   2.239  3.8106 -2.3205 -0.7600
 5512TIP3   OH238026   2.477   1.247  11.963  0.1816  0.0611  0.0833
 5512TIP3    H138027   2.382   1.246  11.964  0.1573 -1.6730 -0.9755
 5512TIP3    H238028   2.502   1.285  12.047 -1.4342  1.3247  0.0176
 5513TIP3   OH238029   1.822   3.331  13.285  0.0248  0.5156  0.1166
 5513TIP3    H138030   1.786   3.329  13.196 -0.3470 -1.2815  0.2839
 5513TIP3    H238031   1.748   3.309  13.341  0.0460  2.5151  0.9746
 5514TIP3   OH238032   0.287   2.066   0.562  0.2432 -0.5919 -0.6529
 5514TIP3    H138033   0.193   2.060   0.579  0.5520 -1.0545  0.9338
 5514TIP3    H238034   0.298   2.031   0.473 -0.6625 -3.9555  0.4797
 5515TIP3   OH238035   4.040   0.557  13.164 -0.5549 -0.4983 -0.5060
 5515TIP3    H138036   4.015   0.647  13.187  1.1732  0.0132 -0.5438
 5515TIP3    H238037   3.977   0.530  13.098 -3.2837 -0.6157  2.0476
 5516TIP3   OH238038   0.027   4.971  12.969  0.3010  0.5165 -0.1062
 5516TIP3    H138039   0.068   5.041  12.918  1.4296  1.8489  2.5669
 5516TIP3    H238040   0.098   4.909  12.985  0.1538  0.5321  0.5960
 5517TIP3   OH238041   1.914   0.540   2.453  0.7191 -0.5581  0.0782
 5517TIP3    H138042   1.893   0.454   2.490  0.3767 -0.5725 -0.1420
 5517TIP3    H238043   1.882   0.603   2.518 -1.7039 -0.5314 -1.0530
 5518TIP3   OH238044   5.236   6.740   3.498  0.5976 -0.1061 -0.0867
 5518TIP3    H138045   5.233   6.812   3.562  1.4234  0.7301 -0.9804
 5518TIP3    H238046   5.178   6.769   3.428  1.3520 -0.0792 -0.6976
 5519TIP3   OH238047   4.790   2.097  11.481  0.5036  0.7246  0.2180
 5519TIP3    H138048   4.719   2.060  11.429  0.3081 -0.9973  1.6479
 5519TIP3    H238049   4.863   2.037  11.468  1.4392  2.0124 -0.5533
 5520TIP3   OH238050   5.246   2.410  11.002  0.5523 -0.4448  0.4341
 5520TIP3    H138051   5.249   2.505  11.013  1.9211 -0.6034  1.5017
 5520TIP3    H238052   5.245   2.397  10.907 -0.4767  0.6531  0.2893
 5521TIP3   OH238053   4.061   0.186   4.415 -1.0134  0.1398  0.0542
 5521TIP3    H138054   4.156   0.189   4.422 -1.1621  1.4903  1.8955
 5521TIP3    H238055   4.030   0.215   4.501 -3.0808 -1.4333 -0.1301
 5522TIP3   OH238056   1.876   1.690  11.830 -0.2418  0.1358 -0.0615
 5522TIP3    H138057   1.951   1.687  11.889 -0.3956  0.9611  0.1782
 5522TIP3    H238058   1.875   1.604  11.788  0.3649 -0.1557  0.5202
 5523TIP3   OH238059   3.489   2.031  11.868  0.9663  0.5051  0.2751
 5523TIP3    H138060   3.449   2.106  11.825 -0.2569 -0.0087  0.4895
 5523TIP3    H238061   3.531   2.067  11.946 -0.4008  0.8328  0.8624
 5524TIP3   OH238062   4.633   3.500   4.118 -0.3419  0.9639 -0.3828
 5524TIP3    H138063   4.566   3.484   4.052 -1.2105  1.4100  0.3855
 5524TIP3    H238064   4.702   3.437   4.098 -2.0796 -1.2585  0.3534
 5525TIP3   OH238065   6.539   6.576  16.883 -0.4062 -0.3018 -0.8097
 5525TIP3    H138066   6.621   6.622  16.867 -1.1095  1.2320 -0.0825
 5525TIP3    H238067   6.561   6.508  16.946  0.2249  0.3977 -0.2725
 5526TIP3   OH238068   3.979   1.546   3.119 -0.0325  0.3075 -0.8245
 5526TIP3    H138069   4.036   1.469   3.125 -0.9572 -0.7192 -4.1101
 5526TIP3    H238070   3.894   1.516   3.151 -0.0196  0.4219 -0.6789
 5527TIP3   OH238071   2.037   5.023   6.152  0.1449  0.1085  0.7349
 5527TIP3    H138072   2.020   4.929   6.156 -1.2085  0.3984  2.5168
 5527TIP3    H238073   2.013   5.048   6.062 -1.3495 -0.9140  0.8290
 5528TIP3   OH238074   0.374   2.761  16.595 -0.6388  0.0101  0.0974
 5528TIP3    H138075   0.364   2.711  16.514  1.2639 -0.9068  0.4165
 5528TIP3    H238076   0.300   2.733  16.650  0.9409 -3.2441  0.6699
 5529TIP3   OH238077   0.515   1.491  14.081  0.2204  0.7202  0.3497
 5529TIP3    H138078   0.448   1.442  14.128  0.4477 -1.7046 -1.7512
 5529TIP3    H238079   0.466   1.550  14.024 -0.1581 -0.6287 -0.7485
 5530TIP3   OH238080   1.799   3.435  12.210 -0.2524 -0.3857  0.1542
 5530TIP3    H138081   1.819   3.342  12.195  0.5841 -0.1736 -0.0959
 5530TIP3    H238082   1.875   3.481  12.175 -1.5597  0.5151 -1.5740
 5531TIP3   OH238083   3.397   0.831  14.301  0.2679  0.3383 -0.0679
 5531TIP3    H138084   3.420   0.848  14.393  0.9641  0.0391 -0.1796
 5531TIP3    H238085   3.335   0.900  14.278  1.9733  1.8840 -0.1028
 5532TIP3   OH238086   3.219   4.213  17.274  0.4184 -0.4556  0.3838
 5532TIP3    H138087   3.213   4.227  17.368  1.3971 -2.5663  0.7954
 5532TIP3    H238088   3.138   4.168  17.251 -0.3864  1.1805 -0.0139
 5533TIP3   OH238089   2.299   4.680  15.538  0.0484  0.0627 -0.0644
 5533TIP3    H138090   2.387   4.716  15.531 -0.9963  2.7143 -0.4847
 5533TIP3    H238091   2.285   4.669  15.632  0.4532  0.6307  0.0647
 5534TIP3   OH238092   6.059   6.262   0.006  0.0642 -0.1008  0.1828
 5534TIP3    H138093   6.041   6.236   0.096 -0.1776  0.1244  0.2012
 5534TIP3    H238094   6.059   6.357   0.008 -1.0366 -0.0860 -0.2641
 5535TIP3   OH238095   3.844   1.366   4.222  0.5290 -0.1009 -0.0750
 5535TIP3    H138096   3.763   1.416   4.228 -0.3385 -1.5961  1.1767
 5535TIP3    H238097   3.908   1.427   4.185 -1.1534  1.0981 -1.0585
 5536TIP3   OH238098   2.640   0.327  13.133 -0.9417 -0.0192  0.2557
 5536TIP3    H138099   2.636   0.346  13.040 -1.2232 -0.1851  0.2333
 5536TIP3    H238100   2.565   0.271  13.150  0.2868 -1.7258  0.1745
 5537TIP3   OH238101   5.527   2.532  12.590  0.4557 -0.4860 -0.9592
 5537TIP3    H138102   5.444   2.573  12.616  2.5126  4.1680 -1.1413
 5537TIP3    H238103   5.530   2.542  12.494  1.8663  0.8283 -0.8036
 5538TIP3   OH238104   3.830   2.102   3.949 -0.1239 -0.0126  0.3106
 5538TIP3    H138105   3.766   2.115   4.019  1.0188 -2.1269  1.8208
 5538TIP3    H238106   3.903   2.160   3.972 -0.4729  0.5903 -0.0901
 5539TIP3   OH238107   5.182   0.634  11.109 -0.0510  0.6718  0.4905
 5539TIP3    H138108   5.212   0.652  11.198  0.1893 -2.4549  1.0919
 5539TIP3    H238109   5.260   0.604  11.063 -1.2403 -3.0874  0.8026
 5540TIP3   OH238110   4.967   0.458   5.220  0.4920 -0.2057  0.0821
 5540TIP3    H138111   5.026   0.395   5.180  1.1642  0.6865 -0.3607
 5540TIP3    H238112   4.999   0.468   5.310  0.7436 -0.0636 -0.0223
 5541TIP3   OH238113   3.643   5.984  13.852  0.7133  1.2358 -0.0182
 5541TIP3    H138114   3.591   6.063  13.862  0.6348  1.1816 -0.0036
 5541TIP3    H238115   3.585   5.923  13.807  1.6318  2.0678 -2.4139
 5542TIP3   OH238116   3.349   0.803  13.465  0.7831  0.1174 -0.0671
 5542TIP3    H138117   3.345   0.720  13.512  0.2260 -0.2883 -0.8211
 5542TIP3    H238118   3.443   0.822  13.459  0.8126  1.5911  3.6294
 5543TIP3   OH238119   5.733   3.527   6.448 -0.6005 -0.1097 -0.4611
 5543TIP3    H138120   5.764   3.563   6.531 -2.4829 -1.0943  0.7331
 5543TIP3    H238121   5.677   3.596   6.411 -0.6684 -0.0959 -0.3354
 5544TIP3   OH238122   3.112   1.712   0.710 -0.1238 -0.1847 -0.0824
 5544TIP3    H138123   3.039   1.744   0.763 -0.5231  0.2739 -0.8807
 5544TIP3    H238124   3.183   1.696   0.772 -1.0171 -0.9469  0.7394
 5545TIP3   OH238125   2.725   5.266  14.663 -0.3118 -0.3866 -0.4672
 5545TIP3    H138126   2.696   5.348  14.702 -0.9404 -0.1688 -1.3884
 5545TIP3    H238127   2.754   5.290  14.575  1.2448 -0.8482 -0.1081
 5546TIP3   OH238128   5.356   2.104   5.515  0.5904 -0.3887  0.1622
 5546TIP3    H138129   5.348   2.192   5.550  0.8535 -0.1789 -0.3037
 5546TIP3    H238130   5.435   2.068   5.557  0.0172 -0.6979  0.9811
 5547TIP3   OH238131   1.716   3.720   3.950 -0.6049 -0.4956  0.2297
 5547TIP3    H138132   1.774   3.661   3.902 -0.0417 -0.1419  0.4708
 5547TIP3    H238133   1.647   3.741   3.888 -0.2082 -0.5275 -0.2272
 5548TIP3   OH238134   5.057   3.359   5.133  0.2103  0.4722 -0.4382
 5548TIP3    H138135   4.977   3.329   5.091  1.1028 -1.9520 -0.4575
 5548TIP3    H238136   5.125   3.350   5.067  0.8698  0.5669  0.2126
 5549TIP3   OH238137   2.513   6.083   0.315  0.0254  0.2843  0.1631
 5549TIP3    H138138   2.603   6.057   0.331 -0.5151 -0.6225  1.8653
 5549TIP3    H238139   2.491   6.142   0.387 -0.5988  0.8524 -0.4790
 5550TIP3   OH238140   4.909   0.334   6.219 -0.1035  0.1526 -0.0271
 5550TIP3    H138141   5.005   0.329   6.219 -0.1009  0.0285  1.4643
 5550TIP3    H238142   4.890   0.426   6.235 -0.2411  0.6233 -2.7386
 5551TIP3   OH238143   3.894   1.888   2.747 -0.2092  0.3843 -0.3043
 5551TIP3    H138144   3.974   1.861   2.793  0.4447  0.2364 -1.4812
 5551TIP3    H238145   3.912   1.867   2.655 -2.0547 -0.6864 -0.4370
 5552TIP3   OH238146   4.384   4.450   1.206  0.1815 -0.4241  0.2517
 5552TIP3    H138147   4.416   4.402   1.129 -1.3138  2.5255 -2.3055
 5552TIP3    H238148   4.460   4.454   1.264  1.7868 -1.4412 -1.7040
 5553TIP3   OH238149   1.732   6.641   2.462  0.1021 -0.2634  0.3388
 5553TIP3    H138150   1.709   6.666   2.372  1.2710 -0.4360 -0.0237
 5553TIP3    H238151   1.744   6.725   2.507  0.0797 -0.1738  0.1814
 5554TIP3   OH238152   3.614   2.481  15.590 -0.2642  0.8405  0.2167
 5554TIP3    H138153   3.519   2.484  15.601 -0.3037 -0.5629  0.4434
 5554TIP3    H238154   3.646   2.559  15.635 -1.3486  1.6166 -0.3541
 5555TIP3   OH238155   5.906   3.111  17.133 -0.6540 -0.0468 -0.4697
 5555TIP3    H138156   5.989   3.138  17.094 -1.0863  1.4397 -0.3862
 5555TIP3    H238157   5.843   3.115  17.060 -1.1444  1.2148  0.0194
 5556TIP3   OH238158   2.406   3.558   5.472 -0.2367  0.1113 -0.3807
 5556TIP3    H138159   2.313   3.539   5.479 -1.1439  4.1972  0.2709
 5556TIP3    H238160   2.423   3.561   5.378 -1.4827  2.0757 -0.5821
 5557TIP3   OH238161   0.253   3.463   4.898 -0.0549 -0.7764 -0.3179
 5557TIP3    H138162   0.289   3.542   4.859 -2.5537  1.2458  1.3666
 5557TIP3    H238163   0.172   3.446   4.848 -0.0340 -1.7340 -0.0411
 5558TIP3   OH238164   4.012   1.857  14.994  0.2191  0.3465 -0.4353
 5558TIP3    H138165   4.071   1.880  15.066  1.4845 -1.1663 -0.9523
 5558TIP3    H238166   4.048   1.903  14.918  0.6938 -0.4874 -0.7271
 5559TIP3   OH238167   1.460   1.915   2.559  0.7945 -0.6694 -0.1524
 5559TIP3    H138168   1.380   1.895   2.608  1.6521 -1.4813  0.9522
 5559TIP3    H238169   1.494   1.995   2.599 -2.4248  3.0387 -4.3141
 5560TIP3   OH238170   4.043   3.088   2.825  0.1678 -0.1241  0.0720
 5560TIP3    H138171   4.024   3.151   2.895 -1.0078  0.0776 -0.4221
 5560TIP3    H238172   3.990   3.118   2.752  3.2648  1.1668 -1.7559
 5561TIP3   OH238173   0.096   5.118  16.903 -0.2332 -0.6411  0.0631
 5561TIP3    H138174   0.047   5.190  16.864  0.1414  0.3773  1.4334
 5561TIP3    H238175   0.028   5.057  16.933 -0.5140 -1.7859 -2.7432
 5562TIP3   OH238176   6.324   6.530  12.145  0.7615 -0.1612 -0.0420
 5562TIP3    H138177   6.350   6.444  12.179  1.0121 -0.4179 -0.8738
 5562TIP3    H238178   6.385   6.547  12.073  1.2552  1.1002  0.6487
 5563TIP3   OH238179   5.949   6.698   0.323  0.4305  0.2754  0.3419
 5563TIP3    H138180   5.982   6.728   0.408  1.0720 -2.4023  1.0955
 5563TIP3    H238181   5.958   6.774   0.266  1.5594  1.6273  2.2441
 5564TIP3   OH238182   2.971   0.104   6.177 -0.3271 -1.0383  0.1237
 5564TIP3    H138183   2.908   0.175   6.192  0.6637 -0.4230  1.5011
 5564TIP3    H238184   2.997   0.076   6.265  1.2356 -1.3690 -0.4304
 5565TIP3   OH238185   1.770   3.645   6.051 -0.3463 -0.4909  0.3146
 5565TIP3    H138186   1.703   3.713   6.065  0.7523  0.4041  1.3919
 5565TIP3    H238187   1.852   3.689   6.071  0.4824 -1.8426 -0.1012
 5566TIP3   OH238188   0.598   2.440   2.238 -0.1360  0.0069 -0.1095
 5566TIP3    H138189   0.621   2.348   2.221 -1.1951  0.0806 -1.9892
 5566TIP3    H238190   0.606   2.448   2.333  0.6390 -1.8471  0.0242
 5567TIP3   OH238191   4.085   5.027   3.276  0.5145 -1.1888  0.4722
 5567TIP3    H138192   4.012   5.070   3.322  0.8626 -1.8847  1.6933
 5567TIP3    H238193   4.064   4.934   3.279  1.3425 -1.3718  0.6178
 5568TIP3   OH238194   6.794   2.705  13.954 -0.1054  0.1290 -0.1747
 5568TIP3    H138195   6.816   2.798  13.957 -0.5163  0.2665 -1.2184
 5568TIP3    H238196   6.699   2.703  13.966  0.2056 -0.3409  2.5482
 5569TIP3   OH238197   0.730   5.655  13.268 -0.1272 -0.0322  0.0716
 5569TIP3    H138198   0.791   5.616  13.205 -1.5387  0.7122 -1.8445
 5569TIP3    H238199   0.785   5.713  13.321  1.3041 -1.5942  0.3263
 5570TIP3   OH238200   3.581   3.783  11.018  0.6140 -0.0836  0.8579
 5570TIP3    H138201   3.543   3.861  10.976  0.1912 -1.4019 -1.2956
 5570TIP3    H238202   3.673   3.804  11.029  0.5904  0.5746 -0.1267
 5571TIP3   OH238203   6.725   3.733  13.970  0.0701  0.6896 -0.6624
 5571TIP3    H138204   6.769   3.803  13.921 -0.1933  0.6446 -0.9657
 5571TIP3    H238205   6.731   3.761  14.061 -1.8174  2.1213 -0.9468
 5572TIP3   OH238206   3.138   1.850   3.705  0.1269  0.2589  0.1721
 5572TIP3    H138207   3.206   1.839   3.638 -0.2835 -0.7056 -0.0941
 5572TIP3    H238208   3.164   1.929   3.753  1.9496 -0.6288  0.6781
 5573TIP3   OH238209   3.650   2.836   0.525 -0.4540 -0.3210  0.2385
 5573TIP3    H138210   3.714   2.881   0.581 -0.6885  1.0402 -0.5599
 5573TIP3    H238211   3.593   2.791   0.587  0.9279 -1.0939  0.9845
 5574TIP3   OH238212   3.388   1.737   5.614  0.0236  0.3378 -0.1089
 5574TIP3    H138213   3.464   1.697   5.658 -1.0217 -2.4103 -0.6876
 5574TIP3    H238214   3.415   1.827   5.596  3.2468 -0.6482 -0.4988
 5575TIP3   OH238215   5.676   1.155  15.027  0.1432 -0.5259 -0.5277
 5575TIP3    H138216   5.719   1.155  15.112  0.8787  0.1309 -0.8907
 5575TIP3    H238217   5.645   1.245  15.016  1.1863 -0.2767 -1.5091
 5576TIP3   OH238218   6.366   4.837   1.980 -0.4228  0.1423  1.0979
 5576TIP3    H138219   6.347   4.773   2.049 -0.1931 -0.1246  0.9153
 5576TIP3    H238220   6.442   4.801   1.935 -1.2473 -0.2578 -0.0137
 5577TIP3   OH238221   3.168   3.367   3.698 -0.5905  0.3488 -0.0473
 5577TIP3    H138222   3.106   3.437   3.680 -1.1319  0.0045  0.4429
 5577TIP3    H238223   3.188   3.329   3.613 -1.1330  0.4014 -0.1980
 5578TIP3   OH238224   3.520   3.306   3.968 -0.0669  0.1518 -0.0072
 5578TIP3    H138225   3.472   3.224   3.956 -0.0047  0.1455 -0.2246
 5578TIP3    H238226   3.603   3.291   3.921  0.2037  0.1099  0.4814
 5579TIP3   OH238227   2.500   5.240  12.895 -0.5072 -0.4759  0.3498
 5579TIP3    H138228   2.413   5.269  12.869 -0.2994 -2.1350 -2.3994
 5579TIP3    H238229   2.494   5.145  12.899  1.1061 -0.5989  0.4861
 5580TIP3   OH238230   1.680   1.934  16.964 -0.6734  0.3454 -0.3200
 5580TIP3    H138231   1.701   1.982  16.884  1.0786  0.4476  0.1992
 5580TIP3    H238232   1.725   1.850  16.955 -0.0994  0.5245  0.7452
 5581TIP3   OH238233   3.404   4.382   3.417 -0.1122  0.0752 -0.0723
 5581TIP3    H138234   3.332   4.321   3.406  0.7951 -0.9520 -0.3819
 5581TIP3    H238235   3.453   4.377   3.334  0.8095  0.1002  0.4608
 5582TIP3   OH238236   2.246   1.244   2.056 -0.0924 -0.7883 -0.0378
 5582TIP3    H138237   2.269   1.203   2.139 -3.6054 -1.4051  0.6834
 5582TIP3    H238238   2.260   1.176   1.990 -0.1920 -1.2375  0.4101
 5583TIP3   OH238239   0.305   1.859   2.694  0.1214  0.0809 -0.1239
 5583TIP3    H138240   0.343   1.824   2.614  1.2068 -0.4625  0.6099
 5583TIP3    H238241   0.335   1.799   2.763 -2.8608 -0.9125  0.3666
 5584TIP3   OH238242   5.995   0.542   1.975  0.0175 -0.3014 -0.2095
 5584TIP3    H138243   5.993   0.504   2.063  0.7695  1.9717  0.8296
 5584TIP3    H238244   5.916   0.596   1.970  0.9453  1.0588 -0.2419
 5585TIP3   OH238245   5.443   2.678   1.242  0.4023 -0.3184 -0.5102
 5585TIP3    H138246   5.531   2.644   1.227  1.4243  2.6200 -1.4746
 5585TIP3    H238247   5.456   2.755   1.297 -1.4243  0.8760 -1.6965
 5586TIP3   OH238248   1.901   0.567  15.259 -0.0398 -0.2518  0.2972
 5586TIP3    H138249   1.882   0.604  15.173 -0.6438 -0.2255  0.4415
 5586TIP3    H238250   1.909   0.643  15.317  1.2592 -0.2279  0.0854
 5587TIP3   OH238251   0.420   5.890   2.466  0.0570  0.2091  0.0987
 5587TIP3    H138252   0.407   5.884   2.371  0.2287  1.2147  0.0049
 5587TIP3    H238253   0.340   5.931   2.499  0.6860  1.3983  0.1786
 5588TIP3   OH238254   4.373   5.182   6.027 -0.3752 -0.4128 -0.0286
 5588TIP3    H138255   4.296   5.164   6.080  0.2616 -2.3472  0.2931
 5588TIP3    H238256   4.339   5.199   5.939 -1.2454 -0.0955  0.3695
 5589TIP3   OH238257   2.245   0.542   0.302 -0.3517 -0.5101 -0.3177
 5589TIP3    H138258   2.327   0.502   0.330 -0.8876 -1.3144  0.1481
 5589TIP3    H238259   2.244   0.628   0.344 -0.1350 -0.8385  0.3725
 5590TIP3   OH238260   3.067   5.679   5.652 -0.0046 -0.4436  0.4509
 5590TIP3    H138261   3.130   5.751   5.647  0.9519 -1.3033 -0.2894
 5590TIP3    H238262   2.982   5.721   5.658  0.4957  0.7439 -0.6185
 5591TIP3   OH238263   5.929   4.588   3.465  0.2636 -0.1076  0.0260
 5591TIP3    H138264   5.940   4.683   3.469  0.0998  0.0567 -2.7596
 5591TIP3    H238265   6.016   4.553   3.485  0.8084  0.6821 -0.9272
 5592TIP3   OH238266   6.456   5.245  12.120 -0.7450 -0.4508 -0.1812
 5592TIP3    H138267   6.373   5.236  12.167 -0.1362  0.6125  1.1376
 5592TIP3    H238268   6.516   5.187  12.166  0.1961  1.5685  1.2223
 5593TIP3   OH238269   3.234   5.669  15.048 -0.1111  0.4702  0.3036
 5593TIP3    H138270   3.207   5.687  14.958 -0.4975  0.2587  0.3738
 5593TIP3    H238271   3.323   5.635  15.039 -0.1281  0.4976  0.0019
 5594TIP3   OH238272   1.488   1.180  12.367 -0.2279  0.0021  1.2080
 5594TIP3    H138273   1.488   1.269  12.332 -1.3111 -0.2403  0.5575
 5594TIP3    H238274   1.578   1.165  12.395 -0.1537  1.4964  1.8313
 5595TIP3   OH238275   4.924   0.603  12.590 -0.0582  0.4643  0.0564
 5595TIP3    H138276   4.858   0.557  12.537 -2.0952  2.7525  0.5135
 5595TIP3    H238277   5.005   0.592  12.540 -1.2045 -0.5069 -1.6916
 5596TIP3   OH238278   3.393   3.181  13.087 -0.0940 -0.1356 -0.0517
 5596TIP3    H138279   3.362   3.271  13.085 -2.4611 -0.9189 -0.1762
 5596TIP3    H238280   3.476   3.185  13.135  0.1823  2.1864 -0.6620
 5597TIP3   OH238281   0.475   5.374   3.714  0.7270 -0.4381 -0.0714
 5597TIP3    H138282   0.526   5.293   3.706  1.1583  0.0181 -2.1348
 5597TIP3    H238283   0.491   5.404   3.804  0.1776 -2.8832  0.9059
 5598TIP3   OH238284   6.635   2.851   1.041  0.1260 -0.5469  0.3099
 5598TIP3    H138285   6.687   2.888   1.111  1.9084 -1.7259 -0.3664
 5598TIP3    H238286   6.573   2.921   1.018  0.9621  0.6336  1.5548
 5599TIP3   OH238287   3.296   6.686  11.993 -0.2689 -0.0508  0.6669
 5599TIP3    H138288   3.242   6.688  11.914 -0.8518  0.5837  1.0725
 5599TIP3    H238289   3.332   6.597  11.995  1.5830  0.6128 -1.5021
 5600TIP3   OH238290   4.511   0.578   2.625 -0.0886 -0.2037 -0.1625
 5600TIP3    H138291   4.567   0.638   2.576  0.7603 -1.0903 -0.2882
 5600TIP3    H238292   4.565   0.550   2.699 -1.2535  0.8996  1.1490
 5601TIP3   OH238293   2.288   4.459  11.522 -0.1281 -0.3489 -0.5326
 5601TIP3    H138294   2.367   4.407  11.510  1.5005  2.2172 -1.3710
 5601TIP3    H238295   2.254   4.431  11.607  1.4525 -1.7953 -0.3549
 5602TIP3   OH238296   4.224   3.688  16.356 -0.0942  0.2647 -0.1243
 5602TIP3    H138297   4.139   3.647  16.343 -0.8837  1.3557  1.4962
 5602TIP3    H238298   4.250   3.717  16.268 -1.3307 -0.1778 -0.6458
 5603TIP3   OH238299   4.157   1.872   2.857 -0.1712  0.4730 -0.0729
 5603TIP3    H138300   4.248   1.849   2.875 -0.6281 -2.1119 -0.9172
 5603TIP3    H238301   4.163   1.937   2.788  0.9934 -1.2679 -1.6686
 5604TIP3   OH238302   0.578   0.969   0.020 -0.1784 -0.5792  0.3286
 5604TIP3    H138303   0.558   0.946   0.111 -0.1685  1.5021  0.8907
 5604TIP3    H238304   0.570   0.887  -0.028  0.4315 -1.8411  2.3146
 5605TIP3   OH238305   5.218   3.897   1.381 -0.4269  0.1636  0.1766
 5605TIP3    H138306   5.157   3.843   1.430 -2.8342  2.4838 -0.1314
 5605TIP3    H238307   5.203   3.873   1.289  0.3569 -0.4848  0.2171
 5606TIP3   OH238308   0.479   4.369  13.284  0.4426  0.4054  0.0487
 5606TIP3    H138309   0.452   4.338  13.197 -0.4686 -0.7045  0.7030
 5606TIP3    H238310   0.496   4.462  13.273  0.1392  0.3095 -1.2771
 5607TIP3   OH238311   2.542   1.568  14.113 -0.7173  0.0345  0.0279
 5607TIP3    H138312   2.472   1.503  14.125 -0.5145 -0.0907  0.5596
 5607TIP3    H238313   2.510   1.625  14.043 -1.6984  0.4464  0.8071
 5608TIP3   OH238314   0.281   1.057  10.840  0.3075  0.1914 -0.1595
 5608TIP3    H138315   0.300   0.991  10.774 -0.2827 -1.4726  1.2918
 5608TIP3    H238316   0.312   1.139  10.802 -0.2458 -0.6889 -2.5867
 5609TIP3   OH238317   2.099   4.876   3.380  0.6157  0.6551  0.2172
 5609TIP3    H138318   2.033   4.925   3.430  0.2210  0.2431  0.1034
 5609TIP3    H238319   2.103   4.791   3.424  0.3911  0.3540 -0.3506
 5610TIP3   OH238320   0.838   5.082  14.338 -0.1757 -0.2796  0.0475
 5610TIP3    H138321   0.889   5.161  14.324 -0.0752 -0.3754 -0.1315
 5610TIP3    H238322   0.777   5.105  14.408  1.9347 -0.9929  2.2087
 5611TIP3   OH238323   4.602   6.624  15.756  0.7820 -0.2423  0.3137
 5611TIP3    H138324   4.650   6.563  15.813  0.7229 -1.4626 -0.9320
 5611TIP3    H238325   4.533   6.659  15.813  0.5673 -1.6313  0.9484
 5612TIP3   OH238326   6.080   0.067   2.158 -0.2249  0.4336 -0.7740
 5612TIP3    H138327   6.132   0.147   2.157 -0.6760  0.7301 -0.8215
 5612TIP3    H238328   6.133   0.003   2.109  0.1161  0.7131 -0.7729
 5613TIP3   OH238329   5.509   6.399   6.730 -0.0540  0.7772 -0.4357
 5613TIP3    H138330   5.525   6.433   6.642 -0.6677 -0.0806 -0.8885
 5613TIP3    H238331   5.419   6.426   6.750 -0.4782 -0.3652 -0.7192
 5614TIP3   OH238332   4.406   5.976  14.509  0.4041 -0.3344  0.4866
 5614TIP3    H138333   4.408   5.906  14.575  3.0523 -1.3656 -0.6288
 5614TIP3    H238334   4.472   6.038  14.539 -0.2162  0.4987  0.1469
 5615TIP3   OH238335   1.957   1.086  16.011  0.1945  0.5588  0.6141
 5615TIP3    H138336   1.974   1.073  16.104 -0.8606  0.3630  0.7905
 5615TIP3    H238337   1.884   1.148  16.008 -0.2657 -0.0009 -0.0592
 5616TIP3   OH238338   4.518   2.800   1.017 -1.0878  0.3314 -0.2007
 5616TIP3    H138339   4.503   2.748   0.937 -1.5520  0.6950 -0.3563
 5616TIP3    H238340   4.430   2.825   1.045 -0.9103  0.3558  0.3279
 5617TIP3   OH238341   0.658   4.875   4.477  0.4818 -0.0992 -0.0525
 5617TIP3    H138342   0.654   4.879   4.573 -0.0940  1.4739 -0.1225
 5617TIP3    H238343   0.721   4.806   4.458 -0.5314 -1.4685  1.4610
 5618TIP3   OH238344   0.131   4.197  10.669  0.9239 -0.0352 -0.0696
 5618TIP3    H138345   0.046   4.162  10.640  1.1610 -0.4293 -0.2964
 5618TIP3    H238346   0.147   4.271  10.611  1.2097 -0.5821 -0.6987
 5619TIP3   OH238347   6.766   1.024   3.758  1.2269  0.1590 -0.4620
 5619TIP3    H138348   6.681   1.035   3.801  0.8997  0.8192 -1.2799
 5619TIP3    H238349   6.745   1.013   3.666  2.0501  0.5720 -0.7006
 5620TIP3   OH238350   6.629   4.371   2.270 -0.5140 -0.1230 -0.1170
 5620TIP3    H138351   6.682   4.380   2.191 -0.2566 -1.1618 -0.0764
 5620TIP3    H238352   6.662   4.291   2.312 -0.3335  0.6539  1.2760
 5621TIP3   OH238353   2.242   1.474  15.341  0.0969  0.0916  0.4923
 5621TIP3    H138354   2.283   1.410  15.282 -0.3719 -0.3240  0.6190
 5621TIP3    H238355   2.245   1.433  15.427 -0.2280  0.2289  0.5693
 5622TIP3   OH238356   2.293   3.975  14.852  0.0331  0.3242  0.7659
 5622TIP3    H138357   2.305   4.033  14.777 -0.2092  0.8395  1.1163
 5622TIP3    H238358   2.216   3.923  14.830  0.7574 -0.4641  0.0791
 5623TIP3   OH238359   3.768   5.278   1.549 -0.6305 -0.0691  0.6436
 5623TIP3    H138360   3.806   5.231   1.475  0.3214  0.0886  1.0244
 5623TIP3    H238361   3.762   5.369   1.519 -1.4304 -0.2306  0.3076
 5624TIP3   OH238362   1.220   6.677   0.368  0.2925 -0.3658 -0.3017
 5624TIP3    H138363   1.307   6.641   0.383  1.2068  1.6925 -0.4464
 5624TIP3    H238364   1.198   6.652   0.278  1.7026  1.0087 -1.0400
 5625TIP3   OH238365   6.134   5.690  14.739 -0.0344  0.5143 -0.5032
 5625TIP3    H138366   6.095   5.777  14.744  2.8759  1.8323  0.6163
 5625TIP3    H238367   6.180   5.689  14.655 -0.1297  0.0173 -0.5529
 5626TIP3   OH238368   0.761   4.654  14.937 -0.1046  0.2920 -0.3012
 5626TIP3    H138369   0.699   4.724  14.958 -0.7508  0.5961 -3.0903
 5626TIP3    H238370   0.838   4.699  14.905 -0.0077 -0.2259 -0.8064
 5627TIP3   OH238371   5.304   5.764   1.675  0.2642  0.1055  0.1768
 5627TIP3    H138372   5.308   5.746   1.581 -0.7150  1.2649 -0.1021
 5627TIP3    H238373   5.229   5.823   1.685  2.2540  2.5516  1.2608
 5628TIP3   OH238374   6.042   5.831  12.203  0.1100 -0.3172 -0.1732
 5628TIP3    H138375   6.119   5.782  12.172  0.2783 -0.7174  0.8664
 5628TIP3    H238376   6.068   5.923  12.197  0.3202 -0.4138 -0.7497
 5629TIP3   OH238377   4.418   0.945  12.253 -0.3388 -0.2260  0.1468
 5629TIP3    H138378   4.395   0.943  12.160  0.8369 -0.0506 -0.1552
 5629TIP3    H238379   4.456   1.031  12.267 -0.1588 -0.3945  0.7116
 5630TIP3   OH238380   1.142   6.667   3.798  0.2750 -0.2189 -0.4275
 5630TIP3    H138381   1.155   6.592   3.740 -1.0371 -1.9059  1.4390
 5630TIP3    H238382   1.218   6.665   3.857  1.1552  0.9884 -1.4799
 5631TIP3   OH238383   0.377   2.994   2.856 -0.2087 -0.3770 -0.7508
 5631TIP3    H138384   0.320   3.062   2.893  0.3355 -0.4445  0.2345
 5631TIP3    H238385   0.325   2.953   2.788 -0.9696  0.2480 -0.5525
 5632TIP3   OH238386   3.106   5.181   4.139  0.1747 -0.2329  0.0108
 5632TIP3    H138387   3.145   5.142   4.217  0.9538 -0.1498 -0.3358
 5632TIP3    H238388   3.164   5.254   4.116  1.2799 -1.7114 -2.0406
 5633TIP3   OH238389   4.652   2.944  13.359 -0.2849  0.3041  0.1531
 5633TIP3    H138390   4.620   2.944  13.450 -0.2223  0.0550  0.1758
 5633TIP3    H238391   4.643   3.034  13.331  1.9608  0.8973  1.2015
 5634TIP3   OH238392   6.231   1.443   1.297  0.2055 -0.0430 -0.1872
 5634TIP3    H138393   6.248   1.406   1.383  1.6479  0.9148 -0.0446
 5634TIP3    H238394   6.151   1.495   1.309  0.5516  0.2991  0.6350
 5635TIP3   OH238395   3.638   2.558   2.598 -0.3831  0.3324  0.0459
 5635TIP3    H138396   3.642   2.632   2.538 -0.8351 -0.7050 -1.3043
 5635TIP3    H238397   3.676   2.485   2.548  1.0516 -0.1077  1.7246
 5636TIP3   OH238398   4.276   0.216   3.890 -0.2634 -0.1515 -0.2292
 5636TIP3    H138399   4.357   0.186   3.931  0.2618  0.6924 -0.6459
 5636TIP3    H238400   4.211   0.150   3.914  0.7621 -1.3316 -0.6648
 5637TIP3   OH238401   3.264   0.779   3.228  0.0198 -0.1320 -0.3090
 5637TIP3    H138402   3.347   0.734   3.245 -0.1449 -0.5402 -0.5512
 5637TIP3    H238403   3.204   0.708   3.203  0.3216  0.4316 -2.7834
 5638TIP3   OH238404   1.330   0.465   6.549 -0.5245 -0.3512 -0.8307
 5638TIP3    H138405   1.255   0.519   6.524 -1.1691 -1.2504 -0.8574
 5638TIP3    H238406   1.308   0.432   6.637  0.0471 -0.2414 -0.6406
 5639TIP3   OH238407   5.168   0.086  16.691  0.1116  0.5391 -0.0857
 5639TIP3    H138408   5.188   0.068  16.783 -0.5373 -1.2262 -0.2618
 5639TIP3    H238409   5.183   0.003  16.647  0.1568  1.3046 -1.5370
 5640TIP3   OH238410   4.976   5.509  15.598  0.2525  0.0463 -0.1922
 5640TIP3    H138411   5.064   5.521  15.633  0.7342 -1.2302 -0.9262
 5640TIP3    H238412   4.989   5.488  15.505 -0.7987 -0.4242 -0.2459
 5641TIP3   OH238413   2.112   4.311  12.473 -0.2558  0.3525  0.2441
 5641TIP3    H138414   2.053   4.237  12.483 -0.6275  0.4978 -0.7400
 5641TIP3    H238415   2.200   4.274  12.484 -0.4862 -0.0569  0.6869
 5642TIP3   OH238416   4.539   4.661   0.172 -0.2302 -0.2301 -0.3079
 5642TIP3    H138417   4.565   4.570   0.160  0.2265 -0.1413  0.0081
 5642TIP3    H238418   4.620   4.711   0.167 -0.4240  0.1167 -0.0464
 5643TIP3   OH238419   6.081   0.907  11.253 -0.5311  0.3304 -0.0757
 5643TIP3    H138420   6.102   0.968  11.183  0.6002  1.3394  1.1088
 5643TIP3    H238421   6.104   0.954  11.334  0.7390 -1.7794  0.8538
 5644TIP3   OH238422   1.129   0.622   6.505 -0.1417  0.2784 -0.2943
 5644TIP3    H138423   1.151   0.713   6.485  0.6233  0.3722  0.9134
 5644TIP3    H238424   1.046   0.627   6.552  0.1069  0.3920  0.1365
 5645TIP3   OH238425   6.529   0.400  15.269  0.2513 -0.0605  0.4683
 5645TIP3    H138426   6.596   0.369  15.330 -0.6774  0.0734  1.5683
 5645TIP3    H238427   6.570   0.392  15.183  1.9841  0.7349  1.1726
 5646TIP3   OH238428   6.656   2.641  10.409  0.2446 -0.1013  0.1513
 5646TIP3    H138429   6.564   2.663  10.398  0.6477  0.7896 -1.5995
 5646TIP3    H238430   6.680   2.678  10.494 -0.6640  0.8655 -0.0067
 5647TIP3   OH238431   2.603   0.733  10.739 -0.2222  0.0152 -0.0180
 5647TIP3    H138432   2.545   0.797  10.781  1.5469  1.5268  0.2255
 5647TIP3    H238433   2.577   0.649  10.776 -0.7738  0.9475  1.7687
 5648TIP3   OH238434   5.648   3.884   1.611 -0.1580  0.2390  0.3651
 5648TIP3    H138435   5.692   3.940   1.675 -2.7804  2.2708  0.4781
 5648TIP3    H238436   5.594   3.826   1.665  0.4522 -0.5575  0.1256
 5649TIP3   OH238437   2.112   2.630  11.975  0.1395 -0.1910  0.0708
 5649TIP3    H138438   2.202   2.597  11.975  1.3091  2.7760 -0.9634
 5649TIP3    H238439   2.114   2.703  12.037 -1.5747 -0.1069  0.0419
 5650TIP3   OH238440   0.475   4.984   3.098 -0.0210  0.3281  0.3392
 5650TIP3    H138441   0.480   5.022   3.185 -2.3587 -0.5180  0.8759
 5650TIP3    H238442   0.477   5.059   3.039  1.2800  0.9184  1.1223
 5651TIP3   OH238443   0.222   6.491   4.840 -0.1294  0.2223  0.4854
 5651TIP3    H138444   0.205   6.415   4.785  0.8011  0.4770 -0.1610
 5651TIP3    H238445   0.310   6.477   4.875  0.3242  1.3290 -0.1874
 5652TIP3   OH238446   0.506   2.118   2.594 -0.4619 -0.6463 -0.3215
 5652TIP3    H138447   0.491   2.121   2.689 -0.3182 -0.5942 -0.2998
 5652TIP3    H238448   0.418   2.121   2.556 -0.4899  0.2254 -0.2124
 5653TIP3   OH238449   3.536   4.910  16.822 -0.2874 -0.3276  0.0532
 5653TIP3    H138450   3.448   4.944  16.810  0.0464  0.4796 -0.1061
 5653TIP3    H238451   3.542   4.889  16.915 -0.7411 -0.6560  0.0093
 5654TIP3   OH238452   5.879   6.094   5.471 -0.0929  0.3045 -0.1316
 5654TIP3    H138453   5.946   6.026   5.469  0.2929  0.6505  1.1591
 5654TIP3    H238454   5.916   6.164   5.524 -0.7331  1.2834 -0.9425
 5655TIP3   OH238455   2.404   3.852   0.921 -0.2037 -0.3552 -0.2995
 5655TIP3    H138456   2.480   3.808   0.884 -0.8070 -2.0460  0.4173
 5655TIP3    H238457   2.394   3.931   0.868  1.8579 -0.2513 -0.5970
 5656TIP3   OH238458   5.875   6.583  13.032  0.1830 -1.0034  0.2224
 5656TIP3    H138459   5.964   6.601  13.061  0.2203  2.2194 -1.6296
 5656TIP3    H238460   5.819   6.629  13.095  0.0817  1.4258 -1.5554
 5657TIP3   OH238461   0.135   2.685   6.110 -0.1057  0.7032  0.5904
 5657TIP3    H138462   0.173   2.604   6.076 -2.7494  0.5055 -2.0948
 5657TIP3    H238463   0.071   2.656   6.175 -0.5728  0.6534  0.1129
 5658TIP3   OH238464   4.190   3.526   4.936  0.4184 -0.4079  0.4399
 5658TIP3    H138465   4.129   3.452   4.928 -0.4898 -0.0659  3.5864
 5658TIP3    H238466   4.145   3.588   4.994  2.1354  1.6120 -0.3384
 5659TIP3   OH238467   6.609   0.260  10.990  0.5075 -0.2672  0.4481
 5659TIP3    H138468   6.644   0.233  10.906  0.6001 -1.5100  0.8714
 5659TIP3    H238469   6.588   0.178  11.035  1.3962  0.3470  2.0368
 5660TIP3   OH238470   0.215   2.030  15.263  0.5807 -0.3088  0.0814
 5660TIP3    H138471   0.303   2.035  15.226 -0.0515  1.4878 -1.2176
 5660TIP3    H238472   0.168   2.105  15.226 -1.4462 -1.1215  0.9070
 5661TIP3   OH238473   5.414   1.262   2.662 -0.3466 -0.1888 -0.4872
 5661TIP3    H138474   5.328   1.227   2.638  0.1165 -2.1944  0.7013
 5661TIP3    H238475   5.396   1.324   2.732 -1.0191  0.9054 -1.6049
 5662TIP3   OH238476   0.223   4.975  15.325 -0.5934 -0.1867 -0.0348
 5662TIP3    H138477   0.136   5.001  15.355  0.0895  1.8319  0.2895
 5662TIP3    H238478   0.209   4.895  15.275 -2.7595  0.6123 -0.7532
 5663TIP3   OH238479   1.956   2.423   0.872 -0.4943 -0.0067  0.6006
 5663TIP3    H138480   1.999   2.506   0.855  1.6257 -1.0585  0.6195
 5663TIP3    H238481   1.915   2.399   0.789 -2.3732  1.7170  0.9827
 5664TIP3   OH238482   6.657   6.511   0.295 -0.7104 -0.3384  0.0727
 5664TIP3    H138483   6.727   6.452   0.324  1.7715  0.9771 -2.9903
 5664TIP3    H238484   6.610   6.460   0.228  0.9007  0.8065 -1.9578
 5665TIP3   OH238485   1.573   4.739   0.894  0.1123 -0.6377  0.2735
 5665TIP3    H138486   1.503   4.731   0.959 -1.3883 -0.1381 -1.2188
 5665TIP3    H238487   1.636   4.798   0.934 -1.1335  0.2255  1.0101
 5666TIP3   OH238488   1.242   1.358  14.239 -0.7165 -0.0941  0.1875
 5666TIP3    H138489   1.177   1.426  14.220 -1.4629 -0.7989  0.1688
 5666TIP3    H238490   1.319   1.384  14.188 -0.4188  1.6178  1.4595
 5667TIP3   OH238491   2.525   2.886  11.761  0.3758 -0.3059 -0.0629
 5667TIP3    H138492   2.540   2.871  11.668 -2.4534  0.2052 -0.6311
 5667TIP3    H238493   2.507   2.980  11.768  2.1225 -0.0472  1.2296
 5668TIP3   OH238494   2.565   0.598   0.723 -0.0731 -0.4698 -0.5258
 5668TIP3    H138495   2.570   0.606   0.818 -1.1482  0.0266 -0.5047
 5668TIP3    H238496   2.599   0.681   0.690 -0.0840 -0.4833 -0.5720
 5669TIP3   OH238497   3.588   4.478   0.556 -0.7315 -0.0996  0.3319
 5669TIP3    H138498   3.671   4.517   0.530 -1.2859 -0.3694 -1.9365
 5669TIP3    H238499   3.603   4.384   0.551 -0.4551 -0.1870  2.3457
 5670TIP3   OH238500   2.443   5.613   1.574 -0.3805  0.1869 -0.5587
 5670TIP3    H138501   2.526   5.579   1.542 -0.1635  0.0347  0.1598
 5670TIP3    H238502   2.448   5.604   1.669 -0.5964  1.6055 -0.4083
 5671TIP3   OH238503   6.284   2.752  12.108  0.2023  0.2864 -0.7835
 5671TIP3    H138504   6.330   2.821  12.156 -0.0256 -0.7396  0.9365
 5671TIP3    H238505   6.192   2.776  12.114  0.2997  1.0200 -2.1080
 5672TIP3   OH238506   3.556   4.387   4.389  0.5537 -0.1161  0.1328
 5672TIP3    H138507   3.537   4.403   4.297 -0.6503  4.2891  1.0199
 5672TIP3    H238508   3.482   4.336   4.421 -0.6600  1.1083 -0.6663
 5673TIP3   OH238509   4.984   5.698  16.161 -0.3243 -0.2903  0.0631
 5673TIP3    H138510   4.907   5.676  16.109  0.2566  0.4922 -1.1513
 5673TIP3    H238511   4.983   5.794  16.166  0.1116 -0.3161  0.7388
 5674TIP3   OH238512   0.184   3.557   3.244 -0.5618  0.0074  0.4725
 5674TIP3    H138513   0.261   3.592   3.199  1.0474 -0.6220  2.6302
 5674TIP3    H238514   0.158   3.627   3.304  1.0107 -1.3823  2.8534
 5675TIP3   OH238515   6.375   1.158   0.427 -0.3426 -0.4147 -0.0531
 5675TIP3    H138516   6.331   1.218   0.367  1.1598 -1.3904 -2.1944
 5675TIP3    H238517   6.384   1.077   0.377  1.6557 -0.9932  1.1911
 5676TIP3   OH238518   3.159   1.126   6.774 -0.1616 -0.0777 -0.2112
 5676TIP3    H138519   3.132   1.187   6.706  1.8042 -0.4557 -1.3737
 5676TIP3    H238520   3.212   1.061   6.728 -1.2995 -2.0437  1.1833
 5677TIP3   OH238521   4.769   4.031   1.846  0.8349 -0.8067 -0.0651
 5677TIP3    H138522   4.836   4.088   1.882 -0.4247  1.1122 -0.6150
 5677TIP3    H238523   4.716   4.005   1.921 -0.2643  1.0971 -0.1398
 5678TIP3   OH238524   1.068   1.426  13.556 -0.5217  0.4644  0.4048
 5678TIP3    H138525   1.064   1.503  13.499  0.5308  0.1879 -0.0557
 5678TIP3    H238526   1.015   1.449  13.632  0.1724  1.8224  0.4823
 5679TIP3   OH238527   1.345   0.403   3.457 -0.2688 -0.5854  0.1531
 5679TIP3    H138528   1.407   0.461   3.501 -0.9273 -0.2723  0.6769
 5679TIP3    H238529   1.279   0.383   3.523  0.0695 -2.1350  0.0570
 5680TIP3   OH238530   2.696   1.710   2.683 -0.3319 -0.0555  0.0977
 5680TIP3    H138531   2.612   1.697   2.727  0.0881 -1.2933  0.5460
 5680TIP3    H238532   2.761   1.702   2.753  0.1775  0.6020 -0.2985
 5681TIP3   OH238533   6.466   5.012   4.578 -0.4752  0.0444 -0.1839
 5681TIP3    H138534   6.437   5.008   4.669 -1.6291 -1.0107 -0.5768
 5681TIP3    H238535   6.548   4.962   4.577  0.2816  1.2551  0.5360
 5682TIP3   OH238536   5.825   0.024   3.697  0.0471 -0.1525 -0.1243
 5682TIP3    H138537   5.755   0.083   3.727 -1.2528 -1.2133 -0.9875
 5682TIP3    H238538   5.805  -0.059   3.740  0.3023 -0.6824 -1.0164
 5683TIP3   OH238539   2.473   0.911   3.196 -0.6650  0.3340 -0.0724
 5683TIP3    H138540   2.525   0.891   3.118 -0.6602 -0.1381  0.0486
 5683TIP3    H238541   2.401   0.966   3.165 -1.1837 -0.6206 -0.5624
 5684TIP3   OH238542   2.682   5.475  11.890  0.7200 -0.2183  0.0492
 5684TIP3    H138543   2.665   5.448  11.800  2.4870 -0.6321 -0.1805
 5684TIP3    H238544   2.761   5.426  11.915  0.0802 -0.3214  1.9110
 5685TIP3   OH238545   0.136   6.696   1.031 -0.0047 -0.3281 -0.7195
 5685TIP3    H138546   0.120   6.648   0.950  0.5689 -0.2040 -0.9099
 5685TIP3    H238547   0.214   6.748   1.013 -1.6052  1.9909 -1.0933
 5686TIP3   OH238548   6.228   5.295  14.096 -0.5768 -0.3685 -0.5251
 5686TIP3    H138549   6.272   5.223  14.051  1.4163 -0.1053  0.9033
 5686TIP3    H238550   6.253   5.284  14.188 -1.5819  1.2069 -0.0442
 5687TIP3   OH238551   6.699   3.388   1.632 -0.2466  0.2731  0.3417
 5687TIP3    H138552   6.794   3.389   1.627 -0.3017  0.9297 -0.6012
 5687TIP3    H238553   6.679   3.436   1.713  0.1157  2.9132 -1.0913
 5688TIP3   OH238554   6.080   4.183   6.330  0.8671  0.0195 -0.1008
 5688TIP3    H138555   6.100   4.121   6.261  1.5309 -0.3327  0.3973
 5688TIP3    H238556   6.151   4.172   6.394 -1.0386 -1.4324  1.8326
 5689TIP3   OH238557   6.248   6.714   4.932 -0.0353 -0.0127 -0.6267
 5689TIP3    H138558   6.259   6.675   5.019 -1.3756  0.0920 -0.4088
 5689TIP3    H238559   6.277   6.646   4.871  1.5670  0.1592 -0.0772
 5690TIP3   OH238560   5.036   1.323   2.853  0.6000 -0.2658 -0.3415
 5690TIP3    H138561   5.026   1.410   2.816 -0.1805 -1.1542 -2.2914
 5690TIP3    H238562   4.950   1.302   2.889  1.5861  0.9452  2.8448
 5691TIP3   OH238563   2.485   2.780  16.042 -0.0932 -0.2619  0.2904
 5691TIP3    H138564   2.545   2.742  15.977  0.6954  0.2023  0.7448
 5691TIP3    H238565   2.431   2.707  16.070 -0.2881 -0.5205 -0.7237
 5692TIP3   OH238566   6.170   5.001  12.003 -0.1961  0.5687  0.6966
 5692TIP3    H138567   6.083   4.974  11.976 -0.3309  1.1220  0.5811
 5692TIP3    H238568   6.159   5.088  12.041 -0.1340 -0.4768  3.2475
 5693TIP3   OH238569   6.201   3.911   5.183 -0.0696  0.0570 -0.2491
 5693TIP3    H138570   6.199   3.816   5.167 -1.0431  0.0576 -0.1506
 5693TIP3    H238571   6.291   3.936   5.164  0.7827 -1.2476  1.8972
 5694TIP3   OH238572   3.940   0.526   0.438  0.1640 -0.3579 -0.1054
 5694TIP3    H138573   3.990   0.549   0.517 -1.0178  2.8964 -0.2412
 5694TIP3    H238574   3.862   0.581   0.442  0.4534  0.4811 -3.9341
 5695TIP3   OH238575   4.236   5.063  13.695 -0.3372 -0.5445 -0.1544
 5695TIP3    H138576   4.247   5.146  13.647 -3.0040 -0.0506  0.0149
 5695TIP3    H238577   4.277   4.998  13.638 -1.2827  0.3892 -1.9484
 5696TIP3   OH238578   3.692   0.016  15.526 -0.1592 -0.5827  0.2040
 5696TIP3    H138579   3.753   0.077  15.484 -2.5181  1.1744 -0.7298
 5696TIP3    H238580   3.734  -0.005  15.610  2.2562 -0.3006 -0.8773
 5697TIP3   OH238581   2.308   5.331   3.268  0.0146  0.5464 -0.1959
 5697TIP3    H138582   2.293   5.245   3.229  0.8931  0.7789 -1.0620
 5697TIP3    H238583   2.270   5.324   3.356  0.5557 -0.8925 -0.0641
 5698TIP3   OH238584   1.050   5.013  15.277  0.0088  0.0232 -0.4245
 5698TIP3    H138585   0.997   4.965  15.213  0.9271 -0.4804 -0.8021
 5698TIP3    H238586   1.045   4.960  15.356  0.5102 -0.3750 -0.6593
 5699TIP3   OH238587   2.855   2.582  11.381  0.3185  0.2007 -0.2193
 5699TIP3    H138588   2.768   2.549  11.406 -0.9305  2.8907 -0.9077
 5699TIP3    H238589   2.903   2.589  11.463  0.7911 -3.6571 -0.0689
 5700TIP3   OH238590   4.306   4.448  15.186  0.5270  0.2451  0.4232
 5700TIP3    H138591   4.251   4.522  15.159 -0.0997 -0.4753 -0.3186
 5700TIP3    H238592   4.260   4.371  15.152  2.0991 -0.3591 -0.3779
 5701TIP3   OH238593   2.908   6.254   3.127  0.3178 -0.4333  0.4880
 5701TIP3    H138594   2.910   6.238   3.221 -0.4846 -0.0512  0.5792
 5701TIP3    H238595   2.959   6.335   3.115 -0.5189  0.1440  0.7420
 5702TIP3   OH238596   0.837   5.255  11.093  0.1172  0.3863 -0.0335
 5702TIP3    H138597   0.896   5.319  11.133 -1.1743  0.1667  2.2861
 5702TIP3    H238598   0.808   5.296  11.012  1.6778  1.4428 -0.0795
 5703TIP3   OH238599   4.594   3.296  16.045  0.4215 -0.5164  0.0120
 5703TIP3    H138600   4.623   3.271  16.133  0.5850 -1.5679 -0.3411
 5703TIP3    H238601   4.535   3.370  16.060  1.3557  0.0501  0.9163
 5704TIP3   OH238602   0.729   0.220  12.397 -0.3565 -0.2776 -0.1418
 5704TIP3    H138603   0.781   0.201  12.475  1.4228 -1.5256 -1.5859
 5704TIP3    H238604   0.709   0.313  12.404  0.5923 -0.1621  1.3174
 5705TIP3   OH238605   0.740   2.287   4.936  0.0041 -0.5004  0.3943
 5705TIP3    H138606   0.815   2.308   4.880  1.0767 -2.3541  1.0935
 5705TIP3    H238607   0.761   2.328   5.020 -0.7990  0.8102 -0.0255
 5706TIP3   OH238608   3.456   2.293  11.755 -0.3374 -0.0339  0.2165
 5706TIP3    H138609   3.534   2.297  11.701 -0.7572 -1.7358 -0.5467
 5706TIP3    H238610   3.472   2.355  11.826  2.0589 -0.9947  0.5521
 5707TIP3   OH238611   1.195   3.661  11.032  0.0140 -0.2019  0.5834
 5707TIP3    H138612   1.222   3.752  11.018 -1.4081  0.0147 -0.7801
 5707TIP3    H238613   1.145   3.663  11.114  0.4649  0.1297  0.8528
 5708TIP3   OH238614   3.994   5.577  14.117 -0.2931 -0.0508 -0.2360
 5708TIP3    H138615   3.961   5.664  14.095  0.1820  0.0637 -0.4881
 5708TIP3    H238616   3.953   5.519  14.052 -0.9288 -0.0739  0.1822
 5709TIP3   OH238617   2.353   5.908  11.074 -0.3578  0.5200 -0.2544
 5709TIP3    H138618   2.398   5.988  11.045 -1.6279  1.0073 -0.8933
 5709TIP3    H238619   2.352   5.851  10.997 -1.5200  0.8222 -0.4687
 5710TIP3   OH238620   1.990   1.528   3.007  0.0138 -0.0636  0.1863
 5710TIP3    H138621   1.908   1.541   3.054  0.6186  1.7795  0.7931
 5710TIP3    H238622   1.967   1.472   2.933 -2.1420  1.8223 -0.6317
 5711TIP3   OH238623   6.812   1.838  11.220  0.1646 -0.0714 -0.1401
 5711TIP3    H138624   6.888   1.780  11.207  0.3683  0.6978 -2.8005
 5711TIP3    H238625   6.782   1.857  11.131 -1.3867  1.9673  0.7928
 5712TIP3   OH238626   2.410   2.857  11.093  0.0144  0.3405  0.3400
 5712TIP3    H138627   2.431   2.853  10.999 -1.5193  0.5856 -0.0181
 5712TIP3    H238628   2.460   2.786  11.132 -0.7150 -0.8826 -0.9312
 5713TIP3   OH238629   2.192   0.025  17.013  0.3998  0.0717  0.4123
 5713TIP3    H138630   2.203  -0.059  16.967  1.7754 -1.3009  3.1246
 5713TIP3    H238631   2.097   0.035  17.023  0.1819 -0.5965 -0.9445
 5714TIP3   OH238632   4.817   3.249   4.668  0.4980 -0.0505 -0.4446
 5714TIP3    H138633   4.759   3.219   4.598  0.7206 -0.6301 -0.3823
 5714TIP3    H238634   4.767   3.318   4.713 -0.4330 -1.0431  0.0571
 5715TIP3   OH238635   6.568   2.683   5.007  0.2341 -0.5019  0.2912
 5715TIP3    H138636   6.488   2.642   5.038  0.2434 -0.4076  0.4363
 5715TIP3    H238637   6.638   2.643   5.059 -0.0694  2.2114  2.9097
 5716TIP3   OH238638   2.549   1.238   1.595  0.2926 -0.7718  0.3110
 5716TIP3    H138639   2.574   1.321   1.554 -3.2328 -0.6020 -1.6841
 5716TIP3    H238640   2.541   1.258   1.688  3.4304  0.0870  0.4613
 5717TIP3   OH238641   4.499   2.076   3.978 -0.0515  0.1771  0.0643
 5717TIP3    H138642   4.455   2.100   4.060 -1.9512  0.4495 -1.0096
 5717TIP3    H238643   4.486   2.152   3.921  0.5940 -0.3268 -0.7573
 5718TIP3   OH238644   1.659   4.462  13.438 -0.5862 -0.1645  0.3646
 5718TIP3    H138645   1.616   4.483  13.355 -0.2031 -1.4002 -0.1748
 5718TIP3    H238646   1.635   4.533  13.497 -0.1777  1.1843 -1.0481
 5719TIP3   OH238647   2.943   0.955   7.095 -0.8517  0.0009  0.1289
 5719TIP3    H138648   2.985   1.037   7.068 -0.6058  0.1934  1.0701
 5719TIP3    H238649   3.013   0.890   7.088  0.0030  0.5315  2.8411
 5720TIP3   OH238650   1.222   1.620  11.294  0.2670  0.0291 -0.2350
 5720TIP3    H138651   1.170   1.696  11.317  0.9636 -0.1540  2.1651
 5720TIP3    H238652   1.233   1.625  11.199 -1.1640  1.9339 -0.3243
 5721TIP3   OH238653   3.214   3.428   0.761 -0.5512  0.3783  0.0146
 5721TIP3    H138654   3.202   3.408   0.669  1.7529 -0.9872 -0.0272
 5721TIP3    H238655   3.174   3.355   0.808 -2.4772  1.4841  0.1556
 5722TIP3   OH238656   4.274   6.497  12.973 -0.2344 -0.2213 -0.0619
 5722TIP3    H138657   4.266   6.536  13.060  1.0468 -0.7816  0.3246
 5722TIP3    H238658   4.272   6.572  12.914 -2.9136  0.0296  0.2991
 5723TIP3   OH238659   3.247   1.117  14.156  0.0287  0.2636  0.3610
 5723TIP3    H138660   3.216   1.118  14.247 -0.7955  1.6065  0.0751
 5723TIP3    H238661   3.171   1.087  14.106  1.2408 -3.0652  0.3485
 5724TIP3   OH238662   4.252   3.065   3.664  0.3703  0.3428  0.1978
 5724TIP3    H138663   4.337   3.078   3.623  0.2674 -0.2819 -0.2233
 5724TIP3    H238664   4.201   3.141   3.639  0.1844 -0.2211 -1.1655
 5725TIP3   OH238665   4.662   1.857   0.470  0.3853  0.2662 -0.1910
 5725TIP3    H138666   4.589   1.866   0.409  1.5870 -0.1315 -1.7267
 5725TIP3    H238667   4.718   1.932   0.451  0.5993  0.3168  0.6460
 5726TIP3   OH238668   4.274   6.122   2.654 -0.7103 -0.0359 -0.5607
 5726TIP3    H138669   4.351   6.173   2.630  0.2354  0.4324  3.0554
 5726TIP3    H238670   4.200   6.173   2.621  0.4596  0.3867 -2.5665
 5727TIP3   OH238671   3.154   6.446  17.152 -0.2225  0.2565  0.4007
 5727TIP3    H138672   3.125   6.361  17.120 -0.0179  0.4746 -0.3798
 5727TIP3    H238673   3.248   6.437  17.166  0.1110  0.8692 -1.3815
 5728TIP3   OH238674   5.358   6.469  12.649 -0.3191  0.5095 -0.2762
 5728TIP3    H138675   5.340   6.542  12.708  0.3123 -0.2327  0.8467
 5728TIP3    H238676   5.413   6.507  12.580 -2.6892  1.8323 -1.5024
 5729TIP3   OH238677   5.201   4.770  11.797 -0.2803  0.2549 -0.0965
 5729TIP3    H138678   5.177   4.847  11.746 -1.5643 -1.3931 -2.1285
 5729TIP3    H238679   5.289   4.788  11.829 -0.6265  2.6026 -0.4327
 5730TIP3   OH238680   3.996   2.505   2.730 -0.0428  0.0217 -0.1121
 5730TIP3    H138681   4.089   2.483   2.718  0.3236  1.0431  0.6840
 5730TIP3    H238682   3.968   2.450   2.804 -0.2960 -0.8760 -0.8705
 5731TIP3   OH238683   2.128   6.241   2.325  0.0407  0.7311  0.6894
 5731TIP3    H138684   2.167   6.276   2.406 -1.2915  2.2256  0.7088
 5731TIP3    H238685   2.043   6.207   2.353 -1.4406  3.4021 -0.4827
 5732TIP3   OH238686   4.817   6.752  16.639  0.0427 -0.9997  0.3042
 5732TIP3    H138687   4.736   6.702  16.649 -0.2973 -0.6957 -0.8699
 5732TIP3    H238688   4.887   6.689  16.658 -0.4245 -1.5998  0.0392
 5733TIP3   OH238689   4.637   4.127   0.673  0.3161  0.0531 -0.1896
 5733TIP3    H138690   4.597   4.180   0.741  1.0960  1.4922 -0.8222
 5733TIP3    H238691   4.731   4.143   0.682  0.6540 -2.1495  0.3541
 5734TIP3   OH238692   4.931   2.700  14.968 -0.2472  0.4756 -0.0316
 5734TIP3    H138693   4.981   2.651  15.033  0.4277  1.0389 -0.1241
 5734TIP3    H238694   4.906   2.781  15.013 -5.2258 -1.7857  1.6742
 5735TIP3   OH238695   3.369   2.288   1.848  0.5823  0.1510  0.1716
 5735TIP3    H138696   3.437   2.344   1.885 -3.0773  3.1657  2.7137
 5735TIP3    H238697   3.383   2.292   1.754  3.9630  0.5608  0.6184
 5736TIP3   OH238698   5.721   0.151   2.463  0.1022 -0.1210  0.0315
 5736TIP3    H138699   5.756   0.183   2.380 -0.6691  4.5586  1.3553
 5736TIP3    H238700   5.788   0.090   2.495  1.3938 -0.3782 -2.9911
 5737TIP3   OH238701   4.676   3.752   4.811  0.0437  0.6003  0.2205
 5737TIP3    H138702   4.724   3.826   4.773 -0.5834  0.0198 -1.7423
 5737TIP3    H238703   4.612   3.793   4.869 -1.9562  1.7689 -2.7146
 5738TIP3   OH238704   1.294   2.640   2.165  0.3090 -0.1412  0.2980
 5738TIP3    H138705   1.259   2.633   2.077 -0.0284  2.1054  0.2172
 5738TIP3    H238706   1.283   2.553   2.203 -0.4511 -0.8528 -1.5316
 5739TIP3   OH238707   5.517   1.933  11.098  0.8012  0.5578  0.0030
 5739TIP3    H138708   5.608   1.954  11.120  1.5964 -2.9709  0.3765
 5739TIP3    H238709   5.514   1.942  11.002  1.7963 -0.1663 -0.1072
 5740TIP3   OH238710   0.531   2.744  15.211  0.0649 -0.1122 -0.6539
 5740TIP3    H138711   0.468   2.728  15.281  0.9340 -0.6512  0.0128
 5740TIP3    H238712   0.480   2.738  15.131 -0.9918  0.7660 -0.0624
 5741TIP3   OH238713   6.184   5.442  12.356 -0.3016 -0.0256  0.3495
 5741TIP3    H138714   6.163   5.421  12.447  0.1797 -1.1416  0.2094
 5741TIP3    H238715   6.260   5.500  12.361  0.9968 -1.7258  0.5945
 5742TIP3   OH238716   6.014   0.878  15.096 -0.2905  0.1328 -0.4253
 5742TIP3    H138717   5.926   0.840  15.091  0.9150 -2.6766 -0.9973
 5742TIP3    H238718   6.050   0.866  15.008  0.7146  1.2290 -0.1789
 5743TIP3   OH238719   4.868   3.725  13.596 -0.1551 -0.1950  0.1396
 5743TIP3    H138720   4.913   3.785  13.655  0.4408 -0.1121 -0.3869
 5743TIP3    H238721   4.787   3.703  13.641 -0.8124  1.7356 -0.0618
 5744TIP3   OH238722   1.693   0.708   1.796 -0.3335 -0.6754  0.3493
 5744TIP3    H138723   1.702   0.746   1.883  0.6899 -0.9224  0.3647
 5744TIP3    H238724   1.751   0.631   1.798  0.7712  0.1048 -0.9774
 5745TIP3   OH238725   2.413   2.955  13.064  0.2643  0.0246 -0.9268
 5745TIP3    H138726   2.415   2.860  13.067  0.0414  0.0402 -0.0258
 5745TIP3    H238727   2.461   2.983  13.142 -0.4185  0.6403 -0.7224
 5746TIP3   OH238728   3.342   4.364   5.725  0.3778 -0.0100 -0.0595
 5746TIP3    H138729   3.364   4.351   5.632  1.2814 -0.9304  0.2731
 5746TIP3    H238730   3.405   4.430   5.755 -0.4861  0.9377 -0.3148
 5747TIP3   OH238731   1.246   6.773   1.859  0.1747 -0.7527 -0.3803
 5747TIP3    H138732   1.155   6.777   1.828 -0.7849  0.0842  2.3712
 5747TIP3    H238733   1.296   6.818   1.791 -1.7102  0.2254 -1.1803
 5748TIP3   OH238734   4.285   1.976   5.078 -0.2286 -0.1485 -0.2088
 5748TIP3    H138735   4.277   1.960   4.983 -0.6757  1.1276 -0.3913
 5748TIP3    H238736   4.368   2.020   5.088  0.9564 -2.4083  0.2909
 5749TIP3   OH238737   2.343   2.443  17.280 -0.0289  0.1636 -0.7066
 5749TIP3    H138738   2.376   2.368  17.231  0.5375 -0.0335 -0.0347
 5749TIP3    H238739   2.417   2.503  17.285 -0.0311  0.0998  0.0696
 5750TIP3   OH238740   6.734   0.418  14.670 -0.1643  0.3519  0.1155
 5750TIP3    H138741   6.781   0.501  14.677 -1.3470  1.0811 -0.3856
 5750TIP3    H238742   6.717   0.408  14.576 -1.5414  0.4183  0.3396
 5751TIP3   OH238743   1.776   0.599   0.056  0.1978  0.1110 -0.0150
 5751TIP3    H138744   1.807   0.648   0.132  1.3305  0.7590 -0.8804
 5751TIP3    H238745   1.797   0.655  -0.018 -0.0519 -0.9386 -0.8821
 5752TIP3   OH238746   2.646   3.813   2.061  0.2941 -0.4273 -0.3512
 5752TIP3    H138747   2.632   3.887   2.119  0.4989 -0.4626 -0.2548
 5752TIP3    H238748   2.568   3.759   2.071  0.2499 -0.3425 -0.2436
 5753TIP3   OH238749   0.999   5.156   4.880 -0.3452  0.1503 -0.5466
 5753TIP3    H138750   0.974   5.098   4.808  0.5389  0.1312 -0.8461
 5753TIP3    H238751   1.019   5.240   4.837 -2.3144  0.9004 -0.0430
 5754TIP3   OH238752   6.113   4.307  17.127  0.8048  0.2456 -0.2101
 5754TIP3    H138753   6.193   4.258  17.143  0.7844  0.0166 -0.7845
 5754TIP3    H238754   6.059   4.292  17.204  1.1780  0.1276  0.0270
 5755TIP3   OH238755   5.789   0.699  15.045 -0.3817  0.1536  0.2222
 5755TIP3    H138756   5.813   0.646  14.969  0.8897 -0.1711  0.8411
 5755TIP3    H238757   5.819   0.648  15.121  1.7509  2.1643  0.8005
 5756TIP3   OH238758   6.544   4.735   3.386  0.0696  0.5878  0.5360
 5756TIP3    H138759   6.485   4.782   3.446  0.8757  1.1953  0.8610
 5756TIP3    H238760   6.486   4.679   3.334 -0.9436  2.1097 -0.0119
 5757TIP3   OH238761   3.541   6.810  11.195  0.0868 -0.2798 -0.2066
 5757TIP3    H138762   3.536   6.897  11.156  1.5720  0.5580  1.3864
 5757TIP3    H238763   3.539   6.749  11.121 -0.2523  1.1290 -1.3630
 5758TIP3   OH238764   5.268   4.661  14.223 -0.0318  0.2846 -0.5394
 5758TIP3    H138765   5.258   4.567  14.238 -1.0493  0.3433 -0.7875
 5758TIP3    H238766   5.346   4.685  14.272 -0.5225 -0.4372  0.6340
 5759TIP3   OH238767   1.585   3.087  12.501 -0.1469  0.0803  0.3740
 5759TIP3    H138768   1.634   3.132  12.433 -0.4408  0.4991  0.4358
 5759TIP3    H238769   1.590   2.994  12.478  1.0536  0.0754  0.6307
 5760TIP3   OH238770   3.051   0.441  16.212 -0.0841  0.2212 -0.3227
 5760TIP3    H138771   3.049   0.470  16.121  0.0872 -1.1868 -0.7885
 5760TIP3    H238772   3.139   0.460  16.242  0.2939 -0.5807 -0.8924
 5761TIP3   OH238773   2.253   5.493   0.221 -0.8176  0.5164  0.3936
 5761TIP3    H138774   2.341   5.502   0.184 -0.6670 -2.7398 -0.1831
 5761TIP3    H238775   2.262   5.525   0.311  1.4954 -1.5394  0.9629
 5762TIP3   OH238776   1.682   4.022   6.830 -0.0207  0.1626 -0.2149
 5762TIP3    H138777   1.769   4.026   6.791  0.4985  1.7236  1.0935
 5762TIP3    H238778   1.677   4.098   6.888 -1.1526 -1.5150  1.9749
 5763TIP3   OH238779   3.094   5.294   1.819  0.1776  0.1538  0.0116
 5763TIP3    H138780   3.186   5.319   1.818  0.0273  0.7263 -1.0271
 5763TIP3    H238781   3.093   5.205   1.782  0.6327 -1.1644  3.0128
 5764TIP3   OH238782   0.240   1.196  11.063  0.3921 -0.3140  0.2794
 5764TIP3    H138783   0.331   1.225  11.059  0.2174  0.0735 -1.0050
 5764TIP3    H238784   0.230   1.137  10.989 -1.0902  1.6700 -1.1666
 5765TIP3   OH238785   5.875   4.175   0.209 -0.0014  0.2690  0.5075
 5765TIP3    H138786   5.965   4.203   0.192 -0.1867  1.2168  1.0627
 5765TIP3    H238787   5.835   4.248   0.256 -1.5699  0.5824 -1.2324
 5766TIP3   OH238788   6.576   1.907   3.495 -0.4814  0.4041  0.3469
 5766TIP3    H138789   6.579   1.815   3.519 -0.3900  0.5729  0.9770
 5766TIP3    H238790   6.486   1.922   3.467 -0.4944  0.1256  0.2384
 5767TIP3   OH238791   3.952   3.993  12.976  0.2205 -0.0887 -0.1802
 5767TIP3    H138792   3.935   4.052  13.049 -1.4565 -0.3863 -0.2986
 5767TIP3    H238793   3.871   3.942  12.967  0.3373  0.0572 -2.3387
 5768TIP3   OH238794   3.118   4.571   0.202  0.0523 -0.1287 -0.0672
 5768TIP3    H138795   3.061   4.646   0.218 -0.5298 -0.2314 -1.5461
 5768TIP3    H238796   3.205   4.600   0.230 -0.5804  0.2648  1.5539
 5769TIP3   OH238797   3.389   2.280  12.818 -0.2247 -0.4007 -0.2684
 5769TIP3    H138798   3.478   2.314  12.827 -0.4584  0.8345 -2.2495
 5769TIP3    H238799   3.401   2.186  12.803  0.6454 -0.4972  0.9338
 5770TIP3   OH238800   6.755   3.080   0.607 -0.2116 -0.4173  0.0101
 5770TIP3    H138801   6.753   2.993   0.646 -0.7351 -0.7358 -0.7207
 5770TIP3    H238802   6.757   3.065   0.513  0.3967  0.3574 -0.1061
 5771TIP3   OH238803   5.068   4.223   5.440 -0.1003 -0.0931 -1.3388
 5771TIP3    H138804   5.016   4.211   5.361 -4.4436 -0.3660  1.4320
 5771TIP3    H238805   5.068   4.317   5.456 -2.1791 -0.2952  0.1232
 5772TIP3   OH238806   4.843   1.782  11.151  0.0268 -0.9389  0.0264
 5772TIP3    H138807   4.858   1.876  11.157 -1.9270 -0.5953 -0.2648
 5772TIP3    H238808   4.884   1.757  11.069 -2.3083  0.2772 -1.5782
 5773TIP3   OH238809   0.239   0.796   5.380 -0.2445  0.2717 -0.0887
 5773TIP3    H138810   0.232   0.702   5.362 -0.4952  0.4762 -1.0989
 5773TIP3    H238811   0.167   0.835   5.329 -1.2833  0.8292  1.7442
 5774TIP3   OH238812   2.993   0.653   1.594  0.5190  0.1472 -0.3227
 5774TIP3    H138813   2.928   0.707   1.638 -0.2537 -0.1791 -1.0477
 5774TIP3    H238814   3.065   0.646   1.657 -1.0924 -1.3881  1.4022
 5775TIP3   OH238815   4.312   5.924  13.891  0.4116 -0.2549  0.0443
 5775TIP3    H138816   4.342   6.014  13.908  0.9027 -0.8589  2.6704
 5775TIP3    H238817   4.298   5.887  13.978 -3.7983 -1.4404 -1.0316
 5776TIP3   OH238818   2.835   5.248  11.477 -0.0601 -0.4515 -0.0889
 5776TIP3    H138819   2.814   5.190  11.403 -1.1565 -0.4469  0.2151
 5776TIP3    H238820   2.868   5.328  11.435 -1.6593 -0.0533 -0.6179
 5777TIP3   OH238821   1.075   4.378  13.451  0.1000  0.2814 -0.1778
 5777TIP3    H138822   1.050   4.292  13.483  0.1697  0.3118 -0.0409
 5777TIP3    H238823   1.069   4.371  13.356 -0.4122  0.2850 -0.1441
 5778TIP3   OH238824   2.013   0.193   4.414  0.6686 -0.3846 -0.1163
 5778TIP3    H138825   2.107   0.215   4.414  0.7953 -0.8705 -1.3855
 5778TIP3    H238826   2.011   0.099   4.399  0.0135 -0.6630  1.6226
 5779TIP3   OH238827   2.829   4.657  11.075  0.1499 -0.9277 -0.6087
 5779TIP3    H138828   2.900   4.610  11.030 -0.3093 -1.6536 -0.5859
 5779TIP3    H238829   2.805   4.727  11.016 -0.0642 -1.5341 -1.2505
 5780TIP3   OH238830   0.940   2.574  14.608 -0.5255 -0.5326  0.0152
 5780TIP3    H138831   0.892   2.542  14.532  0.0138 -2.2809  0.3847
 5780TIP3    H238832   1.032   2.558  14.586 -0.1018  2.4483 -0.5318
 5781TIP3   OH238833   2.155   0.518  15.705 -0.4622  0.1176 -0.7597
 5781TIP3    H138834   2.152   0.501  15.611 -1.4861  0.2503 -0.7626
 5781TIP3    H238835   2.099   0.450  15.743  1.2392 -0.9378 -0.0799
 5782TIP3   OH238836   1.558   3.079   1.535 -0.0031  0.4852 -0.4375
 5782TIP3    H138837   1.498   3.004   1.539 -0.1940  0.6367 -0.4418
 5782TIP3    H238838   1.507   3.148   1.491  0.0668  0.7189 -0.1515
 5783TIP3   OH238839   2.540   0.193   4.674 -0.2535 -0.0492 -0.5470
 5783TIP3    H138840   2.465   0.158   4.722  0.5072  0.3715  0.9938
 5783TIP3    H238841   2.582   0.116   4.636  0.4895 -0.6573  1.4658
 5784TIP3   OH238842   2.849   4.772   5.797  0.0727  0.3452  0.4360
 5784TIP3    H138843   2.831   4.783   5.890 -0.3019 -0.3012  0.4430
 5784TIP3    H238844   2.815   4.853   5.756  1.4756  1.2389  1.0100
 5785TIP3   OH238845   6.174   5.048  16.329  0.0823  0.0954 -0.3691
 5785TIP3    H138846   6.079   5.045  16.335  0.1405  1.1808  1.4176
 5785TIP3    H238847   6.203   5.067  16.418  1.8630  2.1136 -1.3286
 5786TIP3   OH238848   3.683   1.573  11.474 -0.2581 -0.7187 -0.4181
 5786TIP3    H138849   3.748   1.642  11.460 -2.0101  0.7860 -1.3205
 5786TIP3    H238850   3.724   1.494  11.439  1.0305  0.2205 -1.0702
 5787TIP3   OH238851   4.688   4.388   4.197  0.5708  0.0457  0.4271
 5787TIP3    H138852   4.695   4.391   4.102 -1.2942 -0.0322  0.2722
 5787TIP3    H238853   4.654   4.300   4.216  0.8372  0.0952  1.1691
 5788TIP3   OH238854   3.893   4.954  11.998 -0.2005 -0.4633 -0.5072
 5788TIP3    H138855   3.976   4.997  12.019  0.0549 -0.5447 -1.3116
 5788TIP3    H238856   3.829   4.998  12.053  0.2377  0.2058 -0.5197
 5789TIP3   OH238857   5.239   5.491   2.537  0.3943  0.5120  0.3376
 5789TIP3    H138858   5.326   5.531   2.533  0.3330  0.5545 -0.4899
 5789TIP3    H238859   5.237   5.449   2.623  1.3445  0.2581  0.2452
 5790TIP3   OH238860   3.437   0.860  14.887 -0.4073  0.4606 -0.2575
 5790TIP3    H138861   3.478   0.777  14.912 -1.9001 -0.4347 -0.7530
 5790TIP3    H238862   3.448   0.915  14.964  0.5107 -0.2123  0.1131
 5791TIP3   OH238863   4.286   6.575  13.269 -0.5626  0.2920 -0.1822
 5791TIP3    H138864   4.262   6.512  13.337 -0.4072  0.6880  0.2432
 5791TIP3    H238865   4.225   6.648  13.281 -1.6690 -0.3869 -1.5737
 5792TIP3   OH238866   3.616   6.718   0.469 -0.4120  0.5290 -0.3535
 5792TIP3    H138867   3.689   6.763   0.426 -0.3086  0.3267 -0.3943
 5792TIP3    H238868   3.643   6.626   0.469  0.2877  0.7185  1.5583
 5793TIP3   OH238869   6.284   6.769  12.275  0.2957  0.4642 -0.4386
 5793TIP3    H138870   6.313   6.692  12.228  0.0852  0.3908 -0.4496
 5793TIP3    H238871   6.344   6.777  12.349  0.9730  0.9070 -1.0304
 5794TIP3   OH238872   4.560   2.068  13.914  0.1999 -0.1186 -0.9247
 5794TIP3    H138873   4.490   2.112  13.962  0.7293 -0.3276  0.0638
 5794TIP3    H238874   4.630   2.058  13.979  0.4885 -1.4456 -1.4209
 5795TIP3   OH238875   0.651   1.061   5.844 -0.2485 -0.0495  0.1853
 5795TIP3    H138876   0.660   0.970   5.873  0.0476 -0.2725 -0.5803
 5795TIP3    H238877   0.575   1.094   5.892  1.4933  0.2588  2.7963
 5796TIP3   OH238878   1.107   4.079  15.613 -0.6542  0.1015  0.4890
 5796TIP3    H138879   1.055   4.072  15.533 -1.1732  0.3702  0.7964
 5796TIP3    H238880   1.189   4.119  15.585 -0.9776  0.5375  0.1540
 5797TIP3   OH238881   6.101   4.133  11.477  0.4154  0.5499 -0.4540
 5797TIP3    H138882   6.173   4.071  11.479  1.5123  1.8317  1.4958
 5797TIP3    H238883   6.135   4.209  11.430 -0.1054  0.6457 -0.6835
 5798TIP3   OH238884   2.210   2.070  15.231 -0.1437 -0.8700 -0.3198
 5798TIP3    H138885   2.153   1.994  15.218  0.6282 -1.3749 -0.7656
 5798TIP3    H238886   2.283   2.056  15.172 -0.9198  1.1674 -1.8112
 5799TIP3   OH238887   4.867   4.452   0.630  0.2156  1.1424 -0.5216
 5799TIP3    H138888   4.879   4.358   0.617 -4.2563  0.3841  0.1695
 5799TIP3    H238889   4.938   4.476   0.690  1.1122 -1.8790 -0.2529
 5800TIP3   OH238890   0.562   2.339  16.849 -0.0242 -0.0182  0.3462
 5800TIP3    H138891   0.475   2.345  16.809 -0.0120 -3.0878 -0.2959
 5800TIP3    H238892   0.617   2.396  16.795 -1.0540 -0.3098 -1.0452
 5801TIP3   OH238893   0.675   2.479  12.474  0.0979 -0.8388 -0.3191
 5801TIP3    H138894   0.765   2.504  12.495 -0.0727 -0.9118  0.5243
 5801TIP3    H238895   0.643   2.549  12.417  1.4428 -1.9852 -2.5376
 5802TIP3   OH238896   0.126   5.629  16.921 -0.6949 -0.3858 -0.0530
 5802TIP3    H138897   0.150   5.679  16.999 -0.1221 -2.1569  0.9083
 5802TIP3    H238898   0.061   5.685  16.876 -0.7054  0.8278  1.4426
 5803TIP3   OH238899   3.992   2.942   6.391  0.1975  0.1763  0.0706
 5803TIP3    H138900   4.023   2.866   6.341 -0.3220 -0.2689  0.4156
 5803TIP3    H238901   3.931   2.905   6.455  0.7117  0.7730  0.9047
 5804TIP3   OH238902   1.330   6.084  13.710 -0.1657  0.2015  0.8566
 5804TIP3    H138903   1.330   6.103  13.616 -0.8072 -1.0173  0.5999
 5804TIP3    H238904   1.406   6.131  13.745 -0.5215  1.4983 -0.0984
 5805TIP3   OH238905   4.867   5.070  13.382 -0.0608  0.0868  0.3621
 5805TIP3    H138906   4.781   5.098  13.353 -0.3808 -0.8204  0.4323
 5805TIP3    H238907   4.912   5.151  13.405 -0.4309  0.6615 -0.9383
 5806TIP3   OH238908   0.703   3.413   3.154  1.1605  0.2563  0.4567
 5806TIP3    H138909   0.672   3.390   3.066  3.8635  0.8173 -0.7252
 5806TIP3    H238910   0.624   3.423   3.206 -0.6009  1.4690 -2.3282
 5807TIP3   OH238911   0.980   0.763   2.929 -0.2687 -0.0252  0.2121
 5807TIP3    H138912   0.931   0.801   3.001 -0.5629  0.6458 -0.3371
 5807TIP3    H238913   0.948   0.809   2.851  1.4923  0.6831 -0.1163
 5808TIP3   OH238914   3.753   3.943  11.468 -0.9016  0.3527  0.3436
 5808TIP3    H138915   3.763   3.984  11.382  1.0623  0.4738  0.5984
 5808TIP3    H238916   3.695   3.869  11.452 -0.2482  0.1350 -1.1886
 5809TIP3   OH238917   2.749   3.038   4.175 -0.1545  0.1654  0.1485
 5809TIP3    H138918   2.809   2.997   4.113  0.4363  1.7972 -0.3582
 5809TIP3    H238919   2.795   3.032   4.259  0.1432  0.2572 -0.0086
 5810TIP3   OH238920   6.094   6.483   2.572  0.1461  0.3619  0.5092
 5810TIP3    H138921   6.078   6.462   2.664  0.3625  1.8477  0.8827
 5810TIP3    H238922   6.086   6.398   2.527  2.7623 -0.8458  2.2275
 5811TIP3   OH238923   6.584   1.339   3.654 -0.4930 -0.1300 -0.1417
 5811TIP3    H138924   6.494   1.308   3.638 -1.1406  2.1803 -1.2761
 5811TIP3    H238925   6.579   1.386   3.737 -0.0467 -1.0488  0.4079
 5812TIP3   OH238926   3.086   4.760   0.559 -0.6729 -0.7814  0.3723
 5812TIP3    H138927   3.142   4.784   0.485  1.0064 -1.6341  1.3327
 5812TIP3    H238928   3.041   4.842   0.582  0.3316 -0.0241 -0.3048
 5813TIP3   OH238929   2.828   5.520  15.015  0.1521 -0.2006  0.2373
 5813TIP3    H138930   2.755   5.498  15.072  0.9073 -2.1817  0.4870
 5813TIP3    H238931   2.790   5.528  14.928 -0.4135 -0.8513  0.4273
 5814TIP3   OH238932   3.064   1.582  14.288 -0.2690  0.3897  0.2101
 5814TIP3    H138933   3.154   1.614  14.293 -0.4239  0.8576 -0.0346
 5814TIP3    H238934   3.073   1.486  14.290  0.3134  0.4102 -1.2791
 5815TIP3   OH238935   1.253   3.578  13.431  0.0948  0.3719 -0.1039
 5815TIP3    H138936   1.184   3.539  13.485 -0.2735  2.4975  0.9844
 5815TIP3    H238937   1.269   3.513  13.363  1.1856 -2.8189  3.0218
 5816TIP3   OH238938   1.051   3.723   3.287  0.0953 -0.3227  0.1916
 5816TIP3    H138939   1.114   3.728   3.358 -0.9073 -2.8829  1.3313
 5816TIP3    H238940   1.000   3.805   3.293  1.1706  0.2693  1.2763
 5817TIP3   OH238941   2.697   2.598   2.462 -0.1337  0.0762 -0.4076
 5817TIP3    H138942   2.740   2.575   2.544  0.0550  0.0475 -0.5144
 5817TIP3    H238943   2.723   2.688   2.445 -0.1904  0.0895 -0.4234
 5818TIP3   OH238944   2.315   1.646   1.502  0.2794 -0.2252  0.3680
 5818TIP3    H138945   2.234   1.667   1.547  0.6053 -0.7274  1.1932
 5818TIP3    H238946   2.380   1.637   1.572  0.9952 -0.0531 -0.2673
 5819TIP3   OH238947   3.683   5.160  15.697  0.4822 -0.4354 -0.6662
 5819TIP3    H138948   3.680   5.104  15.775  0.7202 -1.0079 -1.0606
 5819TIP3    H238949   3.730   5.238  15.725  1.2371 -0.9651 -0.4343
 5820TIP3   OH238950   0.509   6.279   1.365  0.4446  0.0699 -0.1189
 5820TIP3    H138951   0.521   6.198   1.315  1.3318 -0.3256  0.7197
 5820TIP3    H238952   0.522   6.349   1.301  0.6410 -0.4364 -0.6398
 5821TIP3   OH238953   2.623   5.489  16.225  0.0005 -0.9099 -0.8037
 5821TIP3    H138954   2.575   5.564  16.260 -0.1874 -0.9209 -1.0334
 5821TIP3    H238955   2.707   5.491  16.271 -0.5634 -1.4303  0.2735
 5822TIP3   OH238956   3.393   3.866   1.800  0.1212  0.6662 -0.1930
 5822TIP3    H138957   3.447   3.863   1.721  1.2716 -0.4468  0.6218
 5822TIP3    H238958   3.440   3.925   1.858 -0.5193  1.1658 -0.1733
 5823TIP3   OH238959   3.912   5.531  14.693 -0.4197  0.2076  0.3433
 5823TIP3    H138960   3.963   5.608  14.668 -0.1336  0.0948  0.5786
 5823TIP3    H238961   3.895   5.485  14.611 -0.2939  0.3395  0.2448
 5824TIP3   OH238962   1.858   4.661   0.481 -0.5816 -0.1080  0.2443
 5824TIP3    H138963   1.914   4.717   0.534  0.2085  1.0697 -1.7834
 5824TIP3    H238964   1.804   4.614   0.545  0.3686  1.2256  2.0773
 5825TIP3   OH238965   0.655   0.285  11.450  0.1766 -0.4379  0.4367
 5825TIP3    H138966   0.578   0.237  11.479  0.3147 -2.0337 -1.6893
 5825TIP3    H238967   0.709   0.295  11.528 -1.2142 -1.1652  1.5059
 5826TIP3   OH238968   4.943   3.530  15.783 -0.0111  0.4195 -0.0031
 5826TIP3    H138969   4.902   3.513  15.868 -2.0241  1.6171 -0.6940
 5826TIP3    H238970   5.013   3.592  15.802 -0.0935  0.2553  0.8556
 5827TIP3   OH238971   4.611   1.676   5.721 -0.1388 -0.0596  0.3841
 5827TIP3    H138972   4.620   1.763   5.760  0.8366 -0.7081  1.6341
 5827TIP3    H238973   4.678   1.674   5.652  1.2441 -0.5379  1.7103
 5828TIP3   OH238974   1.809   5.825   5.919  0.4947 -0.1527  0.2559
 5828TIP3    H138975   1.854   5.832   6.003 -0.1362  2.0531  0.4374
 5828TIP3    H238976   1.758   5.906   5.912 -1.6777 -1.5789 -0.9660
 5829TIP3   OH238977   3.930   5.776   4.441 -0.1118  0.1692  0.4948
 5829TIP3    H138978   3.997   5.778   4.373 -0.6714 -1.8090 -0.1384
 5829TIP3    H238979   3.945   5.856   4.491  0.9657  1.1372 -1.3135
 5830TIP3   OH238980   4.911   1.078   2.676  0.3575 -0.2614 -0.2243
 5830TIP3    H138981   4.839   1.140   2.668 -0.7876 -1.3526  1.3660
 5830TIP3    H238982   4.976   1.108   2.612 -0.4440  2.1777  0.0601
 5831TIP3   OH238983   2.987   4.043   3.293  0.0715  0.4173  0.7283
 5831TIP3    H138984   2.896   4.046   3.265 -0.0518  2.1535  1.2398
 5831TIP3    H238985   2.998   3.956   3.331 -0.5827 -0.8279 -1.8922
 5832TIP3   OH238986   4.020   5.889  15.843  0.6014  0.0351  0.6625
 5832TIP3    H138987   3.978   5.905  15.759  0.8248  0.3956  0.6197
 5832TIP3    H238988   4.001   5.797  15.862  2.0046 -0.5368 -0.6140
 5833TIP3   OH238989   5.672   5.922  15.039  0.0254  0.0999  0.0746
 5833TIP3    H138990   5.609   5.980  15.081 -0.6634  0.7628 -1.8147
 5833TIP3    H238991   5.624   5.840  15.026 -0.6224  0.7433 -1.7553
 5834TIP3   OH238992   6.437   6.361  15.279 -0.2564  0.3939 -0.0696
 5834TIP3    H138993   6.372   6.336  15.213  0.2001 -1.0186 -0.0062
 5834TIP3    H238994   6.420   6.454  15.296 -1.2569  0.4234 -1.1762
 5835TIP3   OH238995   1.564   2.460  16.692 -0.2369  0.0119  0.4572
 5835TIP3    H138996   1.503   2.533  16.698 -0.5900 -0.3298  1.1254
 5835TIP3    H238997   1.649   2.501  16.680 -0.2713  0.5891  2.0361
 5836TIP3   OH238998   6.645   6.017   2.285  0.2063 -0.3434 -0.4181
 5836TIP3    H138999   6.596   6.094   2.314 -0.0814 -0.0733 -1.5993
 5836TIP3    H239000   6.578   5.948   2.277  0.5517 -0.8971  1.2208
 5837TIP3   OH239001   4.463   3.458   5.872  0.0671 -0.2535  0.2046
 5837TIP3    H139002   4.376   3.433   5.842 -0.1255 -1.4746  1.6872
 5837TIP3    H239003   4.479   3.402   5.948  2.0243  0.1581  0.1348
 5838TIP3   OH239004   6.154   2.432  13.389  0.0669 -0.0931 -0.7897
 5838TIP3    H139005   6.127   2.520  13.414  0.4274  0.0515 -0.9001
 5838TIP3    H239006   6.247   2.427  13.413 -0.8740 -1.7756  2.8556
 5839TIP3   OH239007   0.009   0.011  12.102  0.4711  0.1707 -0.4221
 5839TIP3    H139008  -0.013  -0.044  12.027  0.0683  1.1113 -0.9961
 5839TIP3    H239009   0.100   0.037  12.087  0.5822 -0.1291 -0.2758
 5840TIP3   OH239010   5.426   5.544   2.944 -0.0051 -0.2330 -0.0937
 5840TIP3    H139011   5.362   5.496   2.891 -1.2534  1.9366 -0.6025
 5840TIP3    H239012   5.414   5.509   3.033 -2.6533  0.8254  0.0179
 5841TIP3   OH239013   3.669   2.381   1.679  0.3937 -0.4485 -0.4335
 5841TIP3    H139014   3.690   2.471   1.705  0.8562 -0.1809 -1.6767
 5841TIP3    H239015   3.580   2.386   1.645  0.3392 -0.5046 -0.2980
 5842TIP3   OH239016   2.432   5.645   4.292  0.6926 -0.5955  0.0183
 5842TIP3    H139017   2.412   5.717   4.351  0.6600 -0.8689  0.3436
 5842TIP3    H239018   2.371   5.576   4.317  1.5354 -1.1683  0.5238
 5843TIP3   OH239019   5.728   1.977   3.171  0.8171  0.0712 -0.1946
 5843TIP3    H139020   5.692   1.893   3.143  1.8367 -0.0051 -1.3241
 5843TIP3    H239021   5.823   1.965   3.169  0.9567  0.8907  0.7889
 5844TIP3   OH239022   2.703   1.419  14.891 -0.4057 -0.2862  0.0968
 5844TIP3    H139023   2.638   1.377  14.947 -0.9002  0.4854  0.1161
 5844TIP3    H239024   2.662   1.503  14.866  0.3313 -0.0639 -0.3802
 5845TIP3   OH239025   5.987   4.850   3.463 -0.0521  0.7595 -0.1705
 5845TIP3    H139026   5.917   4.909   3.492  1.0360  0.7176  2.6934
 5845TIP3    H239027   6.047   4.907   3.415  0.7089  1.9161  2.1020
 5846TIP3   OH239028   0.444   5.826  11.991 -0.4133  0.1017  0.0257
 5846TIP3    H139029   0.511   5.778  11.941 -0.5850 -2.7081  2.3845
 5846TIP3    H239030   0.487   5.845  12.075 -1.6128  0.8250  0.4761
 5847TIP3   OH239031   2.758   0.134  15.430  0.0576 -0.3734 -0.2288
 5847TIP3    H139032   2.762   0.214  15.377  0.0267  0.1652  0.5741
 5847TIP3    H239033   2.665   0.117  15.441  0.0477  0.3719  0.9216
 5848TIP3   OH239034   3.017   5.857   3.970 -0.3585 -0.0881  0.2198
 5848TIP3    H139035   3.077   5.810   3.912 -0.7686  1.1266 -1.2292
 5848TIP3    H239036   2.958   5.790   4.004 -1.4893 -0.5333 -2.4818
 5849TIP3   OH239037   5.251   2.239   0.998  0.0509  0.4251  0.4145
 5849TIP3    H139038   5.296   2.175   1.053  0.1321 -0.4975 -0.7141
 5849TIP3    H239039   5.168   2.255   1.042  1.3749  2.0061  2.4294
 5850TIP3   OH239040   0.745   4.966  12.210 -0.1795 -0.3233  0.7584
 5850TIP3    H139041   0.662   4.919  12.209 -1.3468  1.6675 -0.4056
 5850TIP3    H239042   0.741   5.022  12.288  0.6381 -1.1879  1.4268
 5851TIP3   OH239043   1.428   5.813   5.753  0.3098 -0.4454 -0.1684
 5851TIP3    H139044   1.351   5.836   5.805  0.5199 -0.0687 -0.0197
 5851TIP3    H239045   1.454   5.726   5.783 -0.2648 -0.7175 -0.4614
 5852TIP3   OH239046   4.688   3.496   5.703  0.4148  0.2788 -0.2236
 5852TIP3    H139047   4.614   3.450   5.743  0.1939  0.9099  0.1028
 5852TIP3    H239048   4.667   3.589   5.714  1.1614  0.4606 -0.3109
 5853TIP3   OH239049   2.198   1.858  15.599  0.1345  0.1575 -0.5182
 5853TIP3    H139050   2.268   1.838  15.536 -1.2065 -0.0590 -1.9652
 5853TIP3    H239051   2.145   1.778  15.601 -2.0919  1.5658 -2.1282
 5854TIP3   OH239052   6.396   4.054  15.412  0.6602 -0.2870  0.3495
 5854TIP3    H139053   6.319   4.016  15.370  0.9179  1.3117 -1.6525
 5854TIP3    H239054   6.471   4.009  15.372  0.8322 -0.6520  1.0696
 5855TIP3   OH239055   5.569   0.024   3.399 -0.2190  0.2785  0.3184
 5855TIP3    H139056   5.648  -0.029   3.391 -0.0457  0.3363  1.5238
 5855TIP3    H239057   5.504  -0.019   3.343 -1.1073 -3.1384  3.7990
 5856TIP3   OH239058   5.645   2.285  11.743 -0.2283  0.2632 -0.2034
 5856TIP3    H139059   5.614   2.350  11.805  0.3964 -0.1889  0.6020
 5856TIP3    H239060   5.707   2.333  11.687 -0.9974  0.7330 -0.6496
 5857TIP3   OH239061   2.245   3.428   3.721 -0.2148 -0.1491 -0.8812
 5857TIP3    H139062   2.293   3.504   3.686 -0.9974 -0.3263 -2.4066
 5857TIP3    H239063   2.225   3.452   3.811 -2.2165  2.3826 -1.9123
 5858TIP3   OH239064   3.437   4.830   6.139  0.1681  0.0593  0.4485
 5858TIP3    H139065   3.384   4.772   6.194 -0.8552 -0.2827 -0.8616
 5858TIP3    H239066   3.480   4.889   6.201 -0.9825 -0.2841  1.6111
 5859TIP3   OH239067   2.925   1.799   5.714  0.5205  0.9893 -0.4559
 5859TIP3    H139068   2.971   1.866   5.663  2.0335 -0.1812 -0.6794
 5859TIP3    H239069   2.895   1.844   5.792  0.3494  2.2357 -1.2286
 5860TIP3   OH239070   0.710   4.471  12.636  0.1137  0.3286  0.1296
 5860TIP3    H139071   0.755   4.469  12.720  1.7370 -0.1517 -0.7363
 5860TIP3    H239072   0.740   4.392  12.591 -0.8103  0.5426 -0.8826
 5861TIP3   OH239073   3.983   3.418  12.937  0.4459  0.0860 -0.0093
 5861TIP3    H139074   3.942   3.487  12.990  0.2697  0.7360 -0.9818
 5861TIP3    H239075   4.073   3.415  12.969  0.8280  1.7066 -0.8652
 5862TIP3   OH239076   1.778   6.699   4.997  0.0239 -0.1755 -0.1026
 5862TIP3    H139077   1.729   6.780   5.011  2.2075  1.3744 -1.1735
 5862TIP3    H239078   1.862   6.715   5.039 -0.1725 -2.6509  1.3601
 5863TIP3   OH239079   0.419   2.165  12.258  0.0365 -0.1432 -0.7836
 5863TIP3    H139080   0.512   2.171  12.277  0.2318  0.0178 -1.7725
 5863TIP3    H239081   0.384   2.250  12.284 -0.0032 -0.5460  0.4915
 5864TIP3   OH239082   5.267   1.722   4.276 -0.5495  0.6187 -0.3123
 5864TIP3    H139083   5.278   1.729   4.181 -1.5655  1.4985 -0.3713
 5864TIP3    H239084   5.210   1.646   4.288  0.4001 -0.1128 -0.3391
 5865TIP3   OH239085   1.387   3.215  11.212  0.3242 -0.1587  0.0832
 5865TIP3    H139086   1.404   3.283  11.146  0.6538 -0.9511 -0.6722
 5865TIP3    H239087   1.334   3.150  11.166 -1.4069  0.3822  1.2914
 5866TIP3   OH239088   2.823   2.047   0.016  0.1155 -0.5327  0.5161
 5866TIP3    H139089   2.818   1.995   0.096 -1.9325 -2.1393 -0.6158
 5866TIP3    H239090   2.865   1.989  -0.048 -0.1480  0.0042 -0.1474
 5867TIP3   OH239091   5.149   4.098   2.217 -0.3461 -0.2303  0.8449
 5867TIP3    H139092   5.226   4.150   2.241 -0.2602  0.4991 -0.9731
 5867TIP3    H239093   5.087   4.161   2.182 -0.7421 -1.1794 -0.1644
 5868TIP3   OH239094   5.079   0.531  14.218  0.2840 -0.2814  0.1730
 5868TIP3    H139095   5.047   0.590  14.286  2.5108 -1.5622  2.3968
 5868TIP3    H239096   5.167   0.507  14.246  0.6154 -2.1808 -2.3185
 5869TIP3   OH239097   0.031   4.075   3.313  0.8144  0.2160  0.1676
 5869TIP3    H139098   0.026   3.998   3.257  1.3017  0.8438 -0.7481
 5869TIP3    H239099  -0.017   4.051   3.392 -0.1419 -0.5656 -0.6439
 5870TIP3   OH239100   5.591   3.669  14.946 -0.2438 -0.3595 -0.1841
 5870TIP3    H139101   5.562   3.590  14.902 -1.4886 -0.6184  1.0457
 5870TIP3    H239102   5.534   3.738  14.911  0.7302 -0.0295 -1.1342
 5871TIP3   OH239103   6.302   4.097  10.787 -0.3646 -0.8343  0.0177
 5871TIP3    H139104   6.243   4.112  10.713 -0.8122 -0.3651  0.4654
 5871TIP3    H239105   6.334   4.008  10.774  0.6704 -0.2517 -1.5212
 5872TIP3   OH239106   1.198   0.966   3.530 -0.2441 -0.1851  0.6865
 5872TIP3    H139107   1.249   0.933   3.604  1.0678  0.3286  0.0469
 5872TIP3    H239108   1.108   0.940   3.548 -0.0365  0.3944  2.7208
 5873TIP3   OH239109   3.743   3.089   3.163 -0.2628  0.3840  0.3840
 5873TIP3    H139110   3.823   3.058   3.122 -1.4573  0.4422 -2.1303
 5873TIP3    H239111   3.676   3.025   3.137 -1.1640  0.6661  1.9188
 5874TIP3   OH239112   1.938   1.278   1.717 -0.2111  0.6251 -0.1844
 5874TIP3    H139113   1.925   1.186   1.741  1.6445  0.6773  1.1742
 5874TIP3    H239114   1.867   1.325   1.762 -0.6282 -0.0464 -0.1424
 5875TIP3   OH239115   1.673   3.105  12.252 -0.1752 -0.2780  0.3496
 5875TIP3    H139116   1.586   3.145  12.259 -0.3852 -0.5546 -0.5571
 5875TIP3    H239117   1.687   3.096  12.158  1.3189  0.8157  0.4418
 5876TIP3   OH239118   2.543   0.952   5.671 -0.1926  0.4400 -0.4718
 5876TIP3    H139119   2.568   0.859   5.674 -0.7022  0.3094 -0.2951
 5876TIP3    H239120   2.573   0.987   5.755  1.6229  0.8520 -1.2636
 5877TIP3   OH239121   5.155   1.686  14.655  0.8989  0.7046 -0.3608
 5877TIP3    H139122   5.114   1.750  14.597 -1.7485 -0.7352 -0.1632
 5877TIP3    H239123   5.148   1.725  14.742  0.4840  0.7524 -0.4116
 5878TIP3   OH239124   3.965   4.870  12.992  0.1713  0.3614 -0.2543
 5878TIP3    H139125   3.891   4.823  13.029  0.5402  0.0369  0.0829
 5878TIP3    H239126   4.042   4.822  13.024  0.5679  1.3967  0.3686
 5879TIP3   OH239127   4.511   2.034  16.816  0.2057  0.3332  0.0402
 5879TIP3    H139128   4.470   2.099  16.872 -0.8040 -0.7543  0.5888
 5879TIP3    H239129   4.438   1.992  16.770  0.7630 -1.0760  0.4185
 5880TIP3   OH239130   5.750   5.748  13.923  0.0263  0.2149  0.5836
 5880TIP3    H139131   5.783   5.668  13.881 -0.3616  0.3616 -0.0044
 5880TIP3    H239132   5.684   5.716  13.985  1.1275 -0.0638  1.6427
 5881TIP3   OH239133   1.927   2.868   6.146  0.5844  0.4336  0.3393
 5881TIP3    H139134   1.955   2.922   6.072  2.5382  0.8077  1.3254
 5881TIP3    H239135   1.895   2.930   6.211  0.0663  0.1904  0.3207
 5882TIP3   OH239136   6.215   2.884   5.079  0.4188  0.2016  0.4263
 5882TIP3    H139137   6.264   2.949   5.029  0.4953  1.0202  1.5459
 5882TIP3    H239138   6.230   2.908   5.171 -0.2322 -0.8962  0.8294
 5883TIP3   OH239139   5.778   6.055  12.944  0.5525  0.0039 -0.6015
 5883TIP3    H139140   5.780   6.005  13.025  0.6038  0.2541 -0.4514
 5883TIP3    H239141   5.870   6.061  12.917  0.6757  1.0567  0.0151
 5884TIP3   OH239142   3.100   3.962   1.902 -0.0230  0.1634 -0.1465
 5884TIP3    H139143   3.187   3.967   1.862  1.1496 -1.6633  1.9932
 5884TIP3    H239144   3.062   3.882   1.866  0.3752 -0.5973  1.0827
 5885TIP3   OH239145   5.095   2.016  16.109  0.2488 -0.5987 -0.0924
 5885TIP3    H139146   5.117   2.006  16.016 -2.6922 -0.3922 -0.8709
 5885TIP3    H239147   5.038   1.942  16.128 -0.5068  0.2724  1.0966
 5886TIP3   OH239148   4.608   5.371   1.034  0.1485 -0.3726  0.1307
 5886TIP3    H139149   4.664   5.445   1.010 -0.6601  0.4885  0.8296
 5886TIP3    H239150   4.657   5.293   1.007  1.3602  0.3904  0.1070
 5887TIP3   OH239151   0.080   6.007  15.887 -0.3814  0.3524 -0.2091
 5887TIP3    H139152   0.025   5.930  15.873  1.7488 -1.1495 -0.6956
 5887TIP3    H239153   0.169   5.976  15.867  0.6273  2.6984  0.5023
 5888TIP3   OH239154   6.429   0.879  14.082 -0.2841 -0.2567 -0.3311
 5888TIP3    H139155   6.429   0.786  14.103 -1.1639 -0.7669 -2.4268
 5888TIP3    H239156   6.517   0.909  14.104 -1.1643 -0.6319  4.1845
 5889TIP3   OH239157   0.269   0.135  13.333 -0.3191 -0.5203 -0.0332
 5889TIP3    H139158   0.278   0.042  13.350  0.0992 -0.2543  1.2186
 5889TIP3    H239159   0.287   0.144  13.239  1.0420 -1.5143  0.1231
 5890TIP3   OH239160   3.915   0.095  15.722  0.0348  0.2052  0.2793
 5890TIP3    H139161   3.963   0.033  15.668  1.3306  1.3269  0.1436
 5890TIP3    H239162   3.966   0.175  15.719 -0.8088  0.8175  1.7313
 5891TIP3   OH239163   0.486   5.130  12.009 -0.1460  0.9791  0.0679
 5891TIP3    H139164   0.496   5.224  12.025  2.3044  1.4478 -3.5197
 5891TIP3    H239165   0.573   5.093  12.028 -0.5371 -0.2356 -0.4679
 5892TIP3   OH239166   5.372   0.678  15.492 -0.1247 -0.8721  0.1322
 5892TIP3    H139167   5.301   0.684  15.428  0.7510  0.3016 -0.7273
 5892TIP3    H239168   5.434   0.616  15.454 -0.9763 -2.4203  1.1916
 5893TIP3   OH239169   4.322   5.100   0.335  0.3095 -0.0670 -0.6049
 5893TIP3    H139170   4.298   5.176   0.282  0.5167 -0.6619 -1.5816
 5893TIP3    H239171   4.299   5.123   0.424 -0.8084  0.6410 -1.0784
 5894TIP3   OH239172   4.920   2.228  15.664  0.0275 -0.1829 -0.1583
 5894TIP3    H139173   5.014   2.212  15.675 -0.2265 -0.1147  2.2289
 5894TIP3    H239174   4.885   2.227  15.752 -2.1586  0.3105 -0.9996
 5895TIP3   OH239175   3.070   2.242  12.187  0.5341  0.3528  0.3097
 5895TIP3    H139176   3.076   2.298  12.109  0.9565 -0.0150  0.0723
 5895TIP3    H239177   3.137   2.277  12.246 -0.4754  1.2685  0.9259
 5896TIP3   OH239178   3.709   5.540  11.453 -0.8848 -0.4815 -0.9949
 5896TIP3    H139179   3.784   5.483  11.469 -2.0753 -1.5496  0.9568
 5896TIP3    H239180   3.646   5.485  11.407 -1.2647 -0.1676 -0.8511
 5897TIP3   OH239181   2.928   5.290   3.248  0.4838  0.6778 -0.3250
 5897TIP3    H139182   2.934   5.197   3.227 -2.3631  0.8009 -1.9411
 5897TIP3    H239183   2.938   5.294   3.343  1.1638 -1.2114 -0.2912
 5898TIP3   OH239184   4.334   3.835   4.450  0.3003  0.0716 -0.2575
 5898TIP3    H139185   4.344   3.750   4.492  0.7096  0.4988  0.5099
 5898TIP3    H239186   4.275   3.818   4.377  0.8203 -0.9854 -0.4467
 5899TIP3   OH239187   0.172   5.278   0.195 -0.1252  0.2983 -0.5405
 5899TIP3    H139188   0.263   5.304   0.180  0.2584 -1.1361 -0.7730
 5899TIP3    H239189   0.131   5.356   0.234  1.5895  0.4418  1.0376
 5900TIP3   OH239190   3.195   1.360  12.949  0.6544  0.0575  0.0075
 5900TIP3    H139191   3.288   1.367  12.930  1.2077  1.2121  2.8126
 5900TIP3    H239192   3.188   1.284  13.007  0.1193  0.9078  1.0961
 5901TIP3   OH239193   2.664   1.911  11.389 -0.4313  0.2490  0.3196
 5901TIP3    H139194   2.734   1.888  11.450  0.9867  0.7916 -1.0636
 5901TIP3    H239195   2.584   1.907  11.442  0.5532 -1.0337  1.7682
 5902TIP3   OH239196   5.922   0.313  13.354  0.7652 -0.3334  0.3794
 5902TIP3    H139197   5.990   0.347  13.296  0.4893 -1.1210 -0.4246
 5902TIP3    H239198   5.929   0.218  13.346 -0.7571 -0.4180 -0.1271
 5903TIP3   OH239199   4.280   4.143   3.068 -0.1025 -0.0750 -0.1543
 5903TIP3    H139200   4.266   4.194   2.988  0.4635 -0.3409 -0.4292
 5903TIP3    H239201   4.302   4.208   3.134  0.8281  0.0277 -0.5539
 5904TIP3   OH239202   6.808   5.474  16.094  0.7693  0.2797 -0.1780
 5904TIP3    H139203   6.765   5.396  16.058  0.6710  0.2844 -0.0688
 5904TIP3    H239204   6.787   5.472  16.187  0.7816  0.4253 -0.1725
 5905TIP3   OH239205   3.185   3.045  16.083  0.1956 -0.0499  0.4360
 5905TIP3    H139206   3.254   2.997  16.037  0.3658  1.9867 -1.5355
 5905TIP3    H239207   3.106   3.028  16.032 -0.6319 -1.7238  2.2283
 5906TIP3   OH239208   1.357   1.296  13.036  0.1407  0.3137  0.0145
 5906TIP3    H139209   1.329   1.272  13.124 -0.7576  0.5001 -0.2168
 5906TIP3    H239210   1.420   1.228  13.011 -2.0452 -1.5688 -0.4800
 5907TIP3   OH239211   6.578   4.855   5.739 -0.6287 -0.6116  0.0594
 5907TIP3    H139212   6.527   4.780   5.772 -0.4962 -1.6940 -2.1440
 5907TIP3    H239213   6.669   4.828   5.750 -0.5267  0.2395  1.4990
 5908TIP3   OH239214   1.808   4.517   1.984  0.0728 -0.1030 -0.3458
 5908TIP3    H139215   1.865   4.453   2.028  0.1132  0.4228  0.3682
 5908TIP3    H239216   1.838   4.602   2.017 -0.3388  0.2506 -0.8862
 5909TIP3   OH239217   5.251   0.409  15.649 -0.2139 -0.0324  0.0280
 5909TIP3    H139218   5.345   0.416  15.631 -0.1541  1.9114  1.0084
 5909TIP3    H239219   5.241   0.327  15.697  1.0871  0.1573  0.6255
 5910TIP3   OH239220   2.872   1.705  15.376 -0.6342  0.7496  0.5643
 5910TIP3    H139221   2.942   1.691  15.313 -0.7391  0.1021  0.5800
 5910TIP3    H239222   2.878   1.797  15.400  1.6806  0.2017  2.3025
 5911TIP3   OH239223   5.563   2.223  12.893 -0.1738  0.0970  0.1137
 5911TIP3    H139224   5.501   2.188  12.958 -0.8369  1.2855  0.1512
 5911TIP3    H239225   5.509   2.279  12.837  0.9092  1.3186  0.2722
 5912TIP3   OH239226   2.344   3.026  13.570  0.7460  0.0624  0.6495
 5912TIP3    H139227   2.329   3.094  13.504  1.3339  0.4051  0.8630
 5912TIP3    H239228   2.281   3.045  13.640 -0.1913 -0.5738 -0.0154
 5913TIP3   OH239229   5.192   3.056   2.947  0.0656  0.2169  0.0792
 5913TIP3    H139230   5.154   3.133   2.988  1.6530  1.4120 -0.6216
 5913TIP3    H239231   5.249   3.019   3.015  0.1153  0.2831  0.0742
 5914TIP3   OH239232   1.989   6.793   5.141 -0.1694 -0.2906 -0.2866
 5914TIP3    H139233   1.988   6.877   5.188  3.2560  1.0802 -2.4827
 5914TIP3    H239234   2.028   6.731   5.203 -1.8591 -0.1047  1.0131
 5915TIP3   OH239235   5.415   4.650  15.530  0.4227  0.1443  0.3464
 5915TIP3    H139236   5.385   4.736  15.502 -0.7249 -0.1642  0.6159
 5915TIP3    H239237   5.502   4.641  15.490  0.3790  1.2569 -0.0096
 5916TIP3   OH239238   3.245   5.449   3.667 -0.0742 -0.3301  0.6278
 5916TIP3    H139239   3.212   5.468   3.755 -1.8979  0.3985 -0.1836
 5916TIP3    H239240   3.280   5.360   3.672 -2.3907 -1.2160  1.4863
 5917TIP3   OH239241   3.197   2.269   3.651  0.3250  0.1080  0.0731
 5917TIP3    H139242   3.232   2.186   3.617 -1.1989 -0.3655 -0.3746
 5917TIP3    H239243   3.106   2.270   3.622 -0.0990  1.2208  1.4122
 5918TIP3   OH239244   2.561   0.409   6.948  0.5857  0.4159  0.3120
 5918TIP3    H139245   2.573   0.483   7.007 -0.4128 -0.3878  1.5494
 5918TIP3    H239246   2.474   0.423   6.909  0.1936 -0.3469  0.9076
 5919TIP3   OH239247   5.253   2.236  11.634 -0.0343 -0.0234  0.1692
 5919TIP3    H139248   5.286   2.307  11.689  1.9039 -0.6761 -0.1370
 5919TIP3    H239249   5.206   2.280  11.563  2.3479  1.0152 -0.7938
 5920TIP3   OH239250   2.252   3.930   1.490  0.0358 -0.0766 -0.1000
 5920TIP3    H139251   2.193   3.860   1.517  0.0531 -0.0657 -0.0358
 5920TIP3    H239252   2.339   3.900   1.515 -0.0668  0.4525  0.9142
 5921TIP3   OH239253   4.218   3.436  12.694  0.3809  0.4800 -0.1091
 5921TIP3    H139254   4.269   3.356  12.682  0.0298  0.3526 -0.7660
 5921TIP3    H239255   4.173   3.449  12.610  2.8591  3.0851 -1.0851
 5922TIP3   OH239256   0.115   5.413   3.606  0.1313 -0.1435  0.3574
 5922TIP3    H139257   0.206   5.417   3.577 -0.3636  0.1767 -1.1715
 5922TIP3    H239258   0.112   5.469   3.684  0.9600  0.8593 -0.3325
 5923TIP3   OH239259   6.467   0.291   4.139  0.3566  0.1338 -0.4773
 5923TIP3    H139260   6.427   0.378   4.141  0.7469  0.3446 -1.2337
 5923TIP3    H239261   6.561   0.309   4.132  0.5939 -0.3518  1.2939
 5924TIP3   OH239262   0.585   1.488   5.727 -0.0881 -0.5259  0.8905
 5924TIP3    H139263   0.628   1.403   5.716  1.3885  0.1665  1.2436
 5924TIP3    H239264   0.528   1.496   5.651  0.9330 -1.1363  0.0558
 5925TIP3   OH239265   2.834   4.191   2.569 -0.2991 -0.8796  0.4924
 5925TIP3    H139266   2.836   4.118   2.508  0.6889 -0.9004  0.5474
 5925TIP3    H239267   2.859   4.153   2.653  0.5260 -0.4245  0.4580
 5926TIP3   OH239268   2.166   1.772  16.395  0.4586  0.0569 -0.0536
 5926TIP3    H139269   2.078   1.776  16.431 -0.1086 -0.5605 -1.3102
 5926TIP3    H239270   2.216   1.836  16.445 -0.5490 -0.0177  1.0821
 5927TIP3   OH239271   3.601   2.837  12.497  0.0546  0.8646  0.3192
 5927TIP3    H139272   3.567   2.761  12.544 -0.1693  1.1459  0.6169
 5927TIP3    H239273   3.635   2.802  12.415  0.9344  0.2986  0.9188
 5928TIP3   OH239274   2.153   2.586   5.517  0.9513 -0.0746 -0.3323
 5928TIP3    H139275   2.168   2.497   5.549  0.9509 -0.0344 -0.2181
 5928TIP3    H239276   2.091   2.575   5.445  0.2144 -0.0830  0.2929
 5929TIP3   OH239277   1.842   2.766   6.772 -0.7735  0.3641  0.2625
 5929TIP3    H139278   1.885   2.755   6.857 -0.9676 -0.0622  0.3049
 5929TIP3    H239279   1.909   2.807   6.717 -1.1939  2.2342  1.0980
 5930TIP3   OH239280   4.040   1.642  13.777 -0.0815 -0.2441 -0.1905
 5930TIP3    H139281   3.949   1.669  13.777 -0.0391 -0.1082  0.4374
 5930TIP3    H239282   4.061   1.628  13.684 -0.4237  0.7922 -0.4297
 5931TIP3   OH239283   5.692   4.672  12.303 -0.3333 -0.7655 -0.0627
 5931TIP3    H139284   5.752   4.746  12.295 -1.4656  0.4050  1.7999
 5931TIP3    H239285   5.671   4.668  12.396 -0.5940 -3.2233 -0.1951
 5932TIP3   OH239286   0.893   5.831  16.794 -0.6067 -0.3940 -0.2352
 5932TIP3    H139287   0.976   5.789  16.773 -0.9045 -0.6198 -0.9639
 5932TIP3    H239288   0.914   5.891  16.866  0.0232 -1.0465  0.1407
 5933TIP3   OH239289   0.177   3.330  11.889  0.2866 -0.1088 -0.1181
 5933TIP3    H139290   0.091   3.315  11.851  0.0566 -0.7581  0.6543
 5933TIP3    H239291   0.231   3.257  11.857  0.2001 -0.4294  0.4509
 5934TIP3   OH239292   3.629   5.660  11.065  0.1019 -0.2729  0.5045
 5934TIP3    H139293   3.593   5.572  11.056 -0.2829 -0.0777  0.1390
 5934TIP3    H239294   3.574   5.715  11.009  0.7623  0.0765  0.1881
 5935TIP3   OH239295   6.426   5.219  13.875  0.4529  0.0081 -0.6054
 5935TIP3    H139296   6.495   5.195  13.936 -0.4330 -0.0659  0.3987
 5935TIP3    H239297   6.439   5.313  13.860  1.2084 -0.1583 -1.0016
 5936TIP3   OH239298   0.203   4.736   1.186 -0.3317 -0.6869  0.3367
 5936TIP3    H139299   0.116   4.697   1.188  0.4505 -2.4829  0.1167
 5936TIP3    H239300   0.225   4.739   1.093  0.5173 -1.8107  0.4895
 5937TIP3   OH239301   0.297   5.905   5.016  0.0665 -0.1871  0.4462
 5937TIP3    H139302   0.357   5.863   4.955 -0.3235 -1.2988  0.8315
 5937TIP3    H239303   0.235   5.952   4.959  0.3675 -0.3098  0.0159
 5938TIP3   OH239304   5.320   1.920   0.299 -0.1887 -0.1755  0.1598
 5938TIP3    H139305   5.280   1.852   0.354 -0.0995 -0.3247  0.0415
 5938TIP3    H239306   5.298   2.002   0.342  1.2761 -0.3827  1.3235
 5939TIP3   OH239307   1.359   3.731   4.986  0.0493  0.3798  0.1199
 5939TIP3    H139308   1.288   3.786   5.018 -1.1189  0.7151 -2.8931
 5939TIP3    H239309   1.411   3.789   4.930  0.2660 -0.9209 -1.0538
 5940TIP3   OH239310   4.117   0.116   1.903 -0.1865  1.1941 -0.0929
 5940TIP3    H139311   4.191   0.077   1.948 -1.2584  2.3396  2.7621
 5940TIP3    H239312   4.151   0.196   1.865  1.2257 -0.7762 -3.2050
 5941TIP3   OH239313   2.209   5.420  11.512 -0.4097  0.5195 -0.5014
 5941TIP3    H139314   2.156   5.455  11.440 -1.2164 -0.7277 -0.5235
 5941TIP3    H239315   2.145   5.401  11.581  0.2787  1.0598  0.2959
 5942TIP3   OH239316   2.024   5.592  13.588  0.2933  0.1083 -0.2462
 5942TIP3    H139317   2.026   5.514  13.642  0.4198 -0.2326 -0.7438
 5942TIP3    H239318   1.967   5.569  13.514 -0.2765  0.7352 -0.0115
 5943TIP3   OH239319   4.759   0.986  12.710  0.0813 -0.3469  0.3686
 5943TIP3    H139320   4.691   0.919  12.707 -2.4535  2.2145 -0.6670
 5943TIP3    H239321   4.796   0.987  12.622  0.2236 -0.4275  0.4252
 5944TIP3   OH239322   3.871   1.185  16.565 -0.0586 -0.4971  0.1411
 5944TIP3    H139323   3.861   1.090  16.571  0.0198 -0.5512 -0.5359
 5944TIP3    H239324   3.948   1.197  16.509  0.1065 -0.0379  0.4635
 5945TIP3   OH239325   5.443   4.130   2.153  0.2939  0.4400 -0.5905
 5945TIP3    H139326   5.537   4.128   2.134  0.2764 -1.5274 -0.5874
 5945TIP3    H239327   5.438   4.155   2.245  0.9809 -2.3046  0.2345
 5946TIP3   OH239328   3.779   0.447   4.726  0.8040  0.4225  0.6656
 5946TIP3    H139329   3.711   0.382   4.742  0.2829  0.5450 -1.0064
 5946TIP3    H239330   3.732   0.530   4.720  1.1766  0.6089  0.2828
 5947TIP3   OH239331   3.403   5.191  13.814 -0.3850  0.5596  0.8866
 5947TIP3    H139332   3.329   5.227  13.863  0.0748  3.5397 -0.4553
 5947TIP3    H239333   3.363   5.129  13.753 -1.5367  0.5074  1.6826
 5948TIP3   OH239334   2.047   0.383   5.413  0.0834 -0.3950  0.4514
 5948TIP3    H139335   2.049   0.472   5.447  3.4538 -0.0345 -0.5404
 5948TIP3    H239336   2.088   0.331   5.482 -1.7314 -1.1915  0.9594
 5949TIP3   OH239337   5.181   6.065  17.191  0.3311 -0.2678  0.5346
 5949TIP3    H139338   5.144   6.078  17.104 -1.2754  0.8732  1.3607
 5949TIP3    H239339   5.274   6.081  17.180 -0.0376  1.0968 -0.7187
 5950TIP3   OH239340   5.712   0.533   3.398  0.4795  0.7701 -0.0477
 5950TIP3    H139341   5.672   0.450   3.425  0.1284  1.3833  1.3930
 5950TIP3    H239342   5.670   0.598   3.454  0.3412  1.9931 -1.5727
 5951TIP3   OH239343   3.705   6.206   6.373  0.3225 -0.0440 -0.4279
 5951TIP3    H139344   3.664   6.185   6.289  0.1810 -2.0302  0.1267
 5951TIP3    H239345   3.717   6.122   6.416  2.0348  0.8062  0.8078
 5952TIP3   OH239346   4.823   5.614   5.336 -0.0144  0.5372 -0.3445
 5952TIP3    H139347   4.828   5.523   5.308 -1.8392  0.5640 -0.8516
 5952TIP3    H239348   4.826   5.610   5.432  0.2877 -0.0217 -0.3768
 5953TIP3   OH239349   6.819   1.989   0.934 -0.2559  0.1656 -0.1001
 5953TIP3    H139350   6.796   1.897   0.920 -0.0126  0.2861 -1.4243
 5953TIP3    H239351   6.801   2.031   0.849  1.2409  1.0086 -0.0153
 5954TIP3   OH239352   4.976   3.331   1.502 -0.1306 -0.2223  0.0516
 5954TIP3    H139353   4.996   3.377   1.584 -0.9535 -2.0069  1.2948
 5954TIP3    H239354   4.980   3.238   1.526  0.3171 -0.7674 -2.1135
 5955TIP3   OH239355   2.138   5.304  10.527  0.0461 -0.6047  0.0053
 5955TIP3    H139356   2.220   5.283  10.482  0.4843  0.9424  0.0689
 5955TIP3    H239357   2.133   5.399  10.525 -1.1772 -0.6360  1.0342
 5956TIP3   OH239358   4.385   0.675  12.235  0.2239  0.2597 -0.0350
 5956TIP3    H139359   4.415   0.589  12.266 -0.7064 -0.5048 -1.2398
 5956TIP3    H239360   4.432   0.738  12.291 -1.7426 -1.0715  3.2470
 5957TIP3   OH239361   2.281   1.968  11.824  0.4272 -0.4171  0.0602
 5957TIP3    H139362   2.293   1.897  11.887  1.4349 -0.8445 -0.5874
 5957TIP3    H239363   2.370   1.995  11.801  0.0889 -0.3348 -1.2288
 5958TIP3   OH239364   3.015   5.852   5.308 -0.0928 -0.6583  0.0507
 5958TIP3    H139365   2.973   5.769   5.288 -1.5359 -0.2495  1.3073
 5958TIP3    H239366   3.108   5.831   5.318 -0.1886 -1.8072 -1.3629
 5959TIP3   OH239367   0.838   6.284  14.240 -0.4204  0.7441 -0.0962
 5959TIP3    H139368   0.813   6.256  14.328 -0.7481  0.2884 -0.3325
 5959TIP3    H239369   0.828   6.205  14.186  0.1189  0.9294 -0.4728
 5960TIP3   OH239370   1.434   0.652   6.188 -0.4678  0.5641 -0.2027
 5960TIP3    H139371   1.357   0.693   6.226 -0.3051  1.5656 -0.9432
 5960TIP3    H239372   1.461   0.711   6.117  0.6026 -0.0925 -0.3594
 5961TIP3   OH239373   4.493   4.729  14.120 -0.1820  0.3170 -0.1518
 5961TIP3    H139374   4.511   4.653  14.064 -0.7439  0.1368 -0.0949
 5961TIP3    H239375   4.472   4.799  14.058 -0.5039  0.1976 -0.1817
 5962TIP3   OH239376   1.021   2.158   4.318  0.9442 -0.6844 -0.4047
 5962TIP3    H139377   1.098   2.178   4.371  2.1551 -3.0178 -1.1960
 5962TIP3    H239378   0.969   2.098   4.372 -0.1792  0.6139 -0.0089
 5963TIP3   OH239379   6.794   1.790  15.318 -0.2260 -0.2191 -0.1485
 5963TIP3    H139380   6.722   1.841  15.281 -0.7949  0.3301  1.6654
 5963TIP3    H239381   6.773   1.699  15.296 -1.8822 -0.1383  0.9946
 5964TIP3   OH239382   0.152   6.298   2.869  0.0143  0.3592 -0.1768
 5964TIP3    H139383   0.129   6.391   2.864  1.1703  0.6890  0.5415
 5964TIP3    H239384   0.199   6.280   2.788 -0.0739  0.4426 -0.2457
 5965TIP3   OH239385   1.260   4.603  15.302 -0.0111  0.5520  0.2256
 5965TIP3    H139386   1.172   4.575  15.276 -0.0589 -0.3106  1.2931
 5965TIP3    H239387   1.261   4.697  15.283 -0.3548  0.1414 -1.9749
 5966TIP3   OH239388   4.498   0.584  15.236  0.4938  0.0058  0.3525
 5966TIP3    H139389   4.494   0.555  15.145  0.6966 -0.9862  0.6582
 5966TIP3    H239390   4.531   0.674  15.231 -4.0180  1.7412 -0.9029
 5967TIP3   OH239391   4.202   0.021  12.907  0.9528 -0.3304  0.0827
 5967TIP3    H139392   4.168   0.102  12.944 -1.4667 -1.0909 -0.3647
 5967TIP3    H239393   4.281   0.003  12.958 -0.1434  0.7072  2.2320
 5968TIP3   OH239394   6.502   0.078  15.170 -0.0954  0.2370  0.2758
 5968TIP3    H139395   6.481   0.082  15.263  2.0257 -0.2987  0.8164
 5968TIP3    H239396   6.588   0.121  15.163  0.1217 -0.4196 -1.3134
 5969TIP3   OH239397   4.085   3.016  12.470 -0.0287  0.0242  0.2048
 5969TIP3    H139398   4.135   2.986  12.394 -0.6880 -0.2180 -0.1447
 5969TIP3    H239399   4.151   3.040  12.535  0.5462  0.5771 -0.5816
 5970TIP3   OH239400   4.743   3.497   1.393 -0.1309  0.4600  0.5487
 5970TIP3    H139401   4.823   3.474   1.439 -0.4918 -1.7830  0.1180
 5970TIP3    H239402   4.733   3.429   1.326 -0.5494  2.6259 -1.7054
 5971TIP3   OH239403   0.239   5.278  12.135  0.5486 -0.1406  0.2134
 5971TIP3    H139404   0.293   5.321  12.069 -0.0005  1.8404  1.0266
 5971TIP3    H239405   0.301   5.244  12.199  1.0766 -1.9470 -1.2135
 5972TIP3   OH239406   4.799   5.343   0.732 -0.0942  0.2652  0.2863
 5972TIP3    H139407   4.797   5.293   0.814 -0.6199 -0.4504 -0.1557
 5972TIP3    H239408   4.773   5.280   0.665 -1.5918  1.3378 -0.1751
 5973TIP3   OH239409   5.152   5.100   4.218 -0.0417  0.2207 -0.1981
 5973TIP3    H139410   5.155   5.104   4.314 -0.1390  0.0500 -0.1877
 5973TIP3    H239411   5.071   5.053   4.199  1.4716 -2.4612 -0.2850
 5974TIP3   OH239412   2.326   2.324   2.043  0.0054 -0.2060  0.4713
 5974TIP3    H139413   2.280   2.265   1.983 -0.6770  2.2612 -1.5080
 5974TIP3    H239414   2.418   2.317   2.018 -0.0898 -0.3338  0.1561
 5975TIP3   OH239415   4.263   5.833   1.190 -0.1084  0.3012 -0.7585
 5975TIP3    H139416   4.276   5.798   1.102  0.3320  0.0628 -0.5975
 5975TIP3    H239417   4.279   5.759   1.248 -1.3173  0.2147 -0.5135
 5976TIP3   OH239418   1.510   0.854  16.042  0.4040  0.0153 -0.0430
 5976TIP3    H139419   1.518   0.760  16.026 -1.4236 -0.1200 -0.2237
 5976TIP3    H239420   1.566   0.894  15.975  0.5659 -0.9107 -0.4680
 5977TIP3   OH239421   2.085   4.780   6.551 -0.0160 -0.1537 -0.1347
 5977TIP3    H139422   2.078   4.730   6.632 -1.6818 -0.9877 -0.7690
 5977TIP3    H239423   1.998   4.818   6.538  0.0189 -0.5878 -1.8635
 5978TIP3   OH239424   0.508   6.084   5.848 -0.1141 -0.4517 -0.2760
 5978TIP3    H139425   0.557   6.009   5.815  0.5716 -0.3471  0.4979
 5978TIP3    H239426   0.561   6.160   5.825 -0.4691 -0.2527 -0.4458
 5979TIP3   OH239427   0.373   3.834   1.309  0.4714  0.3791  0.3466
 5979TIP3    H139428   0.286   3.795   1.301 -0.5125  2.6537 -0.1941
 5979TIP3    H239429   0.426   3.787   1.244 -0.3104 -1.0487  0.7082
 5980TIP3   OH239430   6.145   2.852   4.515  0.1549 -0.1850 -0.4395
 5980TIP3    H139431   6.168   2.929   4.465  1.5299 -1.5312 -1.9425
 5980TIP3    H239432   6.077   2.808   4.463  0.9589 -1.1271 -0.7181
 5981TIP3   OH239433   4.712   1.629  12.474 -0.1850  0.0732 -0.3901
 5981TIP3    H139434   4.788   1.634  12.533  0.9119 -1.2146 -1.6703
 5981TIP3    H239435   4.749   1.604  12.390 -2.1221 -1.1100 -0.9043
 5982TIP3   OH239436   6.315   2.747  11.445  0.2248  0.1663 -0.4453
 5982TIP3    H139437   6.374   2.785  11.379  0.8708  0.9810  0.5740
 5982TIP3    H239438   6.300   2.819  11.507 -1.9604  0.0079 -0.7674
 5983TIP3   OH239439   4.259   1.101   3.500 -0.2148 -0.8686  0.1883
 5983TIP3    H139440   4.306   1.069   3.423  1.9586 -0.0609  1.1349
 5983TIP3    H239441   4.265   1.028   3.563  1.0610 -0.2509  0.8159
 5984TIP3   OH239442   6.016   4.355   2.558  0.2778  0.0166 -0.3153
 5984TIP3    H139443   5.967   4.409   2.621 -0.0196  0.5773 -1.0185
 5984TIP3    H239444   6.107   4.383   2.568  0.2539  0.0001 -0.0315
 5985TIP3   OH239445   5.117   6.021  16.656  0.0628  0.1740 -0.6274
 5985TIP3    H139446   5.080   5.933  16.654  0.1526  0.1384 -0.7764
 5985TIP3    H239447   5.182   6.021  16.586  0.7170  0.0803 -0.0202
 5986TIP3   OH239448   0.566   3.598  15.327  0.2761  0.0637 -0.0760
 5986TIP3    H139449   0.634   3.643  15.276 -1.2147  0.2032 -1.9847
 5986TIP3    H239450   0.613   3.527  15.372  2.2443  2.0405  1.1489
 5987TIP3   OH239451   3.815   5.404   5.954 -0.0943 -0.4006 -0.1294
 5987TIP3    H139452   3.849   5.355   5.879  0.4462  0.3487 -0.3741
 5987TIP3    H239453   3.825   5.343   6.028 -1.3884 -1.4331 -0.7977
 5988TIP3   OH239454   3.928   6.633  17.224 -0.4499 -0.3393 -0.6406
 5988TIP3    H139455   3.854   6.692  17.211 -1.6792 -1.6127  0.5027
 5988TIP3    H239456   3.998   6.672  17.172 -0.9632  2.5921  0.7532
 5989TIP3   OH239457   2.288   1.197   2.490 -0.1654 -0.0657  0.8350
 5989TIP3    H139458   2.223   1.261   2.462  0.3761  0.7102  1.3364
 5989TIP3    H239459   2.315   1.153   2.409 -1.2096 -0.3058  0.6056
 5990TIP3   OH239460   4.947   4.093   0.033 -0.0392  0.2934  0.3846
 5990TIP3    H139461   5.023   4.035   0.030  0.3489  0.8188 -0.2806
 5990TIP3    H239462   4.933   4.111   0.126  1.1596  0.8475  0.4674
 5991TIP3   OH239463   5.024   5.194  14.323 -0.2610  0.4310 -0.7123
 5991TIP3    H139464   4.988   5.114  14.360  0.5385  1.5447  2.5772
 5991TIP3    H239465   5.097   5.165  14.268  0.2110 -1.0895  0.6838
 5992TIP3   OH239466   4.115   1.221   0.704  0.2691  0.1980  0.1333
 5992TIP3    H139467   4.173   1.172   0.762  0.4569 -0.7446 -0.8320
 5992TIP3    H239468   4.166   1.233   0.624 -0.8425 -0.5976 -0.7090
 5993TIP3   OH239469   2.352   6.763   2.552 -0.1737  0.0334  0.0764
 5993TIP3    H139470   2.445   6.779   2.539 -0.3917 -0.6233 -2.4363
 5993TIP3    H239471   2.312   6.850   2.545  0.1204  0.1610 -0.0451
 5994TIP3   OH239472   5.812   5.966  15.649  0.0402  0.6720 -0.7208
 5994TIP3    H139473   5.776   5.940  15.564  0.1743  1.4015 -1.0052
 5994TIP3    H239474   5.740   5.955  15.710 -0.9436  2.9017 -1.4183
 5995TIP3   OH239475   4.946   2.711   4.971  0.1349 -0.0067  0.1224
 5995TIP3    H139476   4.949   2.795   5.017  0.1196  0.8633 -1.4367
 5995TIP3    H239477   5.033   2.674   4.986  0.4855  0.7423  0.0112
 5996TIP3   OH239478   2.186   2.630   1.552 -0.1054  0.6913  0.0498
 5996TIP3    H139479   2.162   2.705   1.497 -0.7340 -0.4349 -1.2482
 5996TIP3    H239480   2.262   2.592   1.507 -2.1890 -1.7691 -1.5281
 5997TIP3   OH239481   5.879   3.787  12.093 -0.3187 -0.2739 -0.0586
 5997TIP3    H139482   5.929   3.770  12.014  1.3178 -0.1091  0.9272
 5997TIP3    H239483   5.889   3.881  12.108  0.2377 -0.4784  0.9026
 5998TIP3   OH239484   4.074   6.530  16.215 -0.3932 -0.4008  0.1078
 5998TIP3    H139485   4.105   6.610  16.257  0.0602 -0.3486 -0.3244
 5998TIP3    H239486   4.141   6.465  16.234 -0.1456 -0.3543 -0.6014
 5999TIP3   OH239487   2.032   4.984  16.189  0.3529 -0.0127 -0.5242
 5999TIP3    H139488   1.983   4.986  16.107 -1.0530 -0.3669  0.2888
 5999TIP3    H239489   2.076   4.899  16.187 -0.1531 -0.2749 -0.6376
 6000TIP3   OH239490   3.877   4.771   6.682  0.2893 -0.3691  0.0415
 6000TIP3    H139491   3.951   4.713   6.701  0.0948 -0.9993 -1.0924
 6000TIP3    H239492   3.913   4.859   6.688  1.2408 -0.6845 -0.9504
 6001TIP3   OH239493   6.486   6.803   1.880 -0.3874 -0.5109  0.1688
 6001TIP3    H139494   6.534   6.880   1.911 -0.8344  0.7189 -2.0469
 6001TIP3    H239495   6.395   6.819   1.905 -0.8852  0.8651 -2.3427
 6002TIP3   OH239496   0.194   6.281   5.833  0.1787  0.4117  0.0892
 6002TIP3    H139497   0.166   6.370   5.853  0.4074  0.2808  1.0190
 6002TIP3    H239498   0.223   6.246   5.917  2.0830  0.1753 -0.6446
 6003TIP3   OH239499   0.859   6.108  15.596 -0.3580  0.1585 -0.0375
 6003TIP3    H139500   0.940   6.074  15.632 -0.8094  0.3354  1.1660
 6003TIP3    H239501   0.820   6.034  15.549 -0.8763 -0.7330  1.7632
 6004TIP3   OH239502   4.949   5.212  15.663  0.2367 -0.0109  0.1966
 6004TIP3    H139503   4.891   5.194  15.737  0.0355 -1.2372 -0.2390
 6004TIP3    H239504   4.941   5.306  15.647 -0.6794  0.0375  0.9224
 6005TIP3   OH239505   5.862   4.788  10.883  0.0485 -0.4552 -0.0309
 6005TIP3    H139506   5.771   4.800  10.857  0.6189 -0.5078 -2.1359
 6005TIP3    H239507   5.904   4.872  10.866  0.4551 -0.5088  0.6782
 6006TIP3   OH239508   3.614   4.539  12.802  0.0307 -0.2010  0.0264
 6006TIP3    H139509   3.607   4.540  12.707  1.3258 -0.3125 -0.0716
 6006TIP3    H239510   3.629   4.631  12.826 -0.6177 -0.1231  0.1610
 6007TIP3   OH239511   4.031   2.564   4.920 -0.3058  0.4131 -0.3935
 6007TIP3    H139512   4.104   2.503   4.916 -0.1000  0.6862 -0.8998
 6007TIP3    H239513   4.014   2.588   4.828 -0.0879  1.4618 -0.1697
 6008TIP3   OH239514   5.753   5.022   3.216 -0.2466 -0.6980  0.2118
 6008TIP3    H139515   5.810   5.076   3.272 -0.5770 -0.0859 -0.0417
 6008TIP3    H239516   5.814   4.963   3.171  0.3278  0.7785 -0.9829
 6009TIP3   OH239517   1.792   2.226   3.917  0.3285  0.0713 -0.0717
 6009TIP3    H139518   1.727   2.224   3.847  0.0816 -0.5044  0.1741
 6009TIP3    H239519   1.844   2.147   3.904  0.0508 -0.2245  0.6072
 6010TIP3   OH239520   3.350   0.495  16.212 -0.0374 -0.3153  0.0846
 6010TIP3    H139521   3.346   0.421  16.273 -4.6557 -0.5513 -0.3726
 6010TIP3    H239522   3.360   0.572  16.268  1.3075 -0.9468  0.7490
 6011TIP3   OH239523   4.702   0.045   2.022 -0.7771  0.4911 -0.0811
 6011TIP3    H139524   4.708  -0.042   1.984  0.7277 -0.1738  1.6069
 6011TIP3    H239525   4.704   0.105   1.947  1.7291 -0.7967 -1.1024
 6012TIP3   OH239526   1.746   4.180  16.141 -0.6740  0.2821  0.2580
 6012TIP3    H139527   1.684   4.252  16.132  0.5766  1.4235  0.6175
 6012TIP3    H239528   1.763   4.151  16.051  0.4084  1.8438 -0.0770
 6013TIP3   OH239529   4.964   3.697   0.010  0.1623  0.8356 -0.8442
 6013TIP3    H139530   4.943   3.612  -0.028 -2.1685  0.6740  0.7059
 6013TIP3    H239531   4.884   3.748  -0.000 -0.5098  0.8654  3.4929
 6014TIP3   OH239532   4.886   1.020  12.023  0.0562  0.5783  0.2022
 6014TIP3    H139533   4.850   0.950  11.968 -1.3639  1.1381  0.3915
 6014TIP3    H239534   4.943   0.974  12.085 -1.4464 -0.5122  0.8076
 6015TIP3   OH239535   0.538   6.017   0.616  0.2228  0.4672  0.1368
 6015TIP3    H139536   0.459   5.963   0.610 -0.3191  1.3636 -1.2246
 6015TIP3    H239537   0.570   6.003   0.705 -1.7347  0.4277  0.8716
 6016TIP3   OH239538   1.208   2.246   4.477  0.1348  0.1666 -0.1005
 6016TIP3    H139539   1.296   2.239   4.513  0.7430  0.8701 -1.4089
 6016TIP3    H239540   1.193   2.340   4.469 -0.9581  0.0614  0.6236
 6017TIP3   OH239541   6.722   6.454   3.090  0.1833  0.1917  0.6237
 6017TIP3    H139542   6.807   6.415   3.110  0.0081  0.6450  2.3267
 6017TIP3    H239543   6.742   6.523   3.026  0.8309 -0.9516 -0.4261
 6018TIP3   OH239544   5.675   1.061   2.302  0.7124  0.2087  0.1993
 6018TIP3    H139545   5.647   1.124   2.369  0.9090  1.3422 -0.7666
 6018TIP3    H239546   5.644   1.098   2.220 -1.0277 -2.0279 -0.2174
 6019TIP3   OH239547   5.698   2.319  12.536  0.0802  0.0331 -0.0999
 6019TIP3    H139548   5.639   2.384  12.576 -0.0389  0.1462 -0.4629
 6019TIP3    H239549   5.780   2.328  12.585 -0.1447  0.0046  0.2833
 6020TIP3   OH239550   2.512   0.633  15.177  0.2190  0.3494 -0.2163
 6020TIP3    H139551   2.435   0.624  15.121  0.9845 -0.3847 -1.1622
 6020TIP3    H239552   2.477   0.663  15.261 -1.0140  0.7305 -0.8588
 6021TIP3   OH239553   1.067   4.789  14.242 -0.1561  0.0627 -0.5487
 6021TIP3    H139554   1.066   4.694  14.235 -0.5893 -0.0953  1.4189
 6021TIP3    H239555   0.977   4.813  14.265  0.5476  0.7046  1.6612
 6022TIP3   OH239556   3.916   6.210   5.349 -0.3056  0.1733 -0.3493
 6022TIP3    H139557   3.940   6.297   5.316 -1.4633  0.1096 -1.3995
 6022TIP3    H239558   3.857   6.228   5.423 -1.5105  0.2801 -1.3261
 6023TIP3   OH239559   6.308   1.436   4.585  0.0754  0.4256  0.2700
 6023TIP3    H139560   6.277   1.465   4.500 -2.3418  0.3292  1.0740
 6023TIP3    H239561   6.383   1.379   4.566 -0.8506 -0.1390 -1.8268
 6024TIP3   OH239562   0.157   1.501  12.071 -0.5911  0.1072 -0.0002
 6024TIP3    H139563   0.117   1.433  12.018  0.2051 -0.9689  0.7651
 6024TIP3    H239564   0.251   1.488  12.061 -0.4324  0.3055  1.1361
 6025TIP3   OH239565   2.973   3.533  14.080 -0.0200  0.2649  0.1005
 6025TIP3    H139566   2.972   3.446  14.039  0.6670  0.0759  0.4860
 6025TIP3    H239567   3.004   3.591  14.010  1.9104 -0.1739  0.5611
 6026TIP3   OH239568   5.292   0.475   3.125 -0.6003 -0.0430 -0.0483
 6026TIP3    H139569   5.316   0.386   3.151 -1.8887 -0.6565 -0.9200
 6026TIP3    H239570   5.363   0.529   3.159  0.8766 -1.5509 -0.6425
 6027TIP3   OH239571   3.560   1.141  11.633  0.0011 -0.4913 -0.3907
 6027TIP3    H139572   3.486   1.084  11.612 -0.4225 -0.3604  0.6955
 6027TIP3    H239573   3.531   1.190  11.710 -0.4160  2.6704 -2.5038
 6028TIP3   OH239574   6.229   0.361   1.294  0.0961 -0.9203  0.4079
 6028TIP3    H139575   6.265   0.446   1.317 -2.2290 -0.1937  1.5370
 6028TIP3    H239576   6.209   0.368   1.200 -0.2493 -0.1570  0.5353
 6029TIP3   OH239577   5.192   3.166  15.524 -0.2799  0.1639 -0.5288
 6029TIP3    H139578   5.278   3.174  15.483 -0.0326  0.0680 -0.0249
 6029TIP3    H239579   5.202   3.206  15.610 -0.5070 -0.6298 -0.1275
 6030TIP3   OH239580   5.838   0.794  11.174 -0.6666  0.3044  0.1420
 6030TIP3    H139581   5.786   0.857  11.224 -0.2918  0.0384  0.8758
 6030TIP3    H239582   5.928   0.815  11.196 -0.4589  0.8069 -1.1857
 6031TIP3   OH239583   4.283   6.808  11.659  0.0477 -0.9024  0.8712
 6031TIP3    H139584   4.302   6.826  11.751  0.5705 -1.7283  0.9294
 6031TIP3    H239585   4.206   6.861  11.639  1.8781  1.8687  0.8518
 6032TIP3   OH239586   1.494   2.510  14.985  0.3923  0.0855  0.3746
 6032TIP3    H139587   1.552   2.567  14.934 -2.0006  1.6946 -0.6657
 6032TIP3    H239588   1.532   2.508  15.072  1.2117  2.3038  0.0947
 6033TIP3   OH239589   3.015   5.471  11.844  0.2262 -0.0992 -0.0829
 6033TIP3    H139590   3.019   5.376  11.852 -0.7710 -0.2846 -1.5060
 6033TIP3    H239591   3.007   5.503  11.933 -2.0210 -1.5043  0.2660
 6034TIP3   OH239592   0.134   2.181  11.936  0.1579  0.4060 -0.5093
 6034TIP3    H139593   0.177   2.264  11.918 -0.2253  0.9153  0.9013
 6034TIP3    H239594   0.112   2.184  12.029 -0.2065 -1.1078 -0.5287
 6035TIP3   OH239595   1.623   5.637   2.821  0.8993  0.1912  0.2488
 6035TIP3    H139596   1.688   5.577   2.783  0.2400 -0.4163  0.0589
 6035TIP3    H239597   1.597   5.693   2.748 -1.4935 -1.9674 -0.6381
 6036TIP3   OH239598   0.497   4.731   1.307  0.2363 -0.0723 -0.4395
 6036TIP3    H139599   0.495   4.787   1.229 -0.8109 -0.7192 -0.8871
 6036TIP3    H239600   0.408   4.697   1.314 -0.1053  1.2334  1.9648
 6037TIP3   OH239601   3.676   3.339  12.447 -0.5730 -0.5050  0.2888
 6037TIP3    H139602   3.729   3.400  12.498  0.1153  0.2286 -1.2842
 6037TIP3    H239603   3.716   3.254  12.463  0.9745  0.0102 -0.7211
 6038TIP3   OH239604   4.798   4.445   5.223 -0.3128  0.3459  0.1065
 6038TIP3    H139605   4.794   4.495   5.305  0.4591 -0.4443  0.6299
 6038TIP3    H239606   4.717   4.468   5.177 -2.1353 -1.3806  2.3533
 6039TIP3   OH239607   0.186   5.673  14.359 -0.4106  0.0745  0.1969
 6039TIP3    H139608   0.111   5.620  14.333  2.5090 -3.8757 -0.5576
 6039TIP3    H239609   0.234   5.688  14.278  0.8255  0.5650  1.0086
 6040TIP3   OH239610   3.520   2.299   3.312  0.2617 -0.3415  0.0233
 6040TIP3    H139611   3.484   2.328   3.395  1.9100  0.5274  0.4663
 6040TIP3    H239612   3.500   2.205   3.308  1.4042 -0.6954  2.0640
 6041TIP3   OH239613   6.128   6.440  16.796  0.1002 -0.1621 -0.1807
 6041TIP3    H139614   6.084   6.400  16.871 -3.0142 -0.2873 -2.0424
 6041TIP3    H239615   6.174   6.368  16.753 -0.3074 -0.5676  0.0662
 6042TIP3   OH239616   0.816   3.716   2.208  0.0987 -0.1519 -0.3081
 6042TIP3    H139617   0.911   3.731   2.204  0.0663 -0.0487 -0.6762
 6042TIP3    H239618   0.799   3.698   2.300  0.1286  2.0632  0.1402
 6043TIP3   OH239619   2.754   5.713  13.615  0.1650 -0.5258 -0.0372
 6043TIP3    H139620   2.710   5.756  13.541 -0.8966 -0.3247  0.6996
 6043TIP3    H239621   2.687   5.657  13.653  0.5258 -0.1749  1.1415
 6044TIP3   OH239622   0.993   3.487   1.917  0.0983  0.0354  0.2136
 6044TIP3    H139623   1.014   3.394   1.927  0.8341  0.1523 -0.2550
 6044TIP3    H239624   1.024   3.527   1.998 -1.9786 -0.4145  1.2913
 6045TIP3   OH239625   2.143   1.202  12.473  0.3428 -0.0026 -0.3989
 6045TIP3    H139626   2.075   1.217  12.408 -0.2685 -2.9925 -0.5224
 6045TIP3    H239627   2.155   1.287  12.516 -1.6250  1.1798 -2.1177
 6046TIP3   OH239628   4.134   0.644  10.806  1.0432  0.2159 -0.4935
 6046TIP3    H139629   4.209   0.631  10.864  0.1575 -0.0554  0.6223
 6046TIP3    H239630   4.096   0.728  10.835  0.3688 -0.1108 -0.4095
 6047TIP3   OH239631   6.178   1.170  14.866  0.6182  0.7058  0.0819
 6047TIP3    H139632   6.203   1.193  14.955 -1.5005  1.5047  0.5047
 6047TIP3    H239633   6.235   1.097  14.843  1.0890  0.3892  2.1489
 6048TIP3   OH239634   4.615   5.712  14.379 -0.1052  0.1138  0.2919
 6048TIP3    H139635   4.547   5.752  14.325  0.0783  0.4705  0.3196
 6048TIP3    H239636   4.569   5.646  14.431 -0.8811  1.9604  2.0362
 6049TIP3   OH239637   5.115   6.581   1.540 -0.1839  0.2741 -0.1418
 6049TIP3    H139638   5.149   6.651   1.484  0.2854 -0.2022 -0.4771
 6049TIP3    H239639   5.092   6.511   1.478 -1.7550  0.5743  0.0930
 6050TIP3   OH239640   5.076   0.847   6.103  0.0571  0.0782 -0.0528
 6050TIP3    H139641   5.086   0.789   6.180 -1.4451 -0.0338  0.0696
 6050TIP3    H239642   5.119   0.928   6.129  1.6574 -0.7559  0.0068
 6051TIP3   OH239643   3.988   2.971   5.129 -0.4262  0.5744 -0.0641
 6051TIP3    H139644   3.946   2.923   5.059  1.9661 -0.2389 -0.9790
 6051TIP3    H239645   4.070   2.925   5.145 -0.2523  1.5936  2.2772
 6052TIP3   OH239646   0.863   0.450   4.461 -0.7708  0.3884 -0.0772
 6052TIP3    H139647   0.815   0.439   4.543  0.5618  0.2124  0.6835
 6052TIP3    H239648   0.857   0.543   4.441 -4.6262 -0.1529 -1.9734
 6053TIP3   OH239649   4.572   5.584  10.522 -0.0187 -0.5267 -0.0826
 6053TIP3    H139650   4.501   5.616  10.579 -0.1656  0.2599 -0.7051
 6053TIP3    H239651   4.640   5.650  10.528 -0.0895 -0.3685 -0.9357
 6054TIP3   OH239652   2.454   2.636  16.768 -0.5135 -0.4535  0.1485
 6054TIP3    H139653   2.504   2.658  16.847 -0.4915  0.9907 -0.2530
 6054TIP3    H239654   2.501   2.562  16.730  0.8811  0.3930  0.1895
 6055TIP3   OH239655   1.869   3.059  14.197  0.5011 -0.3249  0.4696
 6055TIP3    H139656   1.870   2.965  14.211  0.3020 -0.3896  0.0692
 6055TIP3    H239657   1.789   3.090  14.238 -0.2034 -0.5465 -0.7136
 6056TIP3   OH239658   3.408   3.338  14.407 -0.4421 -0.3032 -0.0837
 6056TIP3    H139659   3.487   3.378  14.372  0.2262 -0.0841  1.6257
 6056TIP3    H239660   3.387   3.268  14.346  0.5293  0.2362 -1.0550
 6057TIP3   OH239661   0.977   0.194   1.803  0.2997  0.0850 -0.6027
 6057TIP3    H139662   1.014   0.257   1.741 -0.9732  0.2612 -1.1786
 6057TIP3    H239663   0.981   0.110   1.757 -1.1318  0.3026 -1.1272
 6058TIP3   OH239664   2.228   1.411  11.797 -0.5989  0.1912  0.2061
 6058TIP3    H139665   2.184   1.355  11.861 -1.2522  0.7145  0.2152
 6058TIP3    H239666   2.244   1.353  11.723  0.0663 -0.3912  0.7941
 6059TIP3   OH239667   4.187   1.401  14.170  0.8965 -0.0041  0.6791
 6059TIP3    H139668   4.100   1.363  14.183  1.6844 -2.4468 -0.9227
 6059TIP3    H239669   4.201   1.398  14.075  2.5987  0.6707  0.8933
 6060TIP3   OH239670   0.488   3.718  11.130 -0.3035 -0.6614  0.3419
 6060TIP3    H139671   0.533   3.645  11.173  0.6863 -0.9841 -1.2025
 6060TIP3    H239672   0.397   3.690  11.123  0.4487 -2.6711 -2.1001
 6061TIP3   OH239673   6.421   0.330  16.524 -0.1053 -0.4515 -0.4144
 6061TIP3    H139674   6.335   0.294  16.504 -0.0365 -0.8899  0.0586
 6061TIP3    H239675   6.481   0.286  16.464 -0.0864 -0.8067 -0.1400
 6062TIP3   OH239676   1.262   2.372   4.056  0.1631  0.4220 -0.0440
 6062TIP3    H139677   1.195   2.306   4.039  0.4834  0.4894 -1.6117
 6062TIP3    H239678   1.221   2.433   4.116 -1.1295  0.3725 -0.8655
 6063TIP3   OH239679   0.610   3.339  13.332 -0.5037  0.3693 -0.1561
 6063TIP3    H139680   0.618   3.265  13.271 -0.9754 -0.5372  0.8540
 6063TIP3    H239681   0.652   3.412  13.288 -0.2347 -0.4565 -1.2748
 6064TIP3   OH239682   0.994   2.929   4.580  0.0085 -1.0258 -0.0645
 6064TIP3    H139683   0.900   2.939   4.564  0.2795 -0.7726 -1.5261
 6064TIP3    H239684   1.036   2.967   4.503  1.3924  1.5589  1.8728
 6065TIP3   OH239685   3.719   6.713   3.311 -0.7285  0.0439 -0.1452
 6065TIP3    H139686   3.650   6.718   3.377 -0.5818  1.2865 -0.0600
 6065TIP3    H239687   3.675   6.735   3.229 -0.5927  0.1001 -0.2035
 6066TIP3   OH239688   1.960   2.493  13.681 -0.1021  0.1597  0.6610
 6066TIP3    H139689   1.962   2.509  13.775  0.3027 -0.5797  0.7765
 6066TIP3    H239690   1.983   2.401  13.671 -0.5148  0.1343 -0.1398
 6067TIP3   OH239691   5.725   1.280   4.287 -0.0151  0.5269 -0.6145
 6067TIP3    H139692   5.802   1.230   4.260  0.8661  2.7379 -2.3293
 6067TIP3    H239693   5.655   1.215   4.296  2.3592 -1.7536  2.4952
 6068TIP3   OH239694   3.932   4.741   0.004  0.1169  0.2166 -0.1166
 6068TIP3    H139695   3.838   4.755   0.012 -0.0095 -0.4337 -0.4451
 6068TIP3    H239696   3.943   4.646   0.007  0.8499  0.3291  0.8782
 6069TIP3   OH239697   2.073   6.005   5.712  0.2671  0.8274  0.2562
 6069TIP3    H139698   2.136   6.051   5.767 -0.3560  1.4281  0.4655
 6069TIP3    H239699   2.085   6.041   5.624 -0.2708  1.4382  0.4343
 6070TIP3   OH239700   6.548   2.036  12.162 -0.0830 -0.2060  0.1049
 6070TIP3    H139701   6.587   2.117  12.193 -0.1874 -0.5585  1.1913
 6070TIP3    H239702   6.621   1.986  12.127  0.3698 -0.5994  1.5555
 6071TIP3   OH239703   3.912   1.351   2.428 -0.7535 -0.1090 -0.5424
 6071TIP3    H139704   3.891   1.371   2.337 -0.4021 -1.1121 -0.8594
 6071TIP3    H239705   3.828   1.347   2.472 -0.8812  1.0894 -0.6632
 6072TIP3   OH239706   1.015   5.515   2.339  0.1062  0.2327 -0.4761
 6072TIP3    H139707   1.047   5.527   2.428 -0.0338 -0.2098 -0.3652
 6072TIP3    H239708   0.921   5.536   2.344  0.4848  2.1759 -0.9327
 6073TIP3   OH239709   4.329   0.022  15.341 -0.2021  0.3370 -0.2145
 6073TIP3    H139710   4.377   0.030  15.423  2.3372  1.2771 -1.7185
 6073TIP3    H239711   4.397   0.011  15.274 -2.1088  0.9867 -2.3473
 6074TIP3   OH239712   0.741   3.143   0.478  0.0810 -0.5366  0.4545
 6074TIP3    H139713   0.738   3.139   0.573  1.4208 -0.7313  0.4994
 6074TIP3    H239714   0.799   3.217   0.458  1.5379 -1.8117 -0.1732
 6075TIP3   OH239715   5.579   2.816  14.074 -0.2017  0.4010 -0.0719
 6075TIP3    H139716   5.648   2.835  14.137 -1.4725  1.1919  1.1322
 6075TIP3    H239717   5.499   2.811  14.128 -0.9752 -1.1540 -1.3337
 6076TIP3   OH239718   0.277   0.493  13.986  0.0097  0.4612 -0.1777
 6076TIP3    H139719   0.340   0.447  14.042 -0.6860 -2.8595 -1.9947
 6076TIP3    H239720   0.206   0.518  14.045 -0.0404 -1.6916  0.7203
 6077TIP3   OH239721   5.361   1.233  15.088  0.2305  0.0175  0.3667
 6077TIP3    H139722   5.325   1.283  15.015  0.1130  0.7575  0.9231
 6077TIP3    H239723   5.414   1.296  15.137 -1.7059  0.2051  2.3231
 6078TIP3   OH239724   3.351   3.629   5.183  0.6597  0.7507  0.2528
 6078TIP3    H139725   3.351   3.626   5.278 -1.1765  2.6923  0.3673
 6078TIP3    H239726   3.291   3.560   5.156 -1.0432  2.0306  0.6571
 6079TIP3   OH239727   1.146   2.794   1.721  0.3333  0.5414 -0.4324
 6079TIP3    H139728   1.108   2.740   1.652  0.5622  0.6976 -0.6820
 6079TIP3    H239729   1.078   2.858   1.741  0.2748  0.5106 -0.5306
 6080TIP3   OH239730   1.714   0.993  12.463 -0.5679 -0.1359  0.0277
 6080TIP3    H139731   1.712   0.902  12.494 -0.4186 -0.3554 -0.5918
 6080TIP3    H239732   1.767   0.990  12.383 -0.2245  0.5695  0.2321
 6081TIP3   OH239733   6.424   3.292   3.587  0.2233  0.0717 -0.2064
 6081TIP3    H139734   6.462   3.348   3.655 -0.1049 -0.5005  0.4560
 6081TIP3    H239735   6.358   3.346   3.545  1.9398  1.1627 -1.5369
 6082TIP3   OH239736   3.206   1.941  14.298  0.1011  0.3854  0.0569
 6082TIP3    H139737   3.194   1.967  14.390 -0.1092  0.2796  0.0567
 6082TIP3    H239738   3.225   1.848  14.302  0.7390  0.5114  0.0450
 6083TIP3   OH239739   5.803   6.737   6.713  0.1914  0.2634  0.6018
 6083TIP3    H139740   5.714   6.715   6.742 -0.3952  3.2789  1.2454
 6083TIP3    H239741   5.824   6.670   6.648 -1.4171 -2.1963  2.5020
 6084TIP3   OH239742   1.662   6.140  16.946  0.0648  0.2667 -0.0328
 6084TIP3    H139743   1.747   6.096  16.942  0.2592  0.5688  0.6451
 6084TIP3    H239744   1.601   6.073  16.979  0.1608  0.2226  0.0544
 6085TIP3   OH239745   2.898   2.617   0.135 -0.1440 -0.6073  0.2506
 6085TIP3    H139746   2.818   2.660   0.105  0.1589 -0.6340 -0.6007
 6085TIP3    H239747   2.877   2.588   0.224 -0.7008  0.3767  0.4504
 6086TIP3   OH239748   0.433   1.143   1.385 -0.5055  0.5740 -0.4353
 6086TIP3    H139749   0.451   1.229   1.347 -1.1038  0.4109 -1.0927
 6086TIP3    H239750   0.422   1.085   1.310  0.0378 -0.1050  0.0122
 6087TIP3   OH239751   0.776   0.840   2.313 -0.1620 -0.6127  0.4237
 6087TIP3    H139752   0.758   0.761   2.263  0.1954 -0.0220 -0.6533
 6087TIP3    H239753   0.869   0.858   2.298 -0.0657 -0.4144  1.2647
 6088TIP3   OH239754   0.674   6.688  15.572 -0.6194  0.1953 -0.3045
 6088TIP3    H139755   0.612   6.667  15.642 -1.8551 -1.0551 -1.7461
 6088TIP3    H239756   0.754   6.642  15.597 -1.6705 -1.8904 -0.6973
 6089TIP3   OH239757   4.351   1.898  14.722  0.3863 -0.2932  0.2154
 6089TIP3    H139758   4.295   1.955  14.775  0.0804 -0.0695 -0.3424
 6089TIP3    H239759   4.437   1.941  14.724 -0.1787  0.9425 -1.3437
 6090TIP3   OH239760   0.547   4.810  14.965  0.1042 -0.4541  0.5549
 6090TIP3    H139761   0.519   4.900  14.983  0.8955 -0.4665  1.9507
 6090TIP3    H239762   0.468   4.765  14.937 -0.3225  0.6555 -0.0457
 6091TIP3   OH239763   2.887   2.257   1.472  0.3300 -0.0946  0.1344
 6091TIP3    H139764   2.826   2.199   1.426 -1.3707 -0.4084  2.6606
 6091TIP3    H239765   2.974   2.225   1.447 -0.4917 -0.0432 -3.0362
 6092TIP3   OH239766   5.648   6.687  16.662  0.2219  0.0366  0.2742
 6092TIP3    H139767   5.729   6.640  16.645  0.1301 -0.1737  0.4175
 6092TIP3    H239768   5.645   6.756  16.595 -0.5660 -1.3257 -1.1286
 6093TIP3   OH239769   3.812   3.652   5.656  0.7598 -0.2084 -0.4726
 6093TIP3    H139770   3.881   3.600   5.698  0.9636  1.2766  1.1023
 6093TIP3    H239771   3.826   3.741   5.688 -0.2605  0.6298 -2.2485
 6094TIP3   OH239772   3.361   0.710  12.544 -1.1929  0.0783  0.1550
 6094TIP3    H139773   3.415   0.750  12.475 -1.0111 -1.2373 -0.4860
 6094TIP3    H239774   3.278   0.758  12.540 -0.8316  0.6780 -0.3132
 6095TIP3   OH239775   5.577   6.252   3.371  0.6610  0.7330  0.6914
 6095TIP3    H139776   5.506   6.254   3.436  1.1875  1.8815  1.2255
 6095TIP3    H239777   5.535   6.279   3.290 -0.0620 -0.9699  0.4699
 6096TIP3   OH239778   3.033   1.385   6.242 -0.0633 -0.4118  0.3678
 6096TIP3    H139779   3.028   1.424   6.330  0.8373 -0.2836  0.3596
 6096TIP3    H239780   3.049   1.459   6.184 -2.1655 -0.2812 -0.0995
 6097TIP3   OH239781   0.178   1.891   2.341 -0.2209 -0.7597 -0.1135
 6097TIP3    H139782   0.128   1.809   2.343  0.1883 -1.0068  0.0353
 6097TIP3    H239783   0.125   1.953   2.392 -0.3913 -1.0124  0.0163
 6098TIP3   OH239784   5.294   5.770   3.512  0.1493 -0.4397 -0.1402
 6098TIP3    H139785   5.336   5.715   3.578  1.1512 -0.1947 -0.5693
 6098TIP3    H239786   5.333   5.856   3.523 -1.4836  0.2324  0.5813
 6099TIP3   OH239787   5.765   4.257   1.266  0.2450  0.4665 -0.2009
 6099TIP3    H139788   5.687   4.312   1.273 -0.1081 -0.1982  1.2618
 6099TIP3    H239789   5.838   4.316   1.284  0.0133  0.8595 -0.5297
 6100TIP3   OH239790   4.141   6.546  16.557 -0.2805 -0.3861 -0.1590
 6100TIP3    H139791   4.230   6.509  16.558  0.1577  0.4848 -2.7292
 6100TIP3    H239792   4.154   6.639  16.577 -0.6182 -0.2622 -0.5253
 6101TIP3   OH239793   4.501   2.426  12.789  0.1449  0.0513  0.0158
 6101TIP3    H139794   4.449   2.346  12.777  0.1102  0.5159 -3.5795
 6101TIP3    H239795   4.440   2.497  12.767  0.1504  1.1132  3.2879
 6102TIP3   OH239796   4.535   5.222   2.947 -0.1803  0.7235 -0.1519
 6102TIP3    H139797   4.540   5.312   2.915  0.2473  1.0113  0.7146
 6102TIP3    H239798   4.580   5.224   3.031  1.4285 -0.6832 -0.9432
 6103TIP3   OH239799   3.913   5.491   0.890 -0.5002 -0.1295  0.5472
 6103TIP3    H139800   3.965   5.420   0.927 -1.0062 -0.5486  0.4594
 6103TIP3    H239801   3.871   5.452   0.813  1.0561  0.9015 -0.8721
 6104TIP3   OH239802   3.803   1.202  12.261 -0.0624 -0.3516  0.2775
 6104TIP3    H139803   3.830   1.171  12.347 -0.6532  0.0140  0.6053
 6104TIP3    H239804   3.718   1.244  12.277  0.0552  0.1511 -0.3965
 6105TIP3   OH239805   0.876   5.486  11.826  0.4628  0.6022  0.5038
 6105TIP3    H139806   0.924   5.409  11.855 -0.2306  0.3195  0.9149
 6105TIP3    H239807   0.880   5.546  11.900  0.5689  0.7601  0.3706
 6106TIP3   OH239808   6.446   2.232  12.993  0.3075  0.4810 -0.0339
 6106TIP3    H139809   6.429   2.320  12.961 -1.4229 -0.2639 -1.2277
 6106TIP3    H239810   6.388   2.176  12.943 -0.9112 -0.9864  2.8817
 6107TIP3   OH239811   1.507   0.690   3.250 -0.1426 -0.0333 -0.4980
 6107TIP3    H139812   1.420   0.674   3.213  0.3145 -0.7056 -1.3048
 6107TIP3    H239813   1.495   0.678   3.344 -0.9611  0.0651 -0.5816
 6108TIP3   OH239814   3.958   2.529   0.976 -0.2808  0.7897  0.3024
 6108TIP3    H139815   3.980   2.437   0.991 -1.5706  0.3183 -0.6554
 6108TIP3    H239816   3.866   2.536   1.001 -0.2439  1.7788  0.1806
 6109TIP3   OH239817   0.000   5.478   5.239 -0.2111  0.4820  0.1437
 6109TIP3    H139818   0.072   5.480   5.176 -1.0963 -0.3549 -0.9002
 6109TIP3    H239819   0.012   5.396   5.286 -0.6568  0.2086 -0.2259
 6110TIP3   OH239820   5.651   5.961   3.415  0.1921  0.2411 -0.1297
 6110TIP3    H139821   5.644   6.055   3.431 -2.7652 -0.2506  1.9380
 6110TIP3    H239822   5.598   5.946   3.336  0.4458  0.2602 -0.3051
 6111TIP3   OH239823   0.692   2.523  14.783  0.5375 -0.1350  0.0314
 6111TIP3    H139824   0.758   2.496  14.847  0.6851  0.4103  0.1146
 6111TIP3    H239825   0.735   2.513  14.698  0.7546  0.2892  0.0899
 6112TIP3   OH239826   3.472   6.167  13.975 -0.5305 -0.4664 -0.3117
 6112TIP3    H139827   3.470   6.247  13.921 -0.1014 -2.1573 -2.9162
 6112TIP3    H239828   3.425   6.191  14.055 -1.4011  2.0665 -1.5276
 6113TIP3   OH239829   6.346   1.086  10.433 -0.1929 -0.0289 -0.2729
 6113TIP3    H139830   6.369   1.015  10.492 -1.5945  1.0042  1.5850
 6113TIP3    H239831   6.260   1.062  10.399 -0.1213  0.1776 -0.6027
 6114TIP3   OH239832   1.688   0.045  15.059 -0.0005 -0.2842  0.4972
 6114TIP3    H139833   1.703   0.020  15.150 -0.1668 -0.3438  0.5080
 6114TIP3    H239834   1.684  -0.037  15.011 -1.4840 -0.3170  0.6748
 6115TIP3   OH239835   6.243   2.129  14.884 -0.0205  0.5862  0.0412
 6115TIP3    H139836   6.276   2.135  14.974 -2.9028 -0.3127  1.2080
 6115TIP3    H239837   6.201   2.044  14.880 -1.4332  1.3363 -1.6328
 6116TIP3   OH239838   3.160   5.746   2.987 -0.1201 -0.3268  0.1726
 6116TIP3    H139839   3.072   5.711   2.998  0.1752 -1.6846 -1.5223
 6116TIP3    H239840   3.218   5.673   3.010  0.5910  0.7630  1.9441
 6117TIP3   OH239841   4.841   4.784  13.223 -0.8359 -0.0638  0.0385
 6117TIP3    H139842   4.883   4.829  13.297  0.1222  1.3023 -1.2996
 6117TIP3    H239843   4.886   4.818  13.146 -2.4619 -0.7639 -1.2450
 6118TIP3   OH239844   5.120   0.569  10.517  0.1856  0.6092 -0.0658
 6118TIP3    H139845   5.213   0.589  10.503  0.4626 -0.0667  0.7066
 6118TIP3    H239846   5.118   0.473  10.524 -0.7332  0.5505 -1.2105
 6119TIP3   OH239847   2.813   6.144  12.872 -0.7085 -0.2025  0.6410
 6119TIP3    H139848   2.863   6.072  12.911  1.9148  1.3400  0.2055
 6119TIP3    H239849   2.821   6.130  12.778 -0.3630  0.5701  0.5597
 6120TIP3   OH239850   6.593   5.641  11.838 -0.3542 -0.0240  0.5354
 6120TIP3    H139851   6.534   5.617  11.767  0.6242 -0.6561 -0.0800
 6120TIP3    H239852   6.582   5.571  11.903  1.4895 -1.4694 -0.6556
 6121TIP3   OH239853   2.081   4.856   4.153 -0.4194 -0.1756 -0.9795
 6121TIP3    H139854   2.141   4.869   4.080  0.5462  0.3520 -0.1079
 6121TIP3    H239855   2.067   4.943   4.190 -3.1557 -0.0396 -2.2628
 6122TIP3   OH239856   6.543   4.160  13.114  0.5527 -0.3142 -0.0454
 6122TIP3    H139857   6.510   4.173  13.025 -0.0159  1.1300  0.3582
 6122TIP3    H239858   6.507   4.076  13.140 -1.0410  0.2256 -0.4273
 6123TIP3   OH239859   3.405   1.266   3.496  0.2510  0.1279 -0.1195
 6123TIP3    H139860   3.313   1.271   3.468 -0.1636 -1.4638  0.9356
 6123TIP3    H239861   3.427   1.173   3.491  1.3637  0.3186  1.0588
 6124TIP3   OH239862   3.154   6.818  14.569  0.0057 -0.0205 -0.0623
 6124TIP3    H139863   3.095   6.795  14.497 -1.5063  2.5882  0.2956
 6124TIP3    H239864   3.230   6.858  14.527 -1.1611  2.0941 -0.2169
 6125TIP3   OH239865   1.205   3.495  14.973  0.1180 -0.2631  0.3089
 6125TIP3    H139866   1.186   3.578  15.015  2.5678 -0.1409  1.2384
 6125TIP3    H239867   1.237   3.519  14.886 -1.5738 -0.3778 -0.3760
 6126TIP3   OH239868   4.504   5.068  15.543  0.2819 -0.0553  0.0626
 6126TIP3    H139869   4.463   5.000  15.488  0.3806  0.3736 -0.5500
 6126TIP3    H239870   4.570   5.021  15.594  0.8503 -0.3157 -0.8840
 6127TIP3   OH239871   2.451   0.833   2.685  0.2098 -0.2687 -0.0992
 6127TIP3    H139872   2.509   0.827   2.761 -0.5587  1.5999  0.6559
 6127TIP3    H239873   2.428   0.925   2.679 -2.1099 -0.8516 -0.8204
 6128TIP3   OH239874   2.795   0.928  12.704  0.9610 -0.0375  0.0465
 6128TIP3    H139875   2.764   0.924  12.795  2.2816 -2.3842  0.4207
 6128TIP3    H239876   2.890   0.933  12.711  1.0768 -0.2652 -1.2220
 6129TIP3   OH239877   0.621   4.915   4.776  0.4881 -0.3809  0.5214
 6129TIP3    H139878   0.714   4.932   4.786  0.1056  0.7682  2.2857
 6129TIP3    H239879   0.582   4.944   4.858 -1.6121  0.5150 -0.7371
 6130TIP3   OH239880   0.346   6.113   1.817 -0.3688 -0.2416  0.1854
 6130TIP3    H139881   0.291   6.074   1.748 -2.7393 -0.7859  2.3122
 6130TIP3    H239882   0.291   6.179   1.858  0.8929 -0.1430  1.7825
 6131TIP3   OH239883   6.349   4.946  14.186 -0.0229 -0.3438  0.2530
 6131TIP3    H139884   6.401   5.026  14.182 -0.9112  0.2047 -0.2152
 6131TIP3    H239885   6.374   4.907  14.270  0.6527  0.2477  0.3372
 6132TIP3   OH239886   4.526   2.984  13.637  0.2981 -1.3646  0.3541
 6132TIP3    H139887   4.491   3.064  13.679  4.0311  0.2135  0.6449
 6132TIP3    H239888   4.468   2.914  13.668 -2.5789  1.0857  0.7713
 6133TIP3   OH239889   3.377   6.488   4.668 -0.3024  0.6814 -0.3486
 6133TIP3    H139890   3.462   6.530   4.681 -0.1645  0.5701 -0.8988
 6133TIP3    H239891   3.386   6.403   4.712  0.1699  0.3040 -1.1695
 6134TIP3   OH239892   0.834   5.309  14.813 -0.0755 -0.0415 -0.3279
 6134TIP3    H139893   0.748   5.283  14.777 -0.5643 -0.0857  0.8569
 6134TIP3    H239894   0.815   5.337  14.902  1.2221 -0.5009  0.1019
 6135TIP3   OH239895   2.856   1.663  10.632 -0.1925 -0.3541 -0.4076
 6135TIP3    H139896   2.951   1.661  10.645  0.2198  0.3820 -2.9948
 6135TIP3    H239897   2.836   1.756  10.615 -1.5084 -0.3823  0.8208
 6136TIP3   OH239898   6.813   6.369  16.862 -0.5960 -0.5209 -0.5878
 6136TIP3    H139899   6.736   6.323  16.828  1.5960 -2.7935 -2.6871
 6136TIP3    H239900   6.816   6.451  16.813 -0.3678 -1.4858 -2.2203
 6137TIP3   OH239901   0.020   6.611   5.323  0.1033  0.1295  0.0360
 6137TIP3    H139902  -0.054   6.562   5.359  1.9282 -0.9627  2.4244
 6137TIP3    H239903   0.037   6.570   5.239  0.4715 -2.2121  1.2140
 6138TIP3   OH239904   5.967   6.201  16.680 -0.2895 -0.2560 -0.6926
 6138TIP3    H139905   6.007   6.168  16.761  2.3186  2.2643 -0.8883
 6138TIP3    H239906   6.019   6.162  16.610 -1.1261 -0.6422 -1.0991
 6139TIP3   OH239907   6.126   2.065  13.443  0.5193 -0.2578  0.0942
 6139TIP3    H139908   6.091   2.154  13.445  1.1158 -0.0602  2.3685
 6139TIP3    H239909   6.196   2.069  13.378  3.1550  1.9705  2.9222
 6140TIP3   OH239910   3.032   5.656   0.225 -0.1625 -0.2056  0.6261
 6140TIP3    H139911   3.060   5.733   0.175  1.1567  0.0881  1.7757
 6140TIP3    H239912   3.033   5.686   0.316 -2.6942 -0.6761  0.8278
 6141TIP3   OH239913   1.863   2.977  11.449  0.2641 -0.5742  0.3750
 6141TIP3    H139914   1.876   2.909  11.383 -2.1772  1.9880 -2.9635
 6141TIP3    H239915   1.795   2.942  11.506 -1.6292 -0.6668 -1.8534
 6142TIP3   OH239916   1.525   2.995  14.781  0.0091 -0.2175 -0.5029
 6142TIP3    H139917   1.449   2.998  14.722 -0.1373  0.3285 -0.2886
 6142TIP3    H239918   1.587   2.937  14.736 -0.3789 -0.3609 -0.8639
 6143TIP3   OH239919   3.076   5.021   1.745 -0.6628 -0.7565 -0.6715
 6143TIP3    H139920   3.122   4.948   1.788 -0.6252  0.3867  1.2683
 6143TIP3    H239921   2.984   5.004   1.761 -0.6389 -0.2213  0.0457
 6144TIP3   OH239922   1.783   4.274  12.335  0.3316 -0.7716  0.1216
 6144TIP3    H139923   1.744   4.244  12.252  0.9854 -3.4223  0.7334
 6144TIP3    H239924   1.838   4.201  12.363  1.7868  0.9450  1.8434
 6145TIP3   OH239925   0.653   0.131  15.334  0.4418  0.1024  0.3461
 6145TIP3    H139926   0.717   0.068  15.367 -1.1693 -1.5371  0.4322
 6145TIP3    H239927   0.672   0.138  15.241  0.7010 -0.4179  0.3582
 6146TIP3   OH239928   1.438   5.721  13.473 -0.0222 -0.1051  0.3308
 6146TIP3    H139929   1.456   5.645  13.528  1.2495  0.9571  1.3844
 6146TIP3    H239930   1.364   5.764  13.515 -0.3654 -0.4291  0.0609
 6147TIP3   OH239931   2.755   1.488  17.132 -0.3352 -0.2766 -0.0516
 6147TIP3    H139932   2.722   1.504  17.220  0.0007 -0.0725  0.0410
 6147TIP3    H239933   2.803   1.405  17.139 -1.6268 -1.0681 -0.4015
 6148TIP3   OH239934   2.504   5.261  16.998 -0.3492 -0.3242 -0.0054
 6148TIP3    H139935   2.415   5.256  17.033 -0.4729  1.7526  0.0377
 6148TIP3    H239936   2.492   5.283  16.906  0.1351  0.6715  0.1660
 6149TIP3   OH239937   3.500   5.937  16.606  0.3542 -0.9056 -0.4953
 6149TIP3    H139938   3.446   6.016  16.605 -1.0865 -1.8645 -0.2580
 6149TIP3    H239939   3.535   5.931  16.517  0.1241 -0.2422 -0.6340
 6150TIP3   OH239940   1.672   2.837  13.748  0.0028  0.3195 -0.2616
 6150TIP3    H139941   1.599   2.776  13.739 -0.3333  1.0288 -2.6404
 6150TIP3    H239942   1.745   2.783  13.778 -0.4551 -1.1513 -1.7390
 6151TIP3   OH239943   3.631   1.882   2.133 -0.3047 -0.3655  0.2052
 6151TIP3    H139944   3.592   1.797   2.113  0.0070 -0.5002  0.1822
 6151TIP3    H239945   3.570   1.922   2.195  0.0042 -0.9674  0.9006
 6152TIP3   OH239946   2.196   4.607   3.415 -0.2520 -0.0311  0.3097
 6152TIP3    H139947   2.138   4.576   3.345  0.3487  1.1232 -0.7268
 6152TIP3    H239948   2.235   4.528   3.451 -0.7374 -0.6573 -0.5106
 6153TIP3   OH239949   0.241   3.822   3.745 -0.7579  0.1001  0.2130
 6153TIP3    H139950   0.173   3.830   3.813 -0.3471 -0.5897  0.7025
 6153TIP3    H239951   0.305   3.761   3.782 -1.4869 -1.8002 -1.5851
 6154TIP3   OH239952   5.125   3.046   4.191 -0.4423  0.0223  0.8693
 6154TIP3    H139953   5.144   3.123   4.244  3.1090  1.0836 -1.6887
 6154TIP3    H239954   5.097   3.081   4.106 -1.8500 -1.5522  0.6613
 6155TIP3   OH239955   0.701   0.673   1.464 -0.1770  0.2064  0.5479
 6155TIP3    H139956   0.781   0.723   1.480  0.2661 -0.8000  1.5793
 6155TIP3    H239957   0.630   0.731   1.492  0.2534  0.7186  0.5758
 6156TIP3   OH239958   5.081   3.585   4.866  0.2446 -0.0489 -0.3981
 6156TIP3    H139959   5.132   3.553   4.941  0.0658 -1.6093 -0.9351
 6156TIP3    H239960   4.994   3.602   4.902  0.7785  1.4889  0.2565
 6157TIP3   OH239961   5.244   3.631  15.252 -0.1740 -0.4444 -0.3850
 6157TIP3    H139962   5.176   3.683  15.209  1.3715  1.5146 -0.5431
 6157TIP3    H239963   5.290   3.588  15.180  0.8338  0.8675 -0.5483
 6158TIP3   OH239964   5.292   1.657  14.272 -0.5322 -0.6850  0.3263
 6158TIP3    H139965   5.246   1.605  14.337 -0.0943 -1.6104 -0.0890
 6158TIP3    H239966   5.280   1.748  14.300 -0.1531 -1.0897  1.8041
 6159TIP3   OH239967   5.086   5.693  15.224  0.2604 -1.0719 -0.0480
 6159TIP3    H139968   5.041   5.646  15.294  1.4839 -0.7368  0.9864
 6159TIP3    H239969   5.035   5.675  15.146  0.0769 -3.1861  0.5425
 6160TIP3   OH239970   6.571   2.442   1.157  0.7238 -0.4434 -0.1638
 6160TIP3    H139971   6.580   2.524   1.206  0.1095  0.5109 -1.6005
 6160TIP3    H239972   6.476   2.431   1.146  0.8657 -0.0956 -1.9755
 6161TIP3   OH239973   5.105   4.550   0.190  0.0971  0.1017 -0.4187
 6161TIP3    H139974   5.028   4.519   0.238 -0.9156 -0.2794 -2.2635
 6161TIP3    H239975   5.171   4.481   0.203 -0.9733 -1.1562 -1.5846
 6162TIP3   OH239976   4.142   1.407  10.731  0.2909  0.1215 -0.1160
 6162TIP3    H139977   4.159   1.316  10.753 -2.0057 -0.0167  1.2636
 6162TIP3    H239978   4.221   1.454  10.757  1.0056 -1.3077  0.3051
 6163TIP3   OH239979   3.632   4.628  12.540 -0.2193 -0.1777 -0.1750
 6163TIP3    H139980   3.565   4.695  12.524  0.9165  0.9306 -0.3367
 6163TIP3    H239981   3.697   4.642  12.472 -0.7909 -2.5596 -1.2761
 6164TIP3   OH239982   2.538   5.289  14.126 -0.4225 -0.4225  0.5437
 6164TIP3    H139983   2.521   5.368  14.074  1.0517 -0.1505  0.4557
 6164TIP3    H239984   2.451   5.255  14.147 -1.0622 -0.5138 -2.0817
 6165TIP3   OH239985   6.575   6.552  10.566 -0.7174 -0.4796 -0.1125
 6165TIP3    H139986   6.606   6.494  10.635  0.0961 -0.4747 -0.4660
 6165TIP3    H239987   6.591   6.640  10.599 -0.2560 -0.4776 -0.3374
 6166TIP3   OH239988   6.522   5.453  14.178 -0.2178 -0.0276 -0.1988
 6166TIP3    H139989   6.458   5.386  14.199 -1.3096  0.0061 -3.1737
 6166TIP3    H239990   6.471   5.522  14.135  1.5507  0.7542 -1.0848
 6167TIP3   OH239991   4.372   5.092   2.757 -0.3992  0.1755 -0.5485
 6167TIP3    H139992   4.435   5.118   2.824  0.6237 -1.2392 -0.9547
 6167TIP3    H239993   4.411   5.121   2.675  0.1677 -1.5170 -0.8855
 6168TIP3   OH239994   0.001   1.563   0.540 -0.2685  0.1493 -0.5176
 6168TIP3    H139995  -0.061   1.496   0.570  0.9313 -0.4372  0.7026
 6168TIP3    H239996   0.052   1.519   0.471  0.4711 -0.1731  0.2335
 6169TIP3   OH239997   4.969   3.407  14.737  0.6033 -0.2059  0.3267
 6169TIP3    H139998   5.037   3.344  14.758 -0.8247 -1.1035  2.5118
 6169TIP3    H239999   4.887   3.364  14.762 -0.6900  1.2915 -1.1064
 6170TIP3   OH240000   0.036   2.948   5.164  0.4712  0.0674 -0.0718
 6170TIP3    H140001  -0.008   2.992   5.237  1.9950  2.2431 -0.3911
 6170TIP3    H240002   0.068   3.020   5.109 -0.0547 -1.5219 -2.5251
 6171TIP3   OH240003   4.059   2.858  16.483  0.2884  0.5388 -0.1951
 6171TIP3    H140004   4.019   2.852  16.571  1.0279  0.2013  0.1164
 6171TIP3    H240005   3.985   2.880  16.426 -0.8031 -2.3279  0.0124
 6172TIP3   OH240006   6.386   1.838  17.266 -0.2479  0.5409 -0.5518
 6172TIP3    H140007   6.477   1.815  17.252 -0.6873 -2.3803  1.1021
 6172TIP3    H240008   6.385   1.886  17.349 -0.2243  0.5511 -0.5575
 6173TIP3   OH240009   6.519   4.088   3.626  0.4314 -0.0958  0.4998
 6173TIP3    H140010   6.573   4.047   3.558  0.0380  1.0415 -0.5318
 6173TIP3    H240011   6.577   4.150   3.669  0.4386 -0.1846  0.6190
 6174TIP3   OH240012   6.300   3.811  16.451  0.5643 -0.2775 -0.0065
 6174TIP3    H140013   6.303   3.720  16.481  0.0560 -0.5591 -0.8006
 6174TIP3    H240014   6.302   3.805  16.355  2.3702  0.6227 -0.0410
 6175TIP3   OH240015   1.972   3.469   5.785  0.2964 -0.1529 -0.5215
 6175TIP3    H140016   1.886   3.489   5.748  0.3193 -1.9312 -1.6170
 6175TIP3    H240017   2.022   3.434   5.712  1.0916 -1.6091  0.6895
 6176TIP3   OH240018   5.609   5.813   5.455  0.6862  0.2703 -0.6161
 6176TIP3    H140019   5.671   5.740   5.456  1.5862  1.0157  2.5058
 6176TIP3    H240020   5.646   5.878   5.515 -2.1171  1.5898 -0.2116
 6177TIP3   OH240021   2.233   6.305  15.983 -0.4785 -0.2564 -0.3012
 6177TIP3    H140022   2.320   6.342  15.999  0.2840 -1.2690 -1.9757
 6177TIP3    H240023   2.177   6.381  15.968  0.3809  0.3467 -0.4946
 6178TIP3   OH240024   2.532   2.606   0.286 -0.1977 -0.1692 -0.7616
 6178TIP3    H140025   2.495   2.520   0.264 -0.4118 -0.0188 -0.9890
 6178TIP3    H240026   2.501   2.664   0.217 -2.8987  0.8309  1.1748
 6179TIP3   OH240027   4.147   3.375   0.105  0.1324 -0.1687 -0.6504
 6179TIP3    H140028   4.238   3.402   0.119  0.4382 -2.3977  2.1078
 6179TIP3    H240029   4.095   3.447   0.141  0.8581 -0.3876  0.8525
 6180TIP3   OH240030   1.919   5.193  14.661  0.1468  1.0919 -0.3107
 6180TIP3    H140031   1.964   5.161  14.739 -0.7313  0.7885  0.0805
 6180TIP3    H240032   1.846   5.245  14.695 -1.2436 -0.4191 -0.8873
 6181TIP3   OH240033   4.902   5.398   0.069 -0.3104  0.3785 -0.2837
 6181TIP3    H140034   4.814   5.431   0.050 -0.4070 -0.0719 -0.6244
 6181TIP3    H240035   4.934   5.366  -0.015 -0.7227 -1.5894  0.2789
 6182TIP3   OH240036   5.225   6.172   0.725  0.2189  0.1719  0.3522
 6182TIP3    H140037   5.140   6.193   0.685  0.3119  1.0149  0.5885
 6182TIP3    H240038   5.279   6.145   0.651 -0.2242 -0.2635  0.1826
 6183TIP3   OH240039   6.361   4.179   6.200 -0.0479  0.1097 -0.0499
 6183TIP3    H140040   6.406   4.096   6.213 -1.1784 -0.3226  1.1184
 6183TIP3    H240041   6.358   4.190   6.105  0.0089 -1.2300 -0.2063
 6184TIP3   OH240042   2.355   2.861  16.646 -0.2275  0.8494 -0.0243
 6184TIP3    H140043   2.413   2.876  16.571 -0.7945  0.0920 -0.6160
 6184TIP3    H240044   2.376   2.773  16.675 -0.6618  0.8055  0.1470
 6185TIP3   OH240045   6.816   3.419   5.328  0.2125  0.1609  1.1130
 6185TIP3    H140046   6.788   3.501   5.286 -1.6835 -0.2725  1.4645
 6185TIP3    H240047   6.841   3.445   5.416 -2.2491  0.1204  1.8608
 6186TIP3   OH240048   1.829   3.152   0.352 -0.1174  0.3324  0.4927
 6186TIP3    H140049   1.746   3.187   0.319  0.5863  0.8626 -0.7461
 6186TIP3    H240050   1.853   3.210   0.424 -0.1422  1.0050 -0.0340
 6187TIP3   OH240051   5.228   2.501  14.965 -0.3689  0.3174  0.7814
 6187TIP3    H140052   5.257   2.453  15.043 -1.2172  2.6255  2.5901
 6187TIP3    H240053   5.232   2.593  14.991 -0.9372  1.1227 -1.8443
 6188TIP3   OH240054   5.166   2.625  11.999 -0.2483 -0.4185 -0.5141
 6188TIP3    H140055   5.198   2.549  11.950  0.7581  0.3150 -1.0048
 6188TIP3    H240056   5.183   2.700  11.942  0.9118  0.4495  0.9325
 6189TIP3   OH240057   0.907   0.785   1.153 -0.2851 -0.1516  0.0889
 6189TIP3    H140058   0.841   0.854   1.149 -0.6672 -0.3933  1.8199
 6189TIP3    H240059   0.906   0.746   1.066 -0.5571  1.5618 -0.6830
 6190TIP3   OH240060   2.933   2.637   6.053  0.4788  0.0618  0.4753
 6190TIP3    H140061   2.948   2.731   6.058  1.4781 -0.0712  0.2851
 6190TIP3    H240062   2.878   2.616   6.128  0.5063  0.7499  0.6860
 6191TIP3   OH240063   6.698   4.622  15.174  0.1160 -0.1989 -0.6305
 6191TIP3    H140064   6.662   4.543  15.215 -0.9786 -0.0090 -1.1930
 6191TIP3    H240065   6.713   4.682  15.247  0.0851 -0.5963 -0.2953
 6192TIP3   OH240066   1.289   2.944  12.463  0.3767 -0.3043 -0.3761
 6192TIP3    H140067   1.360   2.898  12.419 -0.6849 -0.4121 -1.9950
 6192TIP3    H240068   1.327   3.029  12.487  1.1911 -0.5507 -0.7742
 6193TIP3   OH240069   4.573   4.738  11.119  0.2661 -0.1057 -0.4610
 6193TIP3    H140070   4.516   4.811  11.098  0.5001  0.2869  0.2396
 6193TIP3    H240071   4.615   4.716  11.036 -1.2158 -0.6816 -1.0772
 6194TIP3   OH240072   0.205   5.310   2.617  0.0031 -0.1051  0.1564
 6194TIP3    H140073   0.263   5.234   2.622  0.0725 -0.1203 -0.9226
 6194TIP3    H240074   0.262   5.384   2.638  0.5339 -0.0659 -1.4101
 6195TIP3   OH240075   1.292   3.265   5.495  0.0907  0.2537 -0.2124
 6195TIP3    H140076   1.319   3.298   5.410  0.8791  1.4568  0.4840
 6195TIP3    H240077   1.361   3.204   5.521 -0.0273  0.0688 -0.3377
 6196TIP3   OH240078   2.588   6.659   2.985  0.2097  0.0799  0.0121
 6196TIP3    H140079   2.663   6.616   3.026  1.4630  0.5283 -1.7362
 6196TIP3    H240080   2.627   6.723   2.925 -1.5920  1.1072 -0.0871
 6197TIP3   OH240081   0.867   6.021  15.189  0.0775 -0.2056 -0.1382
 6197TIP3    H140082   0.953   6.059  15.172  0.6491 -0.7620  1.4550
 6197TIP3    H240083   0.883   5.928  15.203 -0.3399  0.1525  3.1856
 6198TIP3   OH240084   3.871   3.992  17.000  0.6404 -0.1820  0.4004
 6198TIP3    H140085   3.912   3.979  16.915 -0.3021 -0.9238  0.0526
 6198TIP3    H240086   3.905   3.920  17.054  1.9816  0.8366  0.9462
 6199TIP3   OH240087   2.538   3.023  12.720 -0.4291  0.0807 -1.1196
 6199TIP3    H140088   2.604   3.055  12.659  1.8406 -1.7069  0.2902
 6199TIP3    H240089   2.575   3.039  12.806 -1.2022 -2.1862 -0.3133
 6200TIP3   OH240090   0.844   4.493  14.311  0.0374  0.8080 -0.4805
 6200TIP3    H140091   0.814   4.536  14.230  1.3840  0.2479 -1.2830
 6200TIP3    H240092   0.939   4.488  14.302  0.1221  0.0076  0.7880
 6201TIP3   OH240093   2.822   4.730   1.740  0.5558 -0.2092  0.5518
 6201TIP3    H140094   2.875   4.753   1.817  1.8104 -1.8606  0.2166
 6201TIP3    H240095   2.771   4.809   1.722  1.3421  0.7071  2.1770
 6202TIP3   OH240096   3.703   3.071   5.082  0.6809 -0.1459 -0.1795
 6202TIP3    H140097   3.796   3.068   5.101  0.3644  0.9414  1.6627
 6202TIP3    H240098   3.663   3.013   5.146  0.0844 -0.5801 -0.9350
 6203TIP3   OH240099   2.518   2.977   2.706  0.0271 -0.0262  1.2681
 6203TIP3    H140100   2.549   3.015   2.788 -0.0065  1.4044  0.6162
 6203TIP3    H240101   2.596   2.937   2.667  0.7475  2.2046  0.3819
 6204TIP3   OH240102   0.997   1.653  11.071  0.4578 -0.7933 -0.0972
 6204TIP3    H140103   1.071   1.637  11.013  1.3056 -0.0209  0.7618
 6204TIP3    H240104   1.031   1.712  11.138 -0.7848 -0.8680  0.6149
 6205TIP3   OH240105   6.676   2.062   1.181 -0.2156 -0.2964 -0.6599
 6205TIP3    H140106   6.738   2.059   1.108  0.8304  0.1893  0.1985
 6205TIP3    H240107   6.660   1.970   1.202  0.2511 -0.4296 -0.8657
 6206TIP3   OH240108   1.753   4.478   4.212 -0.4339 -0.0340 -0.2438
 6206TIP3    H140109   1.775   4.571   4.205 -2.3990  0.4125 -0.7484
 6206TIP3    H240110   1.820   4.434   4.160 -0.1882  1.2055 -1.0118
 6207TIP3   OH240111   3.640   5.299  11.911 -0.1256  0.7822 -0.0971
 6207TIP3    H140112   3.598   5.329  11.992  2.2202 -2.1132  2.3531
 6207TIP3    H240113   3.580   5.232  11.878 -0.2081  0.6738  0.2611
 6208TIP3   OH240114   5.729   6.269  16.512  0.0850 -0.5974  0.1707
 6208TIP3    H140115   5.715   6.185  16.468  0.7847 -0.5211 -0.2002
 6208TIP3    H240116   5.824   6.273  16.525  0.3283  1.2131 -1.9682
 6209TIP3   OH240117   3.470   3.869   3.765 -0.0749  1.0275 -0.2839
 6209TIP3    H140118   3.551   3.882   3.716  0.2465  0.0466 -0.0171
 6209TIP3    H240119   3.422   3.952   3.755  0.3133  1.0953 -1.6511
 6210TIP3   OH240120   4.420   2.941   2.551 -0.0189  0.1059 -0.1260
 6210TIP3    H140121   4.366   2.906   2.622  0.6133  1.7426  1.2039
 6210TIP3    H240122   4.510   2.924   2.578  0.2908  2.2859  0.3473
 6211TIP3   OH240123   5.634   3.295   3.705 -0.1504  0.0910  0.6762
 6211TIP3    H140124   5.595   3.366   3.757  0.1819 -0.2670  1.4301
 6211TIP3    H240125   5.681   3.241   3.770 -1.1050 -1.2948  0.2441
 6212TIP3   OH240126   5.455   2.029  13.177 -0.1780 -0.4228  0.2954
 6212TIP3    H140127   5.526   2.091  13.195 -0.4866 -0.2021  0.7556
 6212TIP3    H240128   5.394   2.078  13.121 -0.5267 -0.2310  0.8319
 6213TIP3   OH240129   0.663   3.538  17.084  0.4582  0.2600 -0.3686
 6213TIP3    H140130   0.617   3.584  17.154 -1.0355 -1.9286  0.1592
 6213TIP3    H240131   0.598   3.476  17.049  2.2848 -1.2367 -1.2251
 6214TIP3   OH240132   2.920   3.804  15.408  0.0610  0.2276 -0.6007
 6214TIP3    H140133   2.970   3.822  15.488  0.0158 -0.9882 -0.2918
 6214TIP3    H240134   2.881   3.888  15.385 -1.3864  0.2051  1.6636
 6215TIP3   OH240135   3.252   6.170   1.610 -0.4346  0.6297 -0.1327
 6215TIP3    H140136   3.248   6.101   1.544 -2.6685 -1.0293  1.6518
 6215TIP3    H240137   3.345   6.179   1.631  0.0859 -0.2670 -1.9900
 6216TIP3   OH240138   5.525   0.970  15.419  0.3820 -0.3705  0.2117
 6216TIP3    H140139   5.497   0.891  15.373  0.9643 -0.7243  0.4554
 6216TIP3    H240140   5.582   0.938  15.489  1.9524  0.3851 -0.7043
 6217TIP3   OH240141   4.663   6.275  15.406 -0.4825 -0.4892 -0.2004
 6217TIP3    H140142   4.680   6.318  15.323  2.2643 -1.0970 -0.0096
 6217TIP3    H240143   4.700   6.334  15.472 -0.0902 -1.3291  0.3509
 6218TIP3   OH240144   2.095   1.356   4.137 -0.2482 -0.7888  0.3363
 6218TIP3    H140145   2.133   1.403   4.063 -2.8537  1.1453  0.1417
 6218TIP3    H240146   2.109   1.415   4.212 -0.9566 -1.0265  0.6559
 6219TIP3   OH240147   4.559   2.758   5.762 -0.2548 -0.2841  0.0337
 6219TIP3    H140148   4.491   2.825   5.755 -0.8375 -0.7212  1.4018
 6219TIP3    H240149   4.592   2.749   5.672  0.1352  2.1118 -0.0921
 6220TIP3   OH240150   1.800   0.743  17.076  0.6768 -0.5181 -0.4063
 6220TIP3    H140151   1.852   0.711  17.002 -1.8774 -2.2614 -1.5540
 6220TIP3    H240152   1.716   0.697  17.067 -0.4807  0.9640  2.2925
 6221TIP3   OH240153   4.304   0.437  12.946 -0.0127 -0.2314  0.1039
 6221TIP3    H140154   4.279   0.474  12.861  1.5260  0.0905 -0.2251
 6221TIP3    H240155   4.365   0.367  12.925 -0.4833 -0.8922  0.9015
 6222TIP3   OH240156   6.385   4.565   3.257  0.1527 -0.2385 -0.2222
 6222TIP3    H140157   6.373   4.496   3.191  1.0977  0.4462 -1.1280
 6222TIP3    H240158   6.302   4.567   3.305 -1.1220  0.2785 -2.3746
 6223TIP3   OH240159   1.217   4.437   3.504 -0.0225 -0.0982  0.6107
 6223TIP3    H140160   1.199   4.403   3.591 -0.2839 -0.8830  0.2515
 6223TIP3    H240161   1.312   4.434   3.496 -0.0967 -1.5801  0.2446
 6224TIP3   OH240162   1.664   0.272  14.486 -0.1153  0.7717  0.5530
 6224TIP3    H140163   1.622   0.260  14.571 -1.6597  1.6709 -0.0613
 6224TIP3    H240164   1.624   0.205  14.430 -0.3766  1.3044  0.0955
 6225TIP3   OH240165   5.361   1.902  12.552 -0.1716 -0.2935 -0.0285
 6225TIP3    H140166   5.453   1.889  12.573  0.4898  0.2181 -2.5054
 6225TIP3    H240167   5.321   1.927  12.636  2.2556  1.2125  0.7406
 6226TIP3   OH240168   6.773   4.318   3.148  0.6876  0.1837  0.2851
 6226TIP3    H140169   6.832   4.250   3.178 -0.2289 -0.9901 -0.5069
 6226TIP3    H240170   6.800   4.336   3.058 -0.2297 -0.4571 -0.1284
 6227TIP3   OH240171   0.002   3.858   3.882 -0.6145 -0.0373 -0.0891
 6227TIP3    H140172  -0.036   3.778   3.917  0.3985  0.2715  1.7964
 6227TIP3    H240173  -0.044   3.928   3.927 -2.3466  0.5315 -2.6062
 6228TIP3   OH240174   1.428   1.648  14.656 -0.2978 -0.5503  0.2172
 6228TIP3    H140175   1.336   1.666  14.636  0.5725  1.3082 -2.4198
 6228TIP3    H240176   1.435   1.552  14.652 -1.7420 -0.6126 -1.4496
 6229TIP3   OH240177   1.239   3.973   2.987 -0.0927 -0.3633 -0.3629
 6229TIP3    H140178   1.264   4.063   2.964  0.5592 -0.8077 -1.4644
 6229TIP3    H240179   1.145   3.976   3.000  0.1870  0.8992  1.6236
 6230TIP3   OH240180   2.179   1.971   5.517 -0.3279 -0.2200 -0.0791
 6230TIP3    H140181   2.089   1.963   5.488 -0.2080 -1.1467 -0.2255
 6230TIP3    H240182   2.223   1.893   5.482  0.0578 -0.8550  1.7086
 6231TIP3   OH240183   2.070   3.547   2.231  0.8547 -0.4524  0.1662
 6231TIP3    H140184   2.074   3.527   2.137 -0.5470  0.6045 -0.1284
 6231TIP3    H240185   2.051   3.463   2.273  0.0600 -0.6730 -0.6261
 6232TIP3   OH240186   1.699   1.315  13.767 -0.3290 -0.3095  0.0489
 6232TIP3    H140187   1.606   1.328  13.787 -0.3094  0.6319 -0.4382
 6232TIP3    H240188   1.727   1.398  13.728  0.8217 -0.4424  0.5784
 6233TIP3   OH240189   4.894   2.968  15.079  0.0653 -0.2183  0.2255
 6233TIP3    H140190   4.899   2.953  15.173 -0.2016  1.2712  0.4923
 6233TIP3    H240191   4.805   2.999  15.065  0.1899 -0.1827 -0.4876
 6234TIP3   OH240192   1.151   0.074   3.663 -0.6774  0.1170 -0.6134
 6234TIP3    H140193   1.161   0.008   3.732 -2.1147  0.7587  0.2360
 6234TIP3    H240194   1.200   0.149   3.695 -0.5211  0.0716 -0.7484
 6235TIP3   OH240195   3.664   2.278  13.841 -0.3508  0.0651  0.2561
 6235TIP3    H140196   3.672   2.325  13.759 -0.0974 -1.2193 -0.4779
 6235TIP3    H240197   3.675   2.345  13.909  1.6422  0.7981 -0.7519
 6236TIP3   OH240198   2.552   1.266   6.432 -0.0018 -0.5064  0.4745
 6236TIP3    H140199   2.564   1.186   6.483  2.8431 -0.5931 -0.2463
 6236TIP3    H240200   2.622   1.324   6.462 -0.2548  0.6298 -1.0558
 6237TIP3   OH240201   2.917   0.454   6.098  0.0797 -0.1972  0.0291
 6237TIP3    H140202   3.009   0.461   6.123  0.5351  1.5004 -2.0346
 6237TIP3    H240203   2.878   0.397   6.165  2.3500  0.0647  1.6068
 6238TIP3   OH240204   0.662   0.123  17.220  0.3458 -0.3027 -0.1667
 6238TIP3    H140205   0.600   0.196  17.224  2.1324  1.1660  1.9677
 6238TIP3    H240206   0.620   0.053  17.269 -0.8552 -0.3234 -1.1855
 6239TIP3   OH240207   5.728   1.906   4.072 -0.2047  0.3475  0.1941
 6239TIP3    H140208   5.639   1.916   4.105  0.2464  1.5991  1.0797
 6239TIP3    H240209   5.780   1.882   4.148  0.0569 -1.4311 -0.5188
 6240TIP3   OH240210   3.744   0.390   4.401 -0.2220  0.2020 -0.2027
 6240TIP3    H140211   3.786   0.375   4.316  0.5610  0.6272  0.1037
 6240TIP3    H240212   3.805   0.446   4.448 -1.2872  1.0870  0.1400
 6241TIP3   OH240213   6.711   5.677   4.569 -0.0045  0.1852  0.6525
 6241TIP3    H140214   6.618   5.692   4.582 -0.5320 -2.6533  0.5369
 6241TIP3    H240215   6.750   5.692   4.655 -0.9583 -1.1941  1.3408
 6242TIP3   OH240216   3.391   0.130   5.831  0.1118  0.0577 -0.0285
 6242TIP3    H140217   3.375   0.169   5.917 -2.4088  1.5998 -1.1333
 6242TIP3    H240218   3.369   0.037   5.841 -1.3386  0.4715  0.7003
 6243TIP3   OH240219   0.172   3.761  14.222 -0.8964  0.0596 -0.1822
 6243TIP3    H140220   0.139   3.816  14.292 -0.1760  0.1521  0.0872
 6243TIP3    H240221   0.144   3.672  14.245  1.8257 -0.3443  1.7533
 6244TIP3   OH240222   0.145   0.570   3.195 -0.2874  0.0961 -0.5298
 6244TIP3    H140223   0.110   0.648   3.151  0.5989  0.8652  0.1151
 6244TIP3    H240224   0.239   0.584   3.198 -0.0846 -1.1504 -0.6737
 6245TIP3   OH240225   5.785   4.445   0.374 -0.6073  0.1587 -0.3010
 6245TIP3    H140226   5.693   4.453   0.401 -0.2937  0.8356  0.5840
 6245TIP3    H240227   5.835   4.456   0.455  0.2391 -0.8237 -0.6761
 6246TIP3   OH240228   6.757   6.402  10.746  0.0560 -0.2842  0.0758
 6246TIP3    H140229   6.821   6.340  10.712 -1.2281 -1.2342 -0.6536
 6246TIP3    H240230   6.721   6.358  10.824  0.1558  0.1564  0.3687
 6247TIP3   OH240231   4.609   2.392   0.625 -0.5982 -0.3828 -0.3327
 6247TIP3    H140232   4.650   2.462   0.574 -0.3487 -0.3442 -0.0822
 6247TIP3    H240233   4.581   2.328   0.560 -0.7665 -0.0803 -0.5601
 6248TIP3   OH240234   2.542   2.944   0.758  0.0939 -0.0129 -0.3150
 6248TIP3    H140235   2.527   2.915   0.668 -0.2039 -3.5214  0.7878
 6248TIP3    H240236   2.629   2.911   0.779  0.3443  1.1812  0.5235
 6249TIP3   OH240237   6.454   2.210   0.738  0.1744 -0.1293 -0.7541
 6249TIP3    H140238   6.529   2.193   0.794  0.6649 -2.9224 -2.1641
 6249TIP3    H240239   6.453   2.305   0.726  1.5026  0.2486  1.9443
 6250TIP3   OH240240   0.842   1.347   5.481  0.5256  0.1053 -0.2667
 6250TIP3    H140241   0.912   1.281   5.476 -0.8742 -1.5089  0.6259
 6250TIP3    H240242   0.814   1.346   5.572 -0.4158  0.9913 -0.5305
 6251TIP3   OH240243   2.657   0.205  13.769 -0.4237  0.0239 -0.0173
 6251TIP3    H140244   2.621   0.127  13.726 -0.7671  0.8260 -1.1794
 6251TIP3    H240245   2.715   0.244  13.705 -1.4946  1.6259 -0.0368
 6252TIP3   OH240246   5.661   4.766  14.878 -0.4689 -0.2271 -0.2310
 6252TIP3    H140247   5.589   4.826  14.895 -0.8136 -0.6309 -0.2781
 6252TIP3    H240248   5.620   4.681  14.863 -0.0682 -0.1897 -1.5852
 6253TIP3   OH240249   0.603   3.219   1.399  0.1147  0.1322 -0.1122
 6253TIP3    H140250   0.547   3.148   1.366 -2.2796  2.5662 -1.4691
 6253TIP3    H240251   0.552   3.260   1.468  0.4853  1.9553 -0.8854
 6254TIP3   OH240252   4.561   6.209  16.776 -0.1531 -0.0344  0.5069
 6254TIP3    H140253   4.550   6.119  16.745  0.7114 -0.2398  0.7704
 6254TIP3    H240254   4.651   6.231  16.752  0.5129 -0.1765  2.7531
 6255TIP3   OH240255   0.241   5.798   6.038 -0.0001 -0.6604 -0.0879
 6255TIP3    H140256   0.254   5.736   6.109 -0.0840 -0.5565  0.0189
 6255TIP3    H240257   0.156   5.774   6.000 -0.6030  0.1485  0.7253
 6256TIP3   OH240258   1.442   1.453  11.806 -0.0656 -0.1833 -0.1304
 6256TIP3    H140259   1.503   1.434  11.877 -1.8684  1.0404  1.8164
 6256TIP3    H240260   1.470   1.539  11.774 -0.8347  0.4760  0.9035
 6257TIP3   OH240261   6.746   2.507  16.331  0.3864  0.3190 -0.3407
 6257TIP3    H140262   6.797   2.502  16.250  0.8243  1.4593 -0.1383
 6257TIP3    H240263   6.660   2.538  16.303  0.4357  0.3940 -0.4038
 6258TIP3   OH240264   3.661   5.678   6.331 -0.0302 -0.5971  0.3841
 6258TIP3    H140265   3.587   5.639   6.378 -0.2248 -2.0369 -1.0502
 6258TIP3    H240266   3.626   5.758   6.292 -0.4477 -0.5228  0.9132
 6259TIP3   OH240267   5.401   4.728  13.233  0.5663 -0.0847  0.0947
 6259TIP3    H140268   5.358   4.770  13.159 -0.1863  0.3879  0.7972
 6259TIP3    H240269   5.330   4.699  13.290  1.1532  1.2492  1.5558
 6260TIP3   OH240270   1.116   6.205   1.773 -0.3887 -0.7997 -0.0838
 6260TIP3    H140271   1.073   6.216   1.858  0.0627  1.4555 -0.1025
 6260TIP3    H240272   1.207   6.186   1.794 -0.3844 -0.7507 -0.0569
 6261TIP3   OH240273   4.639   6.636  11.428 -0.3739 -0.5636  0.1135
 6261TIP3    H140274   4.670   6.650  11.339 -0.1022 -2.1134 -0.0366
 6261TIP3    H240275   4.718   6.619  11.479 -0.5031  0.5724  0.7174
 6262TIP3   OH240276   6.530   2.881  13.604 -0.8126  0.0882 -0.7913
 6262TIP3    H140277   6.495   2.950  13.660 -2.0147  0.0961 -1.5369
 6262TIP3    H240278   6.548   2.924  13.521  1.6243  0.2351 -0.2535
 6263TIP3   OH240279   0.903   0.363   0.577 -0.1489 -0.5313 -0.2061
 6263TIP3    H140280   0.973   0.300   0.560 -0.8425 -1.1158 -0.9187
 6263TIP3    H240281   0.886   0.404   0.492 -1.9142 -1.6981 -0.4465
 6264TIP3   OH240282   2.990   4.223  12.087  0.5851 -0.3359  0.2723
 6264TIP3    H140283   2.914   4.188  12.134  0.9520 -0.6625  0.6351
 6264TIP3    H240284   2.961   4.231  11.996  0.7317 -2.3042  0.0357
 6265TIP3   OH240285   4.106   5.578  15.111 -0.1282 -0.4427 -0.2764
 6265TIP3    H140286   4.194   5.613  15.124 -0.2253 -0.3889  0.2570
 6265TIP3    H240287   4.083   5.541  15.196 -1.2295  0.9028  0.0126
 6266TIP3   OH240288   3.387   1.138   4.943 -0.2796 -0.1677  0.4025
 6266TIP3    H140289   3.470   1.176   4.971 -0.3343 -0.8448  1.5041
 6266TIP3    H240290   3.321   1.178   5.000 -0.6969  0.2555 -0.3677
 6267TIP3   OH240291   1.359   4.149  12.022  0.3346  0.1748 -0.2483
 6267TIP3    H140292   1.365   4.112  11.934  3.9939  0.6785 -0.3027
 6267TIP3    H240293   1.394   4.081  12.079 -2.1639 -0.2040  0.8776
 6268TIP3   OH240294   5.429   2.912   0.980 -0.2887  0.3540  0.9229
 6268TIP3    H140295   5.521   2.895   0.960 -0.7124  0.3445 -1.2196
 6268TIP3    H240296   5.429   2.992   1.032  0.8837  0.9559  0.0206
 6269TIP3   OH240297   0.189   6.464  14.450  0.2641  0.2254  0.0197
 6269TIP3    H140298   0.166   6.557  14.449 -0.2602  0.0976  0.0815
 6269TIP3    H240299   0.215   6.447  14.541 -1.1494 -0.0513  0.3802
 6270TIP3   OH240300   0.693   6.748  14.093  0.4540  0.6362  0.3499
 6270TIP3    H140301   0.781   6.716  14.071  0.4797  1.5445 -0.9362
 6270TIP3    H240302   0.645   6.744  14.010 -0.5393  0.6989  0.9236
 6271TIP3   OH240303   5.590   2.667   0.630  0.0911  0.1294 -0.1182
 6271TIP3    H140304   5.577   2.755   0.595 -0.6916 -0.1391 -0.5047
 6271TIP3    H240305   5.503   2.627   0.628  0.1404 -0.1172  1.5294
 6272TIP3   OH240306   3.831   0.916   4.273 -0.5331 -0.0776 -0.0513
 6272TIP3    H140307   3.825   0.836   4.325 -0.9777  0.2104  0.3502
 6272TIP3    H240308   3.783   0.981   4.324 -0.4119  0.3740 -0.5090
 6273TIP3   OH240309   2.719   2.884  11.214  0.6436 -0.0695 -0.0276
 6273TIP3    H140310   2.766   2.930  11.284  1.0282  0.5312 -0.6689
 6273TIP3    H240311   2.786   2.828  11.174 -0.0475 -1.9449  1.3732
 6274TIP3   OH240312   3.343   3.269   4.899 -0.4409 -0.0566  0.2960
 6274TIP3    H140313   3.396   3.243   4.824 -0.7985 -0.3925  0.1590
 6274TIP3    H240314   3.407   3.287   4.968 -0.0946  0.5864 -0.1890
 6275TIP3   OH240315   5.275   2.287  13.509 -0.6633 -0.3199 -0.5883
 6275TIP3    H140316   5.340   2.223  13.538 -2.3610 -1.7057  0.2137
 6275TIP3    H240317   5.222   2.304  13.587 -1.0495  1.0911 -1.1450
 6276TIP3   OH240318   5.625   1.887  16.093  0.1451  0.5815 -0.4845
 6276TIP3    H140319   5.640   1.886  15.998  1.1441 -0.1930 -0.3281
 6276TIP3    H240320   5.533   1.862  16.102  0.1643  0.2004 -1.2417
 6277TIP3   OH240321   4.673   1.325  17.153  0.0199 -0.1310  0.1881
 6277TIP3    H140322   4.757   1.293  17.121  0.3921 -0.3711  1.3819
 6277TIP3    H240323   4.634   1.370  17.078  1.3208  0.1975 -0.3002
 6278TIP3   OH240324   1.618   3.096  15.138 -0.0051  0.5153  0.5979
 6278TIP3    H140325   1.593   3.108  15.229 -0.9366  1.4276  0.2305
 6278TIP3    H240326   1.708   3.130  15.133 -0.1612  1.0006  1.0510
 6279TIP3   OH240327   3.239   2.973   4.477  0.2476 -0.4801 -0.1327
 6279TIP3    H140328   3.186   2.893   4.475  0.3460 -0.5529  0.0974
 6279TIP3    H240329   3.199   3.026   4.546 -0.4023  0.0795 -0.9384
 6280TIP3   OH240330   5.968   5.136   0.243  0.2802  0.2750  0.2972
 6280TIP3    H140331   6.029   5.208   0.228  1.4752 -0.8998 -0.5844
 6280TIP3    H240332   6.010   5.083   0.311 -0.5418  0.3353  0.8636
 6281TIP3   OH240333   5.359   0.149   5.178  0.1248  0.3683  0.6225
 6281TIP3    H140334   5.352   0.162   5.273  1.7944 -0.3356  0.8654
 6281TIP3    H240335   5.420   0.075   5.169 -2.0128 -1.2562 -0.9175
 6282TIP3   OH240336   2.668   2.772   4.714  0.6914 -0.1913 -0.1281
 6282TIP3    H140337   2.763   2.763   4.709  0.6616 -1.4046  1.3067
 6282TIP3    H240338   2.637   2.741   4.629  1.4831 -1.3287 -0.0157
 6283TIP3   OH240339   4.155   6.009   1.878 -0.4088  0.0699 -0.0318
 6283TIP3    H140340   4.239   5.965   1.890 -0.3107  0.3864  0.4559
 6283TIP3    H240341   4.111   6.001   1.963 -0.8021  0.0527 -0.2333
 6284TIP3   OH240342   1.065   4.966   4.090  0.4107  0.3083 -0.1789
 6284TIP3    H140343   1.077   5.061   4.088  1.0788  0.2180 -0.7599
 6284TIP3    H240344   0.975   4.953   4.061  0.2049  0.7812  0.2309
 6285TIP3   OH240345   4.131   6.365   1.246  0.1187  0.4823  0.0215
 6285TIP3    H140346   4.130   6.428   1.174 -0.8088  1.3748  0.7986
 6285TIP3    H240347   4.162   6.283   1.206 -0.6984  0.8799 -1.4485
 6286TIP3   OH240348   2.843   6.043   3.569  0.1376 -0.1330  0.1423
 6286TIP3    H140349   2.754   6.051   3.537  0.5986  2.0636 -0.6788
 6286TIP3    H240350   2.893   6.009   3.494  0.0662 -1.0693  0.5086
 6287TIP3   OH240351   6.207   3.116   1.180  0.3771 -0.4913 -0.1999
 6287TIP3    H140352   6.271   3.188   1.188 -0.8367  0.7610 -1.4809
 6287TIP3    H240353   6.242   3.061   1.110  0.1195  0.1544 -0.8507
 6288TIP3   OH240354   4.707   0.410   3.310  0.2144  0.1480 -0.1022
 6288TIP3    H140355   4.781   0.426   3.252  0.0826  0.4788 -0.1789
 6288TIP3    H240356   4.635   0.385   3.252  0.4207 -0.7366  0.0169
 6289TIP3   OH240357   3.003   5.462   0.896  0.3870 -0.7832 -0.4683
 6289TIP3    H140358   2.919   5.439   0.936  0.7201 -1.1267  0.0453
 6289TIP3    H240359   3.039   5.378   0.865  1.0061 -0.7876  0.2334
 6290TIP3   OH240360   6.779   4.232   1.677  0.2723 -0.3196 -0.5044
 6290TIP3    H140361   6.863   4.189   1.665  0.8920  1.0202 -0.9873
 6290TIP3    H240362   6.797   4.302   1.739 -0.6003 -0.3578 -0.2051
 6291TIP3   OH240363   5.192   6.538  16.877 -0.2427 -0.0663 -0.0758
 6291TIP3    H140364   5.279   6.574  16.865 -1.3256  1.7829 -2.6791
 6291TIP3    H240365   5.156   6.586  16.952  0.9899 -0.9650  1.1205
 6292TIP3   OH240366   0.827   2.932   4.910 -0.4924  0.2794 -0.0685
 6292TIP3    H140367   0.740   2.972   4.901 -1.2406 -1.2401  0.1280
 6292TIP3    H240368   0.861   2.967   4.992 -0.6331  1.3929 -0.4715
 6293TIP3   OH240369   4.972   4.621  12.836  0.6544 -0.3045 -0.4479
 6293TIP3    H140370   5.023   4.547  12.868  0.9788 -0.2213 -0.7752
 6293TIP3    H240371   4.887   4.583  12.814 -0.2364 -0.0311  2.3123
 6294TIP3   OH240372   5.240   4.402   4.558 -0.1083 -0.6618  0.4134
 6294TIP3    H140373   5.251   4.488   4.599  0.4182 -0.5212 -0.0092
 6294TIP3    H240374   5.216   4.421   4.468  0.9691 -0.9334  0.0524
 6295TIP3   OH240375   1.387   1.787   1.790 -0.0151 -0.1917 -0.3784
 6295TIP3    H140376   1.457   1.766   1.728 -0.1160  1.1129 -0.9534
 6295TIP3    H240377   1.431   1.832   1.862 -0.1363 -0.1926 -0.3033
 6296TIP3   OH240378   5.490   4.548   0.775  0.2606 -0.0617 -0.9392
 6296TIP3    H140379   5.551   4.622   0.772 -0.4007  0.6485  1.7494
 6296TIP3    H240380   5.437   4.564   0.853  1.1815 -4.2474  0.6587
 6297TIP3   OH240381   5.424   6.443   6.480 -0.1287 -0.0079 -0.4150
 6297TIP3    H140382   5.329   6.447   6.490  0.3273  3.3338  4.3402
 6297TIP3    H240383   5.445   6.518   6.424 -0.0902  1.2816  1.2852
 6298TIP3   OH240384   3.087   5.317   0.481  0.0707  0.5360 -0.0932
 6298TIP3    H140385   3.105   5.355   0.394 -0.9763  0.2841 -0.4318
 6298TIP3    H240386   3.148   5.361   0.539  0.8752  0.6226 -0.9858
 6299TIP3   OH240387   3.005   5.046  11.648  0.4411 -0.2391  0.5825
 6299TIP3    H140388   2.920   5.088  11.663 -0.5913 -1.2654 -2.1261
 6299TIP3    H240389   3.042   5.092  11.573 -0.0452 -3.0856 -1.4919
 6300TIP3   OH240390   4.672   5.392  14.568 -0.5622 -0.4950 -0.1736
 6300TIP3    H140391   4.598   5.447  14.541 -1.4536 -2.1428 -1.1782
 6300TIP3    H240392   4.714   5.367  14.485 -0.1154 -1.2623  0.2878
 6301TIP3   OH240393   5.514   2.628   6.026  0.0452  0.1801 -0.3587
 6301TIP3    H140394   5.600   2.589   6.013  0.3641  0.2254  1.4987
 6301TIP3    H240395   5.532   2.717   6.057 -0.6734  0.5545 -0.9817
 6302TIP3   OH240396   0.868   1.429  15.143 -0.3818 -0.3901 -0.0001
 6302TIP3    H140397   0.890   1.416  15.236 -2.0018  0.4706  0.5199
 6302TIP3    H240398   0.845   1.342  15.111  0.8342 -0.8055  0.2233
 6303TIP3   OH240399   1.943   4.897  13.496  0.2412  0.3604 -0.0528
 6303TIP3    H140400   2.014   4.884  13.558 -0.3628 -2.4917  0.0762
 6303TIP3    H240401   1.934   4.814  13.451 -0.7442  1.7357 -2.5079
 6304TIP3   OH240402   2.156   1.266  11.242 -0.2006 -0.2218  0.7368
 6304TIP3    H140403   2.064   1.239  11.242 -0.6064  1.1438  0.7464
 6304TIP3    H240404   2.180   1.267  11.149 -0.3908  0.0485  0.6875
 6305TIP3   OH240405   4.783   3.314   3.661 -0.1397  0.6089  0.3683
 6305TIP3    H140406   4.781   3.354   3.574 -0.5901  0.5012  0.3233
 6305TIP3    H240407   4.811   3.224   3.646 -2.0109  0.0326  0.0854
 6306TIP3   OH240408   3.143   5.973   3.121 -0.4064  0.0831  0.3879
 6306TIP3    H140409   3.139   5.884   3.086  0.3857  0.6416 -1.1958
 6306TIP3    H240410   3.097   6.026   3.056  3.8836  1.6432 -1.5836
 6307TIP3   OH240411   2.530   3.441   0.894 -0.6942 -0.0514  0.0234
 6307TIP3    H140412   2.458   3.418   0.952 -0.4918  1.3671  0.8596
 6307TIP3    H240413   2.523   3.380   0.821 -1.3923 -1.3764  1.1844
 6308TIP3   OH240414   1.584   3.540   1.748  0.4179 -0.2880  0.2620
 6308TIP3    H140415   1.592   3.453   1.786 -1.7331 -0.4432  0.4526
 6308TIP3    H240416   1.530   3.589   1.810 -1.5486  0.0196 -1.6049
 6309TIP3   OH240417   6.690   2.661   1.649  0.1037 -0.0388 -0.0748
 6309TIP3    H140418   6.652   2.697   1.728  0.0993 -1.7614  0.7357
 6309TIP3    H240419   6.619   2.611   1.609 -0.0375  1.2105 -1.4407
 6310TIP3   OH240420   1.144   1.296   2.218  0.5502  0.1331 -0.3456
 6310TIP3    H140421   1.129   1.345   2.137 -0.5965 -0.2861 -0.3893
 6310TIP3    H240422   1.235   1.316   2.241  0.3303  1.6998 -0.7570
 6311TIP3   OH240423   1.410   2.713  10.926  0.2980  0.2022  1.0248
 6311TIP3    H140424   1.361   2.760  10.859  0.4413 -2.5101 -1.0728
 6311TIP3    H240425   1.501   2.739  10.912  0.3839 -0.6947 -0.1803
 6312TIP3   OH240426   6.227   5.948  11.933  0.3266 -0.2764 -0.4107
 6312TIP3    H140427   6.291   6.005  11.977 -0.2383  0.5681 -0.6549
 6312TIP3    H240428   6.260   5.860  11.946 -0.8342 -0.2297  3.4106
 6313TIP3   OH240429   6.754   6.037  14.948 -0.3665  0.1775  0.4282
 6313TIP3    H140430   6.824   6.062  15.009 -0.6802 -0.6459  1.1379
 6313TIP3    H240431   6.757   5.942  14.946 -0.1245  0.2075 -1.1470
 6314TIP3   OH240432   0.787   1.909   5.688 -0.4387 -0.0609 -0.0852
 6314TIP3    H140433   0.865   1.942   5.643 -0.0409 -0.5936  0.2013
 6314TIP3    H240434   0.731   1.986   5.700  1.4949  1.0245  2.6633
 6315TIP3   OH240435   1.724   6.266   2.823  0.1530  0.6726  0.5707
 6315TIP3    H140436   1.767   6.324   2.886 -2.0343  3.9335 -0.7678
 6315TIP3    H240437   1.764   6.289   2.739 -0.5663  0.0753  0.0543
 6316TIP3   OH240438   3.044   4.343  15.817  0.4767 -0.2924 -0.1364
 6316TIP3    H140439   3.005   4.427  15.793 -2.5663 -1.6703 -0.2432
 6316TIP3    H240440   3.022   4.332  15.909 -0.7075 -1.7650 -0.5780
 6317TIP3   OH240441   6.357   3.902   6.335 -0.3561  0.0532 -0.4068
 6317TIP3    H140442   6.420   3.849   6.384 -0.7122  0.1403  0.1394
 6317TIP3    H240443   6.354   3.860   6.248 -1.0675 -1.1721  0.1971
 6318TIP3   OH240444   2.566   1.998  13.248 -0.2907 -0.4891 -0.0383
 6318TIP3    H140445   2.531   2.033  13.330 -1.0049 -0.2735 -0.4245
 6318TIP3    H240446   2.589   1.908  13.268  0.6503 -0.0866  0.7128
 6319TIP3   OH240447   2.316   5.044   5.142  0.0173  0.3770  0.6594
 6319TIP3    H140448   2.272   4.991   5.075 -1.4009  0.0194  1.8208
 6319TIP3    H240449   2.275   5.130   5.135  0.1866  0.4649  0.7596
 6320TIP3   OH240450   4.463   2.249  12.294  0.1400 -0.5003  0.8949
 6320TIP3    H140451   4.377   2.286  12.315 -0.0261  0.6200 -1.6471
 6320TIP3    H240452   4.481   2.188  12.366 -3.4245 -1.8564  0.7267
 6321TIP3   OH240453   4.278   5.016  14.625  0.4617 -0.7851  0.3226
 6321TIP3    H140454   4.252   5.105  14.605  0.2819 -1.2504 -1.5802
 6321TIP3    H240455   4.363   5.005  14.582 -0.1094 -1.9259 -0.5358
 6322TIP3   OH240456   0.400   5.468   3.240  0.0038  0.0537  0.2366
 6322TIP3    H140457   0.362   5.388   3.206  1.4037 -0.5115 -0.0272
 6322TIP3    H240458   0.408   5.453   3.334  0.8923 -0.3762  0.0912
 6323TIP3   OH240459   3.292   3.812   1.058 -0.1764  0.0925 -0.4336
 6323TIP3    H140460   3.353   3.875   1.097 -0.9775 -0.3879  1.6126
 6323TIP3    H240461   3.257   3.858   0.982  1.3541  1.0579 -0.5958
 6324TIP3   OH240462   0.756   5.725   1.662 -0.3959  0.1760 -0.2782
 6324TIP3    H140463   0.677   5.737   1.716 -1.7738 -1.4809 -1.8266
 6324TIP3    H240464   0.742   5.783   1.587  0.8610  1.4365  0.4453
 6325TIP3   OH240465   3.859   5.453  16.890 -0.0898  0.0321 -0.8577
 6325TIP3    H140466   3.906   5.369  16.884 -1.5406 -0.9032  0.2637
 6325TIP3    H240467   3.901   5.498  16.963 -0.7878 -0.7387  0.0459
 6326TIP3   OH240468   1.647   1.073   0.873  0.2919 -0.4028  0.2420
 6326TIP3    H140469   1.637   1.098   0.782  0.1065 -0.3155  0.2864
 6326TIP3    H240470   1.673   1.154   0.917  2.4014 -0.8782 -0.0738
 6327TIP3   OH240471   3.349   6.683  15.692 -0.4132 -0.1899  0.6065
 6327TIP3    H140472   3.383   6.763  15.733 -0.0261  0.1347 -0.3266
 6327TIP3    H240473   3.269   6.711  15.647  1.4858  0.4314 -2.5478
 6328TIP3   OH240474   2.291   1.679   0.891 -0.8013  0.3237 -0.9927
 6328TIP3    H140475   2.356   1.661   0.959  0.8567  2.1286 -2.0473
 6328TIP3    H240476   2.207   1.658   0.931  0.2375  0.4100  1.2698
 6329TIP3   OH240477   4.472   6.517  14.870  0.4380  0.6755 -0.4025
 6329TIP3    H140478   4.440   6.605  14.847  0.5239  1.0583  0.9418
 6329TIP3    H240479   4.431   6.497  14.954  1.4969 -0.0066 -0.0401
 6330TIP3   OH240480   3.012   6.135  15.512 -0.8975 -0.2818 -0.0188
 6330TIP3    H140481   3.037   6.227  15.502  1.2241 -0.7624  0.6918
 6330TIP3    H240482   2.931   6.127  15.461 -0.7933  1.8354 -0.5720
 6331TIP3   OH240483   6.200   6.296   6.310 -0.2380 -0.1075  0.2786
 6331TIP3    H140484   6.219   6.352   6.385  2.2076  0.4873 -0.7575
 6331TIP3    H240485   6.180   6.211   6.349 -0.0562  0.4687  1.6667
 6332TIP3   OH240486   4.380   6.631  14.558  0.0354 -0.0553 -0.3351
 6332TIP3    H140487   4.317   6.599  14.623  1.4503  1.0425  1.6260
 6332TIP3    H240488   4.355   6.722  14.543  0.5690  0.1024 -0.2784
 6333TIP3   OH240489   5.073   5.130  11.097 -0.2237  0.1862  0.4111
 6333TIP3    H140490   5.110   5.044  11.076  0.2504  0.4208  0.2793
 6333TIP3    H240491   5.066   5.130  11.192 -0.0336  0.0817  0.4251
 6334TIP3   OH240492   0.378   4.079   0.042  0.7150  0.2811  0.8805
 6334TIP3    H140493   0.347   4.119  -0.039  1.4458  1.0582  0.9741
 6334TIP3    H240494   0.302   4.081   0.100 -0.6341 -2.7950 -0.6473
 6335TIP3   OH240495   4.704   2.707  12.897  0.1745  0.3790  0.1703
 6335TIP3    H140496   4.689   2.623  12.941 -1.1504 -0.4728 -1.8338
 6335TIP3    H240497   4.770   2.688  12.831 -0.0489  0.9456 -0.2192
 6336TIP3   OH240498   1.608   2.617  14.088 -0.4585  0.2647 -0.3867
 6336TIP3    H140499   1.637   2.533  14.052 -0.0732  0.1100  0.2772
 6336TIP3    H240500   1.602   2.675  14.012  2.1009  0.4539 -0.4700
 6337TIP3   OH240501   3.977   1.357  12.130 -0.1901 -0.0799  0.0596
 6337TIP3    H140502   3.906   1.404  12.086 -0.9564 -0.0497  1.3025
 6337TIP3    H240503   3.934   1.284  12.174  0.3872  0.5409  1.6978
 6338TIP3   OH240504   2.434   2.409   3.273 -0.1269 -0.0626  0.2318
 6338TIP3    H140505   2.506   2.346   3.279  0.0607  0.0896 -0.3726
 6338TIP3    H240506   2.374   2.384   3.342  0.7016  0.0506  1.0026
 6339TIP3   OH240507   6.499   4.449   1.513  0.2925 -0.5279 -0.1091
 6339TIP3    H140508   6.471   4.429   1.603 -0.7619  3.8613  0.6714
 6339TIP3    H240509   6.594   4.452   1.517  0.2967 -1.4562  0.5915
 6340TIP3   OH240510   1.725   0.178   2.100 -0.0496 -1.0513 -0.1945
 6340TIP3    H140511   1.664   0.194   2.173  0.9048  2.8694 -0.1262
 6340TIP3    H240512   1.807   0.217   2.130  1.4424 -2.8625 -1.8507
 6341TIP3   OH240513   3.161   5.759  15.305 -0.6599  0.0878 -0.3542
 6341TIP3    H140514   3.196   5.847  15.292 -1.3561  0.3678 -0.3746
 6341TIP3    H240515   3.197   5.708  15.232 -1.1228  0.6167 -0.9588
 6342TIP3   OH240516   4.903   3.741   2.034 -0.1188 -0.0473  0.1186
 6342TIP3    H140517   4.836   3.696   1.983 -0.8175 -0.0143  1.0039
 6342TIP3    H240518   4.943   3.673   2.088  0.0573  0.0669  0.1338
 6343TIP3   OH240519   0.063   2.902  11.475  0.2539  0.2273  0.2683
 6343TIP3    H140520   0.007   2.885  11.550 -1.4405 -0.2239 -1.0731
 6343TIP3    H240521   0.117   2.824  11.467  0.2639  0.1746  0.8535
 6344TIP3   OH240522   2.446   2.820   4.114  0.6484 -0.4697 -0.1105
 6344TIP3    H140523   2.378   2.888   4.110  1.2806  0.1369 -0.7010
 6344TIP3    H240524   2.521   2.859   4.069  1.3187 -1.2211  0.3592
 6345TIP3   OH240525   2.828   0.303   6.328  0.1493 -0.8769  0.2120
 6345TIP3    H140526   2.889   0.303   6.402  0.4799 -2.9578 -0.0383
 6345TIP3    H240527   2.760   0.366   6.354  0.6176 -1.0578  1.9809
 6346TIP3   OH240528   3.298   4.618  14.859  0.3900 -0.1735 -0.0541
 6346TIP3    H140529   3.366   4.641  14.922  1.2892  2.7180 -1.9865
 6346TIP3    H240530   3.332   4.646  14.775 -2.3152 -0.6038 -1.3653
 6347TIP3   OH240531   4.161   5.114  16.200 -0.2324 -0.6235  0.1407
 6347TIP3    H140532   4.226   5.171  16.241 -0.3093 -0.2853 -0.2032
 6347TIP3    H240533   4.106   5.085  16.272  0.3104 -0.9273  0.4381
 6348TIP3   OH240534   3.319   0.483  15.553 -0.6093 -0.1269  0.0213
 6348TIP3    H140535   3.301   0.422  15.481  1.8509  1.2218 -1.8385
 6348TIP3    H240536   3.413   0.471  15.570 -0.5503  1.6749  1.0236
 6349TIP3   OH240537   0.916   3.949   5.072 -0.1114  0.8161  0.1644
 6349TIP3    H140538   0.882   4.003   5.142 -0.3597  1.3072 -0.3306
 6349TIP3    H240539   0.840   3.900   5.040 -0.3261  1.7334 -0.7772
 6350TIP3   OH240540   0.779   2.548  16.687  0.6303 -0.2223 -0.2296
 6350TIP3    H140541   0.724   2.554  16.609  0.5414 -0.7703 -0.2111
 6350TIP3    H240542   0.789   2.639  16.717  1.1184  0.0479 -1.1839
 6351TIP3   OH240543   0.216   0.607   5.030 -0.4792  0.8343  0.3412
 6351TIP3    H140544   0.150   0.622   4.961 -0.8548  0.2903  0.5730
 6351TIP3    H240545   0.205   0.681   5.090 -0.3343  1.1683 -0.0393
 6352TIP3   OH240546   5.175   0.312   4.509  0.2327 -0.8673  0.4629
 6352TIP3    H140547   5.238   0.269   4.567  1.7382  0.3470 -0.2444
 6352TIP3    H240548   5.222   0.324   4.427 -1.0920 -0.3816 -0.2454
 6353TIP3   OH240549   3.306   2.096  10.925  0.2219 -0.6157  1.1307
 6353TIP3    H140550   3.314   2.025  10.861  1.8328  0.2405  0.3546
 6353TIP3    H240551   3.394   2.107  10.960  0.4737  2.4052 -0.3116
 6354TIP3   OH240552   1.544   5.103  13.394 -0.8479  0.0176 -0.1266
 6354TIP3    H140553   1.482   5.135  13.328 -0.1275  0.1193 -0.7662
 6354TIP3    H240554   1.490   5.052  13.455 -1.3763 -0.9925 -1.4065
 6355TIP3   OH240555   1.444   4.497  12.836  0.7542  0.2341 -0.3646
 6355TIP3    H140556   1.408   4.576  12.875 -1.3232  0.6504 -2.9770
 6355TIP3    H240557   1.532   4.522  12.807  0.3712  1.3842 -0.5556
 6356TIP3   OH240558   1.108   3.303   4.220 -0.2760 -0.1346  0.0863
 6356TIP3    H140559   1.115   3.239   4.150  1.3905 -2.6701  2.4720
 6356TIP3    H240560   1.178   3.366   4.203 -0.6497 -0.0494 -1.1655
 6357TIP3   OH240561   6.643   2.720   1.956  0.1565 -0.4682  0.0123
 6357TIP3    H140562   6.578   2.789   1.970  0.4370  0.2144 -1.9143
 6357TIP3    H240563   6.727   2.766   1.952  0.3242 -0.8688 -1.4896
 6358TIP3   OH240564   1.011   2.256   5.237  0.1953  0.5600 -0.6070
 6358TIP3    H140565   0.924   2.298   5.238  0.4140  1.0229 -0.6416
 6358TIP3    H240566   1.071   2.327   5.214  0.6491  0.3629 -0.0453
 6359TIP3   OH240567   4.337   1.866   1.857  0.0295  0.3201  0.1761
 6359TIP3    H140568   4.326   1.780   1.897 -1.9338  0.5576  0.2004
 6359TIP3    H240569   4.248   1.893   1.834  0.3019  3.4662  2.4842
 6360TIP3   OH240570   6.596   4.878  13.107 -0.0187  0.1993 -0.2701
 6360TIP3    H140571   6.623   4.825  13.182 -0.1101 -2.8915 -2.3308
 6360TIP3    H240572   6.674   4.927  13.082  0.4103  0.1391  0.9518
 6361TIP3   OH240573   3.205   1.127  12.736  0.1468  0.1979  0.4536
 6361TIP3    H140574   3.265   1.193  12.702 -0.6611  0.3307 -0.7494
 6361TIP3    H240575   3.186   1.156  12.826 -0.2144  1.6226 -0.0608
 6362TIP3   OH240576   4.123   6.619  17.005  0.0329 -0.7154 -0.1664
 6362TIP3    H140577   4.157   6.544  17.054  0.6732  0.1903  0.7857
 6362TIP3    H240578   4.028   6.608  17.008  0.1034 -1.1580  0.4924
 6363TIP3   OH240579   0.196   4.764  13.031 -0.0974  0.0146  0.2833
 6363TIP3    H140580   0.170   4.692  12.974 -0.0728  0.9810 -0.9694
 6363TIP3    H240581   0.292   4.763  13.029 -0.0634 -0.8265  1.4508
 6364TIP3   OH240582   2.980   3.487  13.141 -0.1054 -0.2571  0.2350
 6364TIP3    H140583   2.896   3.533  13.147 -0.5426 -1.2474  2.0119
 6364TIP3    H240584   2.966   3.422  13.072 -1.0463 -0.9123  1.0326
 6365TIP3   OH240585   3.013   2.306  10.462 -0.0883 -0.2496  0.3216
 6365TIP3    H140586   3.013   2.255  10.543  0.3132  0.0043  0.4825
 6365TIP3    H240587   2.995   2.242  10.393 -0.4031 -0.4687  0.6061
 6366TIP3   OH240588   5.649   2.167  13.291 -0.4737 -0.2967 -0.0615
 6366TIP3    H140589   5.679   2.086  13.331  1.2065  0.5512  0.4482
 6366TIP3    H240590   5.702   2.235  13.333 -1.1872  0.9612 -1.1766
 6367TIP3   OH240591   4.325   1.174   5.094 -0.3718 -0.2734  0.0245
 6367TIP3    H140592   4.256   1.195   5.156  0.2927  0.7895  0.4320
 6367TIP3    H240593   4.320   1.244   5.028  0.1825 -0.2922 -0.0459
 6368TIP3   OH240594   0.131   4.452   6.036 -0.5770 -0.0698 -0.6764
 6368TIP3    H140595   0.172   4.371   6.006  3.4487  1.8606 -0.7219
 6368TIP3    H240596   0.095   4.429   6.122 -0.0649 -2.0792 -0.9568
 6369TIP3   OH240597   4.588   0.278  15.204  0.7285 -0.6738  0.7669
 6369TIP3    H140598   4.542   0.357  15.176 -0.3266 -1.7703 -0.7455
 6369TIP3    H240599   4.673   0.284  15.162  0.9581  0.0468  1.3262
 6370TIP3   OH240600   4.486   3.314   2.628 -0.4126  0.4017 -0.3692
 6370TIP3    H140601   4.406   3.307   2.680  0.0279 -0.4991  0.2133
 6370TIP3    H240602   4.460   3.361   2.549 -1.4381  0.4289 -0.0207
 6371TIP3   OH240603   3.971   3.560   0.187 -0.1331  0.0334 -0.1138
 6371TIP3    H140604   4.000   3.650   0.173  2.0827 -0.0312  3.2881
 6371TIP3    H240605   3.965   3.552   0.283 -1.5278 -3.0626 -0.3944
 6372TIP3   OH240606   4.187   6.814  16.609 -0.1740  0.4695 -0.3149
 6372TIP3    H140607   4.224   6.786  16.693  0.0090  0.3684 -0.4338
 6372TIP3    H240608   4.177   6.909  16.619 -1.3815  0.2875  0.3146
 6373TIP3   OH240609   2.366   1.549   3.836 -0.0453 -0.0547 -0.0887
 6373TIP3    H140610   2.281   1.576   3.870 -0.1312 -0.1032 -0.2656
 6373TIP3    H240611   2.347   1.474   3.780  0.0762  0.1303 -0.3789
 6374TIP3   OH240612   1.720   6.760  12.367  0.5848 -0.1154 -0.5224
 6374TIP3    H140613   1.713   6.819  12.292  1.4613 -0.9926 -1.3110
 6374TIP3    H240614   1.638   6.710  12.366  0.6721 -0.2606 -1.0299
 6375TIP3   OH240615   3.069   6.124   2.900 -0.4568 -0.3058 -0.0718
 6375TIP3    H140616   3.164   6.117   2.890 -0.3560  0.4132  0.3002
 6375TIP3    H240617   3.042   6.181   2.828 -0.6824 -0.9696 -0.5138
 6376TIP3   OH240618   0.990   6.456  10.939 -0.4747 -0.0753  0.1681
 6376TIP3    H140619   1.076   6.495  10.956 -0.1102 -0.4830 -0.7119
 6376TIP3    H240620   1.001   6.409  10.856 -2.0954  1.5875 -1.0363
 6377TIP3   OH240621   2.123   0.594   2.254  0.0737  0.1925 -0.1821
 6377TIP3    H140622   2.096   0.685   2.256  0.2251  0.2343 -0.0422
 6377TIP3    H240623   2.058   0.548   2.308  1.9558  0.7396  2.6390
 6378TIP3   OH240624   4.969   2.687   3.494 -0.5213 -0.1220  0.8679
 6378TIP3    H140625   4.946   2.766   3.446  1.7947  0.3976  0.5306
 6378TIP3    H240626   4.906   2.682   3.566 -1.6292  1.1768 -0.0108
 6379TIP3   OH240627   0.219   0.397  13.443  0.3508 -0.0023  0.0174
 6379TIP3    H140628   0.138   0.409  13.394  0.5731  0.2964 -0.2794
 6379TIP3    H240629   0.264   0.326  13.398 -0.1749 -0.8175  0.7461
 6380TIP3   OH240630   3.252   1.265   4.715  0.1443 -0.0424 -0.2941
 6380TIP3    H140631   3.293   1.348   4.693  1.1830 -0.7336 -1.0060
 6380TIP3    H240632   3.274   1.252   4.807 -1.0099  1.0268  0.1431
 6381TIP3   OH240633   5.636   0.038   5.484  0.0409 -0.5290  0.6203
 6381TIP3    H140634   5.545   0.014   5.469 -0.3225 -0.1393  2.1559
 6381TIP3    H240635   5.680  -0.045   5.503 -0.0752 -0.6555  0.3473
 6382TIP3   OH240636   1.354   1.925   5.460  0.8849  0.2608 -0.1982
 6382TIP3    H140637   1.426   1.988   5.461  1.1081  0.0062 -0.2461
 6382TIP3    H240638   1.302   1.948   5.383  1.5566 -0.2801 -0.8143
 6383TIP3   OH240639   3.265   4.855  15.648 -0.2940 -0.5082 -0.1635
 6383TIP3    H140640   3.254   4.945  15.616  0.9757 -0.4526 -0.4378
 6383TIP3    H240641   3.194   4.843  15.711  0.4185  1.1773  0.9805
 6384TIP3   OH240642   4.080   2.645   5.446 -0.5567 -0.2514 -0.0614
 6384TIP3    H140643   4.024   2.653   5.369 -1.2287  2.0178  0.6259
 6384TIP3    H240644   4.026   2.602   5.512 -0.6421 -0.3712 -0.2098
 6385TIP3   OH240645   0.851   0.809  12.152 -0.1127  0.5229  0.1180
 6385TIP3    H140646   0.932   0.829  12.199 -0.0837  0.6464  0.0182
 6385TIP3    H240647   0.880   0.764  12.073 -0.1952 -0.0937  0.4431
 6386TIP3   OH240648   2.974   5.124  16.916 -0.1331  0.3379 -0.7536
 6386TIP3    H140649   3.040   5.115  16.847  2.3805 -1.1183  1.7405
 6386TIP3    H240650   3.021   5.169  16.987 -2.8037  2.2519 -0.1231
 6387TIP3   OH240651   2.644   0.329  12.350 -0.3252 -0.2079  0.3786
 6387TIP3    H140652   2.623   0.237  12.334 -1.0928 -0.2413  1.5137
 6387TIP3    H240653   2.731   0.341  12.312 -1.1157 -0.8552 -1.6922
 6388TIP3   OH240654   3.381   5.464  12.652 -1.0482 -0.2322  0.0063
 6388TIP3    H140655   3.425   5.545  12.677 -0.0115 -1.1300  1.1938
 6388TIP3    H240656   3.384   5.463  12.556  2.2478 -0.5987  0.0441
 6389TIP3   OH240657   4.978   4.938  12.149 -0.0163 -0.0319  0.2455
 6389TIP3    H140658   4.918   4.866  12.167 -1.3617  0.7279 -1.1774
 6389TIP3    H240659   4.979   4.989  12.230 -1.0655 -0.2074  0.3729
 6390TIP3   OH240660   0.025   1.265   3.266  0.5371  0.5522 -0.0650
 6390TIP3    H140661   0.063   1.273   3.353  1.3439 -1.1651 -0.2253
 6390TIP3    H240662  -0.064   1.297   3.275 -0.5112 -2.8061  2.2325
 6391TIP3   OH240663   1.267   5.600   0.638 -0.4202 -0.8925  0.0515
 6391TIP3    H140664   1.186   5.637   0.605  0.0137  0.6833  0.7049
 6391TIP3    H240665   1.315   5.573   0.559 -0.6068  0.2524 -0.4636
 6392TIP3   OH240666   1.671   0.101   5.629 -0.0395  0.0733 -0.1772
 6392TIP3    H140667   1.733   0.046   5.678 -0.6529  0.0537  0.5817
 6392TIP3    H240668   1.711   0.188   5.628  0.1297 -0.0008  0.0776
 6393TIP3   OH240669   1.469   1.634   2.506  0.6238  0.2208  0.1345
 6393TIP3    H140670   1.468   1.729   2.512  0.5596  0.2180  0.1703
 6393TIP3    H240671   1.445   1.604   2.593 -1.1405  0.1894 -0.3386
 6394TIP3   OH240672   0.856   0.223   2.040 -0.5446 -0.3452  0.4933
 6394TIP3    H140673   0.761   0.215   2.036 -0.9052  3.1399 -0.0363
 6394TIP3    H240674   0.885   0.216   1.949 -0.2939 -1.4652  0.6604
 6395TIP3   OH240675   3.495   4.286  12.303 -0.3182 -0.2151  0.2571
 6395TIP3    H140676   3.450   4.246  12.229 -1.0161 -1.0514  1.1272
 6395TIP3    H240677   3.587   4.287  12.278 -0.3688 -1.8406 -0.0041
 6396TIP3   OH240678   6.692   4.008  11.407 -0.3112  0.0135  0.5079
 6396TIP3    H140679   6.708   4.039  11.317 -0.1252 -1.0629  0.1683
 6396TIP3    H240680   6.600   4.025  11.422 -0.6901 -1.1513 -0.4223
 6397TIP3   OH240681   2.253   5.131   0.440  0.1465  0.2400  0.6280
 6397TIP3    H140682   2.303   5.090   0.369  0.3171 -0.0493  0.9125
 6397TIP3    H240683   2.315   5.190   0.483 -0.0142  0.5678  0.4080
 6398TIP3   OH240684   2.924   4.167   5.744  0.0200  0.2118 -0.2252
 6398TIP3    H140685   2.917   4.084   5.791 -1.6316 -0.0923 -0.9607
 6398TIP3    H240686   2.987   4.218   5.795  0.3626 -1.1459  0.7505
 6399TIP3   OH240687   0.565   6.547   5.310 -0.2325 -0.0100 -1.0231
 6399TIP3    H140688   0.585   6.542   5.403 -1.8579  1.1180 -0.5928
 6399TIP3    H240689   0.609   6.471   5.272  0.1840 -0.6563  0.7085
 6400TIP3   OH240690   5.184   2.937   5.256  0.1187 -0.5457 -0.4830
 6400TIP3    H140691   5.229   3.008   5.303  0.4409 -0.4490 -0.9276
 6400TIP3    H240692   5.191   2.861   5.314  0.7334 -0.4891 -0.4768
 6401TIP3   OH240693   3.437   0.585   1.377  0.4640  0.2513  0.3653
 6401TIP3    H140694   3.385   0.517   1.421 -0.3233  0.0491 -0.8523
 6401TIP3    H240695   3.506   0.536   1.331  1.0070  0.4273  0.9793
 6402TIP3   OH240696   5.660   6.806  14.074  0.5123  0.8064  0.2183
 6402TIP3    H140697   5.713   6.734  14.040  0.1550  0.0419  1.2636
 6402TIP3    H240698   5.719   6.854  14.132  0.4764  0.8144  0.2481
 6403TIP3   OH240699   4.759   3.682   0.229 -0.1540  0.4125 -0.2931
 6403TIP3    H140700   4.771   3.660   0.322 -1.4597  1.4827  0.1498
 6403TIP3    H240701   4.841   3.655   0.188  0.2172 -0.6208  1.0656
 6404TIP3   OH240702   4.894   1.018   4.662 -0.1895 -0.0496  0.5345
 6404TIP3    H140703   4.840   1.097   4.653 -0.3108 -0.1109  0.6978
 6404TIP3    H240704   4.952   1.018   4.586  0.0626  0.3918  0.7308
 6405TIP3   OH240705   6.530   1.160  16.314 -0.1185  0.2309  0.4796
 6405TIP3    H140706   6.460   1.119  16.365 -0.2882 -0.6349 -0.4253
 6405TIP3    H240707   6.489   1.238  16.277 -0.5443 -0.1443  0.1472
 6406TIP3   OH240708   0.911   0.731   0.045 -0.0362  0.2367  0.3761
 6406TIP3    H140709   0.970   0.784  -0.008 -1.8981  1.5480 -0.4660
 6406TIP3    H240710   0.918   0.643   0.008  0.3998  0.6551 -0.5663
 6407TIP3   OH240711   5.026   4.232  14.633 -0.1928  0.2762  0.0574
 6407TIP3    H140712   5.063   4.234  14.721 -3.0851 -1.3664  1.3725
 6407TIP3    H240713   4.947   4.285  14.639 -0.8430 -0.5214 -1.3326
 6408TIP3   OH240714   3.793   1.652   2.301 -0.1273 -0.3513 -0.0104
 6408TIP3    H140715   3.752   1.714   2.361  0.8290  0.0206  0.2726
 6408TIP3    H240716   3.886   1.673   2.305  0.0808 -1.1063 -0.7275
 6409TIP3   OH240717   3.862   6.533  10.987  0.3175 -0.0231  0.1646
 6409TIP3    H140718   3.947   6.491  10.995  0.3804  0.4728  2.2081
 6409TIP3    H240719   3.803   6.463  10.957  0.9026 -0.9766  1.2423
 6410TIP3   OH240720   1.664   3.414  15.291 -0.1907  0.0805  0.0686
 6410TIP3    H140721   1.715   3.334  15.306 -0.3442 -0.2150 -0.9893
 6410TIP3    H240722   1.710   3.481  15.341  0.1348 -0.5922  0.6863
 6411TIP3   OH240723   4.921   4.196   5.166  0.6351  0.4345  0.2515
 6411TIP3    H140724   4.873   4.277   5.187  1.2006  0.6990  0.5270
 6411TIP3    H240725   4.887   4.170   5.081 -0.7740  0.0489  0.9104
 6412TIP3   OH240726   6.421   0.541   4.894 -0.0459 -0.1637 -0.0708
 6412TIP3    H140727   6.386   0.456   4.920  1.9157 -1.1528 -0.5509
 6412TIP3    H240728   6.514   0.537   4.919 -0.0461  2.0253  0.3656
 6413TIP3   OH240729   6.365   0.743  12.087 -0.7123  0.0701  0.2541
 6413TIP3    H140730   6.439   0.684  12.071 -0.5611  0.5379 -0.7881
 6413TIP3    H240731   6.400   0.831  12.073 -0.7010  0.5022  2.6942
 6414TIP3   OH240732   4.076   3.816   0.470  0.7977 -0.1975 -0.1113
 6414TIP3    H140733   4.001   3.758   0.479  1.8859 -1.6737 -0.3753
 6414TIP3    H240734   4.068   3.876   0.544 -1.0575  0.1714 -0.5886
 6415TIP3   OH240735   2.793   1.598   3.509 -0.0427 -0.2141  0.4247
 6415TIP3    H140736   2.700   1.583   3.526 -0.8607  2.3190 -1.5467
 6415TIP3    H240737   2.824   1.648   3.585 -0.8298  0.7573  0.1198
 6416TIP3   OH240738   6.186   1.756   3.367  0.1902 -0.8213  0.2493
 6416TIP3    H140739   6.214   1.756   3.459 -1.3618  0.6800  0.7670
 6416TIP3    H240740   6.257   1.799   3.320  0.7957 -1.1878  0.8311
 6417TIP3   OH240741   4.802   3.979   4.667 -0.6830 -0.3914 -0.0556
 6417TIP3    H140742   4.883   3.965   4.616  0.1125  0.8720  0.8291
 6417TIP3    H240743   4.732   3.967   4.603  0.2562 -0.2786 -1.1358
 6418TIP3   OH240744   1.333   3.934  10.987  0.2373 -0.1334 -0.0684
 6418TIP3    H140745   1.356   4.003  10.925 -0.6770  0.5958  0.3878
 6418TIP3    H240746   1.377   3.856  10.954  0.1207  0.3481 -1.3827
 6419TIP3   OH240747   4.740   0.410   0.246  0.1124 -0.1990 -0.1479
 6419TIP3    H140748   4.699   0.324   0.231 -1.0382  0.1653  0.8496
 6419TIP3    H240749   4.749   0.447   0.158 -2.6868  0.1445 -0.3180
 6420TIP3   OH240750   1.800   2.230   1.019 -0.3427  0.2923 -0.4250
 6420TIP3    H140751   1.711   2.208   1.048  0.5904 -1.0379  1.5163
 6420TIP3    H240752   1.851   2.234   1.100  1.1569  2.1267 -1.4349
 6421TIP3   OH240753   6.374   6.375  15.787 -0.3987 -0.1943  0.2302
 6421TIP3    H140754   6.447   6.313  15.782 -0.0737  0.2726 -1.2698
 6421TIP3    H240755   6.329   6.366  15.703 -0.1087  1.8700 -0.1753
 6422TIP3   OH240756   6.111   3.272  16.388  0.1060  0.6868 -0.4116
 6422TIP3    H140757   6.042   3.302  16.447 -0.0654 -0.2885 -0.0957
 6422TIP3    H240758   6.100   3.177  16.386  0.8048  0.6187 -1.1540
 6423TIP3   OH240759   2.792   3.525  10.619 -0.0118 -0.2924  0.4137
 6423TIP3    H140760   2.753   3.440  10.637 -1.1789  0.3515  0.9640
 6423TIP3    H240761   2.752   3.552  10.536 -0.0560 -0.0392  0.5169
 6424TIP3   OH240762   6.635   3.221   2.335  0.1651  0.8404 -0.2021
 6424TIP3    H140763   6.577   3.230   2.411  0.6877  1.3557  0.1385
 6424TIP3    H240764   6.615   3.134   2.300  0.4725  0.2852  0.9878
 6425TIP3   OH240765   2.062   6.392  12.489  0.1453  0.5766 -0.5370
 6425TIP3    H140766   2.060   6.364  12.397  0.1697  0.1898 -0.4216
 6425TIP3    H240767   2.100   6.318  12.535 -2.5775 -0.3956  0.2124
 6426TIP3   OH240768   1.004   0.377  12.324 -0.3400 -0.6857  0.0426
 6426TIP3    H140769   0.983   0.343  12.411 -0.6129  1.7131  0.9673
 6426TIP3    H240770   1.064   0.450  12.340 -0.8051  0.1292 -1.7422
 6427TIP3   OH240771   2.190   1.027  17.148 -0.0114 -0.1330  0.1109
 6427TIP3    H140772   2.166   1.084  17.075 -0.9839  0.3483  0.7924
 6427TIP3    H240773   2.272   0.985  17.120 -1.1737 -1.1147 -1.8790
 6428TIP3   OH240774   6.226   5.844  15.311  0.7259 -0.3140 -0.1333
 6428TIP3    H140775   6.172   5.765  15.322 -0.0919  0.2652  0.0701
 6428TIP3    H240776   6.206   5.873  15.222 -0.1646  0.5280  0.3278
 6429TIP3   OH240777   0.375   5.473   5.321 -0.8059 -0.2461 -0.0473
 6429TIP3    H140778   0.332   5.426   5.250  0.1769  0.1133 -0.8924
 6429TIP3    H240779   0.303   5.504   5.376 -1.5832 -0.3436 -0.9898
 6430TIP3   OH240780   0.389   6.373  15.141 -0.5371  0.0460  0.0774
 6430TIP3    H140781   0.351   6.434  15.077 -1.4795 -0.3499  0.2546
 6430TIP3    H240782   0.470   6.344  15.101 -1.0451 -0.0747 -0.8788
 6431TIP3   OH240783   6.810   3.446   1.921  0.1402 -0.2217  0.2778
 6431TIP3    H140784   6.734   3.502   1.903 -0.1020 -0.3632  0.8674
 6431TIP3    H240785   6.874   3.504   1.963 -1.1617 -0.9825  3.4436
 6432TIP3   OH240786   2.562   6.538  14.131  0.1122  0.5592 -0.2373
 6432TIP3    H140787   2.489   6.542  14.068 -0.3029  1.4498  0.2881
 6432TIP3    H240788   2.630   6.593  14.092  2.0156 -3.2464 -2.5797
 6433TIP3   OH240789   5.934   3.453   2.245 -0.0301 -0.8622  0.6882
 6433TIP3    H140790   6.030   3.459   2.251 -0.1927  2.7590  0.9081
 6433TIP3    H240791   5.903   3.475   2.333 -1.0997 -0.8701  0.3239
 6434TIP3   OH240792   5.603   3.365  17.290  0.3097  0.0020 -0.1527
 6434TIP3    H140793   5.563   3.441  17.331 -0.3999 -0.2500 -0.3783
 6434TIP3    H240794   5.623   3.306  17.363  1.1399  0.5271  0.0531
 6435TIP3   OH240795   4.322   3.392  12.421 -0.3001  0.0202  0.2241
 6435TIP3    H140796   4.351   3.396  12.329 -2.8201  1.6009 -0.5582
 6435TIP3    H240797   4.343   3.302  12.448  0.2175 -0.5774 -1.9866
 6436TIP3   OH240798   6.207   3.020   6.644  0.4901  0.0664  0.1112
 6436TIP3    H140799   6.249   2.955   6.588  1.0877  1.6078 -1.2667
 6436TIP3    H240800   6.272   3.042   6.710  0.3631 -0.5777  0.4497
 6437TIP3   OH240801   0.642   0.434  12.704  0.2315  0.4639  0.7056
 6437TIP3    H140802   0.575   0.399  12.646  1.1175 -0.2197  0.0772
 6437TIP3    H240803   0.641   0.529  12.688  0.1997  0.3246 -0.1343
 6438TIP3   OH240804   0.468   1.720  13.882  0.3081 -0.7022  0.1414
 6438TIP3    H140805   0.397   1.701  13.943  0.0357 -1.7209 -0.4952
 6438TIP3    H240806   0.429   1.781  13.819  0.1646 -0.8026  0.1313
 6439TIP3   OH240807   6.608   4.083  16.360  0.4153  1.1085  0.9904
 6439TIP3    H140808   6.532   4.097  16.416 -0.2481  0.9832  0.1244
 6439TIP3    H240809   6.674   4.144  16.393 -0.3578  1.8424  1.1754
 6440TIP3   OH240810   6.110   5.217  15.760  0.8941  0.2501  0.4576
 6440TIP3    H140811   6.093   5.272  15.836  2.1946  0.5650  0.5417
 6440TIP3    H240812   6.087   5.129  15.788 -0.9261  0.7085  0.4194
 6441TIP3   OH240813   1.233   2.900  10.794 -0.1883  0.0162  0.4061
 6441TIP3    H140814   1.289   2.976  10.779  1.8144 -1.2399  1.3464
 6441TIP3    H240815   1.171   2.902  10.721  1.7475  0.8395 -1.2893
 6442TIP3   OH240816   3.082   5.001  13.998 -0.3471 -0.6756  0.3057
 6442TIP3    H140817   3.099   4.923  14.050  2.5241 -0.2328  0.1142
 6442TIP3    H240818   3.014   4.975  13.936 -1.9160 -1.9794  2.5009
 6443TIP3   OH240819   4.597   6.730   1.625  0.5457  0.2078 -0.4056
 6443TIP3    H140820   4.614   6.788   1.700 -1.7753 -0.9473  1.0747
 6443TIP3    H240821   4.682   6.689   1.608  1.4997  1.7372  0.5160
 6444TIP3   OH240822   1.015   4.822   0.756  0.2343  0.5115 -0.4123
 6444TIP3    H140823   0.971   4.810   0.672  1.4470  1.2258 -1.1570
 6444TIP3    H240824   1.108   4.827   0.735  0.4532  2.0827  0.8137
 6445TIP3   OH240825   4.039   0.365  15.277  1.0555  0.6311 -0.5190
 6445TIP3    H140826   4.120   0.406  15.247  0.4072  1.5023 -1.1271
 6445TIP3    H240827   3.986   0.439  15.310  0.0619  0.2223 -1.1832
 6446TIP3   OH240828   5.416   4.346  16.174  0.2718  0.0946 -0.1633
 6446TIP3    H140829   5.450   4.264  16.138 -2.0730 -1.0708  0.1658
 6446TIP3    H240830   5.365   4.319  16.251 -0.3704  1.8711  0.0435
 6447TIP3   OH240831   2.912   5.896   5.834 -0.7259  0.2744 -0.2958
 6447TIP3    H140832   2.917   5.910   5.739 -0.3568 -0.7161 -0.4298
 6447TIP3    H240833   2.938   5.980   5.872 -2.3978  1.1621 -1.0613
 6448TIP3   OH240834   5.440   1.349   4.518 -0.5698 -0.1635 -0.0853
 6448TIP3    H140835   5.444   1.286   4.590  1.2955  1.3073  1.1529
 6448TIP3    H240836   5.415   1.431   4.561 -0.5993  0.4764 -1.3173
 6449TIP3   OH240837   5.384   2.756   0.080 -0.1777 -0.0635  0.9302
 6449TIP3    H140838   5.371   2.664   0.057 -0.0724  0.0376  0.4516
 6449TIP3    H240839   5.439   2.754   0.159 -0.4696 -0.4160  1.1237
 6450TIP3   OH240840   0.464   5.454  17.191  0.1980 -0.1602  0.5006
 6450TIP3    H140841   0.401   5.399  17.143 -0.6989  0.4615  0.9460
 6450TIP3    H240842   0.434   5.448  17.282  1.0858 -0.2518  0.7860
 6451TIP3   OH240843   6.548   4.022   0.732 -0.1774 -0.3617 -0.4191
 6451TIP3    H140844   6.555   3.926   0.725  1.1270 -0.5242  2.4546
 6451TIP3    H240845   6.637   4.053   0.720 -0.2389  0.3240  0.8523
 6452TIP3   OH240846   0.109   5.101  14.918 -0.0699  0.5736  0.3343
 6452TIP3    H140847   0.144   5.174  14.969  1.7581  0.6792 -1.0561
 6452TIP3    H240848   0.116   5.129  14.827 -1.7127 -0.3232 -0.0876
 6453TIP3   OH240849   4.029   3.568   5.300  0.9181 -0.3298 -0.0571
 6453TIP3    H140850   4.036   3.634   5.231 -0.0989  0.0357  0.1811
 6453TIP3    H240851   4.079   3.604   5.373  1.0973 -0.2252 -0.2315
 6454TIP3   OH240852   2.631   1.383   5.686 -0.4639  0.0300 -0.3815
 6454TIP3    H140853   2.573   1.317   5.650 -0.2036 -0.0978 -0.5656
 6454TIP3    H240854   2.717   1.341   5.690 -0.4349  0.1314  0.1324
 6455TIP3   OH240855   5.823   3.531  16.903 -0.3560 -0.2623  0.2298
 6455TIP3    H140856   5.820   3.581  16.821  0.8816  1.1072  0.9860
 6455TIP3    H240857   5.732   3.506  16.919 -0.8086  0.6073 -0.8786
 6456TIP3   OH240858   5.934   0.442  14.627  0.1422  0.0046  0.2556
 6456TIP3    H140859   5.844   0.473  14.615  0.7782  1.2910 -1.5180
 6456TIP3    H240860   5.981   0.519  14.659  0.5274 -0.8096  1.6934
 6457TIP3   OH240861   6.139   0.642  11.959 -0.1227  0.3996 -0.3050
 6457TIP3    H140862   6.093   0.584  12.019 -1.4163  0.3672 -1.2971
 6457TIP3    H240863   6.221   0.662  12.003 -0.8944  0.0984  1.3073
 6458TIP3   OH240864   6.338   5.083  10.706  0.7936  0.3494 -0.0619
 6458TIP3    H140865   6.338   5.178  10.696  1.3036  0.1769 -1.7640
 6458TIP3    H240866   6.431   5.059  10.708  0.6658 -0.1408  0.0862
 6459TIP3   OH240867   3.438   4.667  11.151  0.4514  0.0261  0.0596
 6459TIP3    H140868   3.346   4.649  11.171  0.3664 -0.4245 -0.7365
 6459TIP3    H240869   3.438   4.755  11.112  0.2999 -0.1813 -0.4051
 6460TIP3   OH240870   5.067   4.990  12.772  0.2016 -0.0536 -0.4765
 6460TIP3    H140871   5.134   4.921  12.777  2.2140  1.9566  1.4736
 6460TIP3    H240872   5.084   5.035  12.690  0.6247 -0.1701 -0.4551
 6461TIP3   OH240873   1.184   3.097  15.199  0.2943 -0.0425  0.7405
 6461TIP3    H140874   1.114   3.037  15.172  1.6200 -1.7308  0.9322
 6461TIP3    H240875   1.187   3.088  15.294  1.9783 -1.4026  0.5823
 6462TIP3   OH240876   2.359   0.507  13.812  0.3751  0.6922  0.1009
 6462TIP3    H140877   2.411   0.530  13.890  0.9243  1.5117 -0.4903
 6462TIP3    H240878   2.296   0.579  13.804 -0.5702 -0.0694  0.5497
 6463TIP3   OH240879   2.699   0.030  11.555  0.0287 -0.2920  0.3115
 6463TIP3    H140880   2.718   0.118  11.523 -0.7544  0.3194  1.5186
 6463TIP3    H240881   2.746  -0.028  11.494 -0.3193  0.8976 -1.1201
 6464TIP3   OH240882   5.321   6.776   4.168  0.3303  0.0380 -0.0814
 6464TIP3    H140883   5.356   6.764   4.257 -1.0780  0.3029  0.5187
 6464TIP3    H240884   5.237   6.731   4.170 -0.0384  0.6804 -1.0675
 6465TIP3   OH240885   4.918   6.048  10.863  0.1073 -0.5461  0.1575
 6465TIP3    H140886   4.940   5.979  10.801 -2.7725 -1.8455  0.4596
 6465TIP3    H240887   4.870   6.113  10.811  1.7066  0.6142  0.1216
 6466TIP3   OH240888   2.319   5.849   2.821  0.1070  0.0060 -0.0263
 6466TIP3    H140889   2.298   5.942   2.812 -0.5639 -0.0239  1.2429
 6466TIP3    H240890   2.389   5.846   2.886  0.1886 -0.3711 -0.1282
 6467TIP3   OH240891   2.663   0.865   0.689 -0.4012  0.1297 -0.8264
 6467TIP3    H140892   2.603   0.939   0.681 -0.5290  0.0746 -0.3724
 6467TIP3    H240893   2.738   0.888   0.634 -0.4889  0.5417 -0.7702
 6468TIP3   OH240894   0.988   2.405  13.823  0.3924 -0.1185 -0.2899
 6468TIP3    H140895   1.078   2.417  13.793  1.1552 -0.7982  1.6089
 6468TIP3    H240896   0.945   2.488  13.806  0.9410 -0.2860 -2.6326
 6469TIP3   OH240897   1.741   6.704   2.116 -0.2802 -0.0298 -0.4756
 6469TIP3    H140898   1.691   6.778   2.151 -1.3823 -1.0137  0.0523
 6469TIP3    H240899   1.683   6.629   2.125  1.2774 -1.1975  0.1049
 6470TIP3   OH240900   4.601   5.483  17.240  0.1347 -0.1007  0.2786
 6470TIP3    H140901   4.541   5.425  17.288  0.0762 -0.4415 -0.2024
 6470TIP3    H240902   4.635   5.428  17.169 -1.1700  0.9217 -1.1700
 6471TIP3   OH240903   4.751   6.063  12.461  0.2344  0.2004 -0.1728
 6471TIP3    H140904   4.808   6.134  12.432 -0.9516  1.1400 -0.2441
 6471TIP3    H240905   4.691   6.048  12.387  1.2683 -1.7323 -0.6468
 6472TIP3   OH240906   4.198   0.183  17.030 -0.1386 -0.0879  0.6307
 6472TIP3    H140907   4.176   0.242  17.103 -3.7719 -0.5005 -0.0378
 6472TIP3    H240908   4.248   0.238  16.970  1.4104  0.7357  2.6409
 6473TIP3   OH240909   6.411   1.159   2.735 -0.0940 -0.6031  0.1014
 6473TIP3    H140910   6.374   1.099   2.670 -1.3415  0.5068 -0.2410
 6473TIP3    H240911   6.336   1.192   2.783  0.5969  0.4932  0.4549
 6474TIP3   OH240912   5.170   5.448  13.085 -0.0131  0.3799  0.4347
 6474TIP3    H140913   5.100   5.466  13.147 -0.0248 -2.9623  1.4607
 6474TIP3    H240914   5.243   5.418  13.139  0.6373 -0.6978 -1.0054
 6475TIP3   OH240915   2.102   1.324   0.449  0.0715 -0.1152  0.1484
 6475TIP3    H140916   2.020   1.328   0.399 -1.4607 -0.7743  2.4954
 6475TIP3    H240917   2.077   1.353   0.537  1.9444 -2.1552  1.4001
 6476TIP3   OH240918   6.403   6.446  11.169  0.0434  0.6248 -0.5303
 6476TIP3    H140919   6.439   6.478  11.086  0.2346  1.7257 -0.0245
 6476TIP3    H240920   6.363   6.362  11.146  0.3641  0.7690 -1.6758
 6477TIP3   OH240921   5.010   1.629  15.698 -0.6515 -0.1089 -0.4760
 6477TIP3    H140922   5.051   1.689  15.636 -1.2843  0.0766 -0.7235
 6477TIP3    H240923   4.980   1.556  15.644  2.5942 -2.0113  0.1940
 6478TIP3   OH240924   1.340   5.531  16.628 -0.5213 -0.0842 -0.2675
 6478TIP3    H140925   1.377   5.614  16.598  0.9814 -0.6840 -0.1252
 6478TIP3    H240926   1.321   5.483  16.548 -1.1333  0.2790 -0.3443
 6479TIP3   OH240927   2.621   2.254   1.279  0.6354 -0.4165 -0.6435
 6479TIP3    H140928   2.690   2.298   1.228  1.7953 -2.2971 -0.7740
 6479TIP3    H240929   2.585   2.190   1.218 -2.5537  1.7945 -1.1690
 6480TIP3   OH240930   0.943   3.488  13.417 -0.2369  0.5514 -0.2596
 6480TIP3    H140931   0.940   3.406  13.368 -0.3834  0.4663 -0.1127
 6480TIP3    H240932   0.882   3.546  13.371 -1.5507 -0.0296  0.7020
 6481TIP3   OH240933   0.870   1.347   1.725  0.4839 -0.1774  0.2552
 6481TIP3    H140934   0.813   1.348   1.648  0.0562 -0.5294  0.5645
 6481TIP3    H240935   0.864   1.258   1.759  0.6668 -0.0259  0.6962
 6482TIP3   OH240936   3.192   5.632   0.974 -0.4804  0.1751 -0.2512
 6482TIP3    H140937   3.244   5.611   0.897 -1.7521 -0.2802 -1.0068
 6482TIP3    H240938   3.115   5.576   0.967 -0.5666  0.0522  1.4139
 6483TIP3   OH240939   2.168   3.711   3.959 -0.0831  0.0932 -0.0350
 6483TIP3    H140940   2.200   3.656   4.030  0.3928  1.0905  0.5250
 6483TIP3    H240941   2.084   3.672   3.934  0.5637 -1.2795 -0.0913
 6484TIP3   OH240942   6.523   5.476   2.629  0.1396  0.0712 -0.5096
 6484TIP3    H140943   6.612   5.496   2.599 -0.3318  2.7786 -0.2388
 6484TIP3    H240944   6.472   5.466   2.548  0.2214  0.8493 -0.6634
 6485TIP3   OH240945   2.495   0.671  13.621 -0.5028 -0.4827 -0.2688
 6485TIP3    H140946   2.437   0.619  13.677 -1.5881 -0.1366 -1.0555
 6485TIP3    H240947   2.532   0.607  13.559  1.4174 -1.0312  1.3853
 6486TIP3   OH240948   1.376   6.806   2.648 -0.1049 -0.4129  0.1295
 6486TIP3    H140949   1.422   6.722   2.638 -0.7581 -0.9118  1.1346
 6486TIP3    H240950   1.298   6.784   2.699  0.2962  0.9945  1.3992
 6487TIP3   OH240951   0.844   2.472   0.842  0.6068 -0.2127 -0.1833
 6487TIP3    H140952   0.822   2.543   0.782  1.5068 -0.5341 -0.9126
 6487TIP3    H240953   0.807   2.394   0.801  1.5857 -0.4943 -0.5283
 6488TIP3   OH240954   1.038   5.736   6.252 -1.1207 -0.9384 -0.1289
 6488TIP3    H140955   1.092   5.757   6.329 -3.4057 -0.6458  1.4534
 6488TIP3    H240956   1.048   5.641   6.242 -0.8234 -0.9853  0.5388
 6489TIP3   OH240957   4.819   4.209  15.982 -0.4677 -0.1175  0.2754
 6489TIP3    H140958   4.899   4.237  15.938 -0.7543  0.5027  0.1431
 6489TIP3    H240959   4.819   4.113  15.973  0.1448 -0.1023  0.0879
 6490TIP3   OH240960   1.123   0.752   5.127  0.2701  0.2458  0.3477
 6490TIP3    H140961   1.061   0.735   5.056 -0.2731  1.4656  0.5105
 6490TIP3    H240962   1.182   0.820   5.093 -0.0376  0.8872  1.0660
 6491TIP3   OH240963   2.493   5.545  12.596  0.2044 -0.0231  0.2823
 6491TIP3    H140964   2.583   5.548  12.562 -0.0661 -1.3762 -0.6023
 6491TIP3    H240965   2.472   5.636  12.615  1.8907  0.2757  0.8423
 6492TIP3   OH240966   4.852   5.299   3.830 -0.2073  0.3229 -0.8759
 6492TIP3    H140967   4.799   5.241   3.885 -0.0240  0.9113 -0.0680
 6492TIP3    H240968   4.940   5.264   3.836 -0.5230 -0.7937 -2.4049
 6493TIP3   OH240969   2.939   4.683   6.752 -0.0947 -0.1779 -0.2191
 6493TIP3    H140970   3.026   4.668   6.716 -0.1528  1.0036 -0.8948
 6493TIP3    H240971   2.951   4.752   6.817  0.1023 -2.6923  2.4864
 6494TIP3   OH240972   5.650   2.483  17.143 -0.3735 -0.3097  1.0049
 6494TIP3    H140973   5.674   2.410  17.087  2.2586  1.3503 -0.1156
 6494TIP3    H240974   5.718   2.487  17.209 -0.9447  0.5972  1.5580
 6495TIP3   OH240975   0.127   0.640  17.080  0.4536 -0.2788 -0.0286
 6495TIP3    H140976   0.176   0.657  17.000 -0.1359 -0.3180 -0.3978
 6495TIP3    H240977   0.045   0.688  17.069  0.0575 -0.8859  0.2253
 6496TIP3   OH240978   3.560   6.527   1.749  0.0221 -0.6496  0.1913
 6496TIP3    H140979   3.470   6.544   1.722  1.2551  1.5021 -2.9193
 6496TIP3    H240980   3.584   6.447   1.702  1.0402  1.1710 -2.5462
 6497TIP3   OH240981   5.889   4.291   3.187 -0.1510 -0.2185 -0.4685
 6497TIP3    H140982   5.903   4.275   3.280 -1.6023  0.3902 -0.1345
 6497TIP3    H240983   5.804   4.251   3.168 -0.2194  0.3317 -1.3523
 6498TIP3   OH240984   3.931   2.860  13.092 -0.1173 -0.0588  0.1028
 6498TIP3    H140985   3.841   2.878  13.117  0.1262  1.2024  0.0969
 6498TIP3    H240986   3.933   2.766  13.073 -1.2361 -0.2470  0.8917
 6499TIP3   OH240987   6.420   4.673  11.928 -0.0372 -0.0327  0.1954
 6499TIP3    H140988   6.342   4.654  11.981 -0.4610  1.5488  0.1736
 6499TIP3    H240989   6.422   4.769  11.922  0.0506 -0.1498 -2.5578
 6500TIP3   OH240990   4.321   5.667   5.712 -0.3025  0.2134  0.5695
 6500TIP3    H140991   4.343   5.756   5.688  0.6202  0.2720  1.5725
 6500TIP3    H240992   4.371   5.612   5.651  1.2867  0.3684  1.6828
 6501TIP3   OH240993   5.789   4.284   1.698  0.2843 -0.5411 -0.2926
 6501TIP3    H140994   5.815   4.376   1.690  0.2255 -0.3879  1.0980
 6501TIP3    H240995   5.694   4.286   1.704  0.3445 -0.6121  0.7152
 6502TIP3   OH240996   2.191   2.854   4.430  0.0721 -0.5247 -0.4682
 6502TIP3    H140997   2.205   2.898   4.346  3.0252 -0.5992 -0.0527
 6502TIP3    H240998   2.099   2.873   4.452  0.2057  2.2829 -2.1075
 6503TIP3   OH240999   6.748   0.169   4.290  0.1810 -0.1440 -0.4923
 6503TIP3    H141000   6.765   0.174   4.384 -0.0274 -0.0609 -0.4602
 6503TIP3    H241001   6.835   0.157   4.251 -0.0436 -3.4884 -0.0702
 6504TIP3   OH241002   0.047   1.321   3.571 -0.3746  0.2672  0.0534
 6504TIP3    H141003   0.006   1.342   3.655 -0.9086  1.4903 -0.5056
 6504TIP3    H241004   0.128   1.276   3.595 -0.4945  0.6460  1.2289
 6505TIP3   OH241005   1.715   5.025  15.757 -0.3575 -0.3635 -0.5960
 6505TIP3    H141006   1.621   5.037  15.743  0.2043  2.2281 -2.5977
 6505TIP3    H241007   1.744   4.974  15.681 -0.6828 -4.5510  1.9003
 6506TIP3   OH241008   2.795   6.045   4.760  0.2147 -0.9387 -0.2606
 6506TIP3    H141009   2.829   6.116   4.814  1.1431 -1.2155 -0.4732
 6506TIP3    H241010   2.727   6.086   4.707  1.3777  0.0127 -1.0548
 6507TIP3   OH241011   4.237   0.722  12.531 -0.1610  0.2074 -0.2325
 6507TIP3    H141012   4.309   0.769  12.491 -1.0101  1.3392 -0.4674
 6507TIP3    H241013   4.179   0.700  12.458  0.9604 -2.5881 -0.3435
 6508TIP3   OH241014   1.198   0.851   3.269 -0.3408  0.3539  0.2378
 6508TIP3    H141015   1.116   0.806   3.290  0.5800 -0.9441  1.1214
 6508TIP3    H241016   1.231   0.880   3.354  0.7677 -0.2656  0.0228
 6509TIP3   OH241017   5.479   5.446  14.960  0.2336 -0.6275 -0.4875
 6509TIP3    H141018   5.481   5.355  14.989 -1.7542 -0.4812  0.1591
 6509TIP3    H241019   5.423   5.445  14.882 -3.2952  0.6655  1.9367
 6510TIP3   OH241020   5.141   5.253  17.057  0.6831 -0.7550 -1.1785
 6510TIP3    H141021   5.047   5.270  17.056  1.3762  3.5526 -2.0163
 6510TIP3    H241022   5.162   5.245  17.150 -0.3708 -0.9921 -0.9488
 6511TIP3   OH241023   3.703   1.358   2.904 -0.2945  0.0649 -0.3651
 6511TIP3    H141024   3.642   1.286   2.921  0.4346 -0.6536 -0.7445
 6511TIP3    H241025   3.730   1.388   2.990 -0.7016 -0.0357 -0.2035
 6512TIP3   OH241026   4.345   1.729  14.474 -0.3030  0.2716  0.0034
 6512TIP3    H141027   4.357   1.824  14.475  0.7767  0.1305  0.1890
 6512TIP3    H241028   4.385   1.699  14.555 -0.1675 -0.4038 -0.3100
 6513TIP3   OH241029   2.867   3.850  14.266 -0.1975 -0.3060 -0.4472
 6513TIP3    H141030   2.892   3.838  14.358  0.9079 -0.2992 -0.7410
 6513TIP3    H241031   2.806   3.924  14.268  1.0629  0.7532  0.1006
 6514TIP3   OH241032   3.885   4.082  12.376 -0.8115 -1.1788  0.0058
 6514TIP3    H141033   3.978   4.059  12.376 -0.4464  0.1936 -0.8109
 6514TIP3    H241034   3.861   4.087  12.468 -0.2747 -2.2748  0.2158
 6515TIP3   OH241035   1.961   4.263  15.216 -0.1070 -0.4054 -0.3402
 6515TIP3    H141036   1.917   4.216  15.287  0.7400  0.2927  0.6513
 6515TIP3    H241037   1.901   4.332  15.191 -1.4357 -2.0690 -1.9124
 6516TIP3   OH241038   1.979   4.870   3.137  0.2009  0.4238 -0.4908
 6516TIP3    H141039   1.997   4.855   3.229 -1.9840 -0.0711 -0.1225
 6516TIP3    H241040   1.961   4.964   3.130 -1.3436  0.1652 -0.0981
 6517TIP3   OH241041   0.577   0.649   2.909 -0.3347  0.1550  0.0189
 6517TIP3    H141042   0.500   0.625   2.858 -1.2922  2.8179  0.1747
 6517TIP3    H241043   0.646   0.593   2.874 -2.1230 -1.6886 -0.6910
 6518TIP3   OH241044   2.969   5.446   4.717 -0.2902 -0.2888  0.1878
 6518TIP3    H141045   3.034   5.377   4.713 -0.5058 -0.4549 -0.3508
 6518TIP3    H241046   2.993   5.507   4.647  0.6158  0.8097  1.4206
 6519TIP3   OH241047   5.128   2.385   4.334  0.0963 -0.2714  0.2415
 6519TIP3    H141048   5.081   2.320   4.386  0.4327 -1.7842 -1.2966
 6519TIP3    H241049   5.220   2.374   4.360  0.2116 -0.7499 -0.3420
 6520TIP3   OH241050   5.836   0.320  11.425 -0.7473 -0.0746 -0.2880
 6520TIP3    H141051   5.804   0.405  11.396 -3.2069 -0.7813  0.2596
 6520TIP3    H241052   5.831   0.264  11.347 -1.1166 -0.2526 -0.1385
 6521TIP3   OH241053   3.978   5.312  15.325 -0.2241  0.2042 -0.2368
 6521TIP3    H141054   3.960   5.218  15.329 -1.3456  0.3930 -0.7789
 6521TIP3    H241055   4.072   5.318  15.343 -0.2737 -0.9565  0.5285
 6522TIP3   OH241056   0.244   1.812  11.929 -0.2822 -0.2222  0.8128
 6522TIP3    H141057   0.202   1.757  11.995 -1.7558  0.7321  0.6957
 6522TIP3    H241058   0.311   1.861  11.978 -1.0528  0.1411  1.5066
 6523TIP3   OH241059   0.921   2.868   0.928 -0.1234  0.2528 -0.3110
 6523TIP3    H141060   0.918   2.779   0.896  0.7967 -0.5822  1.7972
 6523TIP3    H241061   0.902   2.861   1.022  0.1709  2.2282 -0.0633
 6524TIP3   OH241062   3.497   6.792  14.290 -0.1088  0.1243  0.1773
 6524TIP3    H141063   3.524   6.718  14.344 -0.8486 -0.4151 -0.1794
 6524TIP3    H241064   3.564   6.858  14.305  0.5309 -0.5945  0.5450
 6525TIP3   OH241065   3.290   2.422   6.321  0.0267  0.6429  0.2961
 6525TIP3    H141066   3.291   2.327   6.331  1.0009  0.6148  0.0121
 6525TIP3    H241067   3.200   2.448   6.339 -0.8811 -0.6274 -2.1388
 6526TIP3   OH241068   1.541   1.821  16.023 -0.1309 -0.2862 -0.2431
 6526TIP3    H141069   1.476   1.890  16.012 -1.0216 -1.3004 -1.7252
 6526TIP3    H241070   1.495   1.752  16.071 -0.2184 -1.0525 -1.3894
 6527TIP3   OH241071   1.157   3.003   5.823  0.0742  0.1362 -0.0869
 6527TIP3    H141072   1.191   3.093   5.826 -0.4975  0.3126  2.7485
 6527TIP3    H241073   1.062   3.014   5.815 -0.0080 -0.2073  0.4059
 6528TIP3   OH241074   3.869   0.977  14.499  0.2866  0.7648  0.4049
 6528TIP3    H141075   3.802   0.909  14.503 -1.6543  2.6040 -0.0169
 6528TIP3    H241076   3.923   0.961  14.577 -2.1292  0.7342  2.1411
 6529TIP3   OH241077   4.423   2.684  13.338 -0.3617  0.2438  0.3450
 6529TIP3    H141078   4.454   2.754  13.282 -0.4019 -0.3124 -0.3824
 6529TIP3    H241079   4.339   2.715  13.371 -1.7422 -0.6219 -2.2245
 6530TIP3   OH241080   0.700   5.384   0.558 -0.3218 -0.0527  0.1165
 6530TIP3    H141081   0.758   5.442   0.607 -0.2038  0.1759 -0.2927
 6530TIP3    H241082   0.631   5.442   0.524 -1.6227 -0.5331  1.8315
 6531TIP3   OH241083   1.948   3.102  14.940  0.3396 -0.1183 -0.6122
 6531TIP3    H141084   1.922   3.015  14.970 -1.2330 -0.8001 -3.7047
 6531TIP3    H241085   2.002   3.136  15.010 -0.7609 -2.7418  1.6230
 6532TIP3   OH241086   4.715   5.906   3.685 -0.4868  0.0144  0.3061
 6532TIP3    H141087   4.711   5.910   3.590  0.7438  0.6713  0.2751
 6532TIP3    H241088   4.690   5.816   3.706 -0.9920 -0.0680 -0.6156
 6533TIP3   OH241089   1.106   2.317   0.611  0.8084 -0.3150 -0.4103
 6533TIP3    H141090   1.118   2.355   0.698 -0.6637  0.9779 -0.7539
 6533TIP3    H241091   1.111   2.223   0.625  1.8473 -0.0823  0.8683
 6534TIP3   OH241092   0.396   6.499  17.036  0.1252  0.0005  0.4109
 6534TIP3    H141093   0.356   6.558  16.973  2.7993  0.4302 -0.9695
 6534TIP3    H241094   0.335   6.425  17.043 -0.6138  0.3505 -2.0293
 6535TIP3   OH241095   4.436   3.994  14.549 -0.0855  0.1627  0.2303
 6535TIP3    H141096   4.435   3.899  14.563 -0.3002  0.3043  1.1925
 6535TIP3    H241097   4.421   4.032  14.636  0.2857  1.0853 -0.0981
 6536TIP3   OH241098   5.355   5.687  16.280  0.0243 -0.2546 -0.1935
 6536TIP3    H141099   5.424   5.662  16.341  0.2743 -0.8762 -0.7256
 6536TIP3    H241100   5.311   5.760  16.323 -1.8514 -2.6784  2.2619
 6537TIP3   OH241101   0.735   0.749   0.635  0.2956  0.1982 -0.0194
 6537TIP3    H141102   0.660   0.703   0.598  0.3233  0.6665 -0.6587
 6537TIP3    H241103   0.809   0.720   0.583  1.0208 -2.2662  2.2274
 6538TIP3   OH241104   4.816   6.236   4.662 -0.5244 -0.5306 -0.1947
 6538TIP3    H141105   4.806   6.239   4.757  0.7321 -2.8132  0.0430
 6538TIP3    H241106   4.889   6.295   4.643 -0.6693 -0.2026  0.2669
 6539TIP3   OH241107   5.855   1.995  12.281  0.1761 -0.6686  0.1134
 6539TIP3    H141108   5.845   1.977  12.188  0.2710  1.1188 -0.2537
 6539TIP3    H241109   5.846   2.090  12.289  1.6440 -0.6311  1.7319
 6540TIP3   OH241110   2.814   6.512  16.105  0.0711 -0.6833 -0.5719
 6540TIP3    H141111   2.839   6.420  16.119  1.6079 -0.5390 -2.2057
 6540TIP3    H241112   2.897   6.557  16.088 -0.7673  0.8352 -0.6912
 6541TIP3   OH241113   3.659   2.540  15.241 -0.2393 -0.4573  0.2753
 6541TIP3    H141114   3.615   2.495  15.314  2.0942 -0.2429  1.8502
 6541TIP3    H241115   3.751   2.516  15.250  0.2598  0.5799 -1.8886
 6542TIP3   OH241116   1.194   1.993   2.463  0.6452 -0.3581 -0.0671
 6542TIP3    H141117   1.173   2.059   2.529 -0.9313 -2.3379  1.4799
 6542TIP3    H241118   1.275   2.024   2.423  1.3522  1.1700  2.4205
 6543TIP3   OH241119   3.759   1.244   3.563  0.2925  0.4579  0.5915
 6543TIP3    H141120   3.672   1.258   3.524  0.8107 -0.7065 -1.0539
 6543TIP3    H241121   3.813   1.314   3.526  0.7073 -0.4588 -0.5740
 6544TIP3   OH241122   2.934   0.919  12.098 -0.3564 -0.2705  0.1073
 6544TIP3    H141123   2.936   0.881  12.010  0.7451  2.3969 -1.1106
 6544TIP3    H241124   2.913   1.012  12.083 -0.0065  0.2557  2.6487
 6545TIP3   OH241125   3.470   1.716  14.928  0.5145  0.5234 -0.4394
 6545TIP3    H141126   3.505   1.772  14.859 -0.2494  0.7805 -0.6199
 6545TIP3    H241127   3.426   1.776  14.988  0.4269  0.2056 -0.1807
 6546TIP3   OH241128   3.031   3.241  14.614 -0.5026  0.5609  0.3103
 6546TIP3    H141129   2.974   3.298  14.665  1.0055  2.1698  0.2305
 6546TIP3    H241130   2.993   3.242  14.526 -0.8502  0.9306  0.4635
 6547TIP3   OH241131   2.161   1.637   2.705 -0.3040  0.4198  0.3912
 6547TIP3    H141132   2.066   1.637   2.720 -0.0029  0.5349  2.4483
 6547TIP3    H241133   2.173   1.586   2.625 -2.2849  2.3340 -1.2012
 6548TIP3   OH241134   0.898   2.103   0.185 -0.8462  0.2651  0.1759
 6548TIP3    H141135   0.915   2.047   0.262 -2.2904  0.2649  0.5032
 6548TIP3    H241136   0.803   2.102   0.176 -0.8078  1.8880 -0.4119
 6549TIP3   OH241137   4.623   1.957  15.727  0.2718  0.1441  0.3456
 6549TIP3    H141138   4.630   1.877  15.675  1.0349  0.6339 -0.3168
 6549TIP3    H241139   4.705   1.960  15.777 -0.1851  0.0014  1.0991
 6550TIP3   OH241140   1.860   4.250   5.552 -0.3864 -0.3950 -0.0575
 6550TIP3    H141141   1.938   4.199   5.530 -0.2497 -0.4042  0.4332
 6550TIP3    H241142   1.835   4.293   5.471  0.0429 -0.5125 -0.2516
 6551TIP3   OH241143   6.366   1.261   3.919 -0.0923 -0.2172 -0.2278
 6551TIP3    H141144   6.441   1.316   3.898  0.3004 -0.2720  0.9910
 6551TIP3    H241145   6.315   1.312   3.982  0.1292 -1.1192  0.6966
 6552TIP3   OH241146   6.518   4.083  10.091 -0.1933 -0.2223 -0.4693
 6552TIP3    H141147   6.477   4.153  10.039  0.4273 -1.1924 -2.3244
 6552TIP3    H241148   6.456   4.010  10.086 -0.3315 -0.1798  0.5448
 6553TIP3   OH241149   2.583   6.505  12.621  0.1377 -0.2905 -0.3728
 6553TIP3    H141150   2.520   6.574  12.639  0.0446 -0.4778  0.0247
 6553TIP3    H241151   2.538   6.424  12.648  0.1933 -0.5158 -0.9558
 6554TIP3   OH241152   5.742   5.636  12.469  0.2803  0.1112 -0.1682
 6554TIP3    H141153   5.774   5.592  12.390  1.5016 -1.0817  0.9617
 6554TIP3    H241154   5.661   5.590  12.491 -0.4891  0.9751 -1.1790
 6555TIP3   OH241155   0.323   1.902   0.307  0.2109  0.1583  0.1963
 6555TIP3    H141156   0.366   1.819   0.287  0.5153  0.7842 -1.8884
 6555TIP3    H241157   0.229   1.882   0.304  0.2892 -0.8045  2.9504
 6556TIP3   OH241158   3.451   2.234   0.991  0.2038  0.5197  0.2409
 6556TIP3    H141159   3.397   2.303   0.951  0.3436 -0.2750 -1.3298
 6556TIP3    H241160   3.410   2.153   0.962  1.6653 -0.0793 -0.1336
 6557TIP3   OH241161   0.424   3.233   3.180 -0.2178 -0.1454 -0.1176
 6557TIP3    H141162   0.498   3.238   3.120 -0.2063  1.7225  0.0188
 6557TIP3    H241163   0.447   3.294   3.251 -1.3234 -0.4935  0.5542
 6558TIP3   OH241164   3.305   6.185  13.649 -0.2863  0.3292  0.2515
 6558TIP3    H141165   3.385   6.231  13.623  0.0286 -1.2356 -1.6313
 6558TIP3    H241166   3.239   6.255  13.658  0.5358  1.3104 -1.1804
 6559TIP3   OH241167   6.475   1.567   0.273  0.3568 -0.0412  0.1263
 6559TIP3    H141168   6.479   1.515   0.353  0.5214 -0.5385 -0.2021
 6559TIP3    H241169   6.504   1.654   0.300 -0.7279  0.1039  0.8510
 6560TIP3   OH241170   4.194   6.083   6.020  0.2320  0.5174 -0.2473
 6560TIP3    H141171   4.124   6.104   6.082  0.8507 -0.5547  0.8273
 6560TIP3    H241172   4.148   6.058   5.940 -0.6568 -1.2440  0.7831
 6561TIP3   OH241173   2.087   3.703  17.146 -0.3144 -0.1765 -0.3107
 6561TIP3    H141174   2.100   3.635  17.212  1.9916  0.2151 -0.3445
 6561TIP3    H241175   2.164   3.698  17.090 -1.0206  1.2334 -1.4477
 6562TIP3   OH241176   0.767   0.336  11.716 -0.1807 -0.0458  0.6761
 6562TIP3    H141177   0.690   0.393  11.716  0.3462  0.7139 -1.2092
 6562TIP3    H241178   0.745   0.266  11.777 -1.4206  1.4056  1.9506
 6563TIP3   OH241179   1.145   6.083   6.052  0.3087 -0.3736 -0.0946
 6563TIP3    H141180   1.201   6.008   6.036  0.0859 -0.8069  1.1058
 6563TIP3    H241181   1.056   6.050   6.042  0.2290  0.0139 -0.7267
 6564TIP3   OH241182   0.619   2.832   6.645  0.0988 -0.0168  0.4227
 6564TIP3    H141183   0.635   2.811   6.737  0.6702  1.7489  0.7343
 6564TIP3    H241184   0.602   2.747   6.604 -1.1116 -0.7357  2.3357
 6565TIP3   OH241185   1.188   6.768  11.717  0.0419  0.3471 -0.4339
 6565TIP3    H141186   1.165   6.843  11.772 -0.4276  0.0542 -0.2238
 6565TIP3    H241187   1.225   6.704  11.779 -0.6937 -0.0705 -0.4235
 6566TIP3   OH241188   1.076   3.184   0.230 -0.6177  0.3993  0.7730
 6566TIP3    H141189   1.124   3.213   0.153 -0.4396 -0.0723  0.7051
 6566TIP3    H241190   1.127   3.111   0.264 -1.3098 -0.1300  0.6755
 6567TIP3   OH241191   0.482   3.145  11.108  0.4140 -0.4248 -0.0011
 6567TIP3    H141192   0.422   3.141  11.182 -0.6100  0.7209 -0.7340
 6567TIP3    H241193   0.435   3.197  11.042  1.8783 -0.2008 -0.9026
 6568TIP3   OH241194   6.818   4.000  12.878  0.0647  0.2175 -0.2709
 6568TIP3    H141195   6.747   4.042  12.829 -0.7120  1.4029  1.8080
 6568TIP3    H241196   6.781   3.915  12.903  0.5644 -0.5164 -1.9012
 6569TIP3   OH241197   2.644   2.381  13.845  0.0778 -0.1242 -0.4519
 6569TIP3    H141198   2.739   2.372  13.848  0.1291  0.5039 -0.1379
 6569TIP3    H241199   2.625   2.449  13.909 -0.4572  0.7731 -1.5615
 6570TIP3   OH241200   3.894   1.635  14.853 -0.5299 -0.3458 -0.3361
 6570TIP3    H141201   3.808   1.660  14.886 -0.0476 -1.0470  1.4978
 6570TIP3    H241202   3.955   1.699  14.892 -0.0717 -0.6214 -0.5917
 6571TIP3   OH241203   0.719   6.312   2.703 -0.6007  0.3737  0.1972
 6571TIP3    H141204   0.673   6.273   2.628  0.8102  2.8385 -2.0586
 6571TIP3    H241205   0.686   6.402   2.706  0.7734  0.8514  1.3792
 6572TIP3   OH241206   4.918   4.383   0.298  0.1620  0.2106  0.5793
 6572TIP3    H141207   4.997   4.374   0.352 -0.4759  1.7322  1.8154
 6572TIP3    H241208   4.886   4.294   0.288  0.5698 -0.1575  2.3198
 6573TIP3   OH241209   5.194   6.148  13.969  0.8084  0.2497  0.5843
 6573TIP3    H141210   5.110   6.151  14.016  2.6762 -0.5309  4.1125
 6573TIP3    H241211   5.200   6.058  13.937  0.8966 -0.0603  1.4661
 6574TIP3   OH241212   2.548   1.516  12.834  0.3349  0.0485  0.0214
 6574TIP3    H141213   2.642   1.535  12.830  0.3660 -0.0957  0.0716
 6574TIP3    H241214   2.507   1.591  12.792  0.4969 -0.0557 -0.3289
 6575TIP3   OH241215   5.185   0.609   0.738 -0.4848  0.0417 -0.1302
 6575TIP3    H141216   5.213   0.613   0.646  0.1455  0.1699  0.0665
 6575TIP3    H241217   5.225   0.686   0.779 -0.8778  0.0587  0.2241
 6576TIP3   OH241218   5.340   3.757   2.882 -0.0089 -0.6639 -0.0565
 6576TIP3    H141219   5.376   3.825   2.825 -1.1922 -0.8936 -1.1116
 6576TIP3    H241220   5.305   3.804   2.958 -1.9537  0.0596 -1.3614
 6577TIP3   OH241221   5.416   2.859  11.525  0.6914  0.1620  0.1315
 6577TIP3    H141222   5.438   2.791  11.589  1.2968  0.1038 -0.1309
 6577TIP3    H241223   5.466   2.936  11.554  1.3802 -0.0122 -0.5515
 6578TIP3   OH241224   1.535   2.382  14.478 -0.1352 -0.3933  0.7170
 6578TIP3    H141225   1.535   2.451  14.544 -0.4673 -0.1758  0.4921
 6578TIP3    H241226   1.446   2.382  14.443  0.1984 -0.1014 -0.1519
 6579TIP3   OH241227   5.646   5.120   1.649 -0.3568  0.0899 -0.3408
 6579TIP3    H141228   5.697   5.198   1.626  0.4169 -0.6901 -1.3440
 6579TIP3    H241229   5.688   5.088   1.730 -2.3498  2.1803  1.5912
 6580TIP3   OH241230   6.258   0.492   4.625 -0.2735 -0.3762  0.4951
 6580TIP3    H141231   6.204   0.463   4.698 -3.3736  0.1184 -1.5196
 6580TIP3    H241232   6.218   0.452   4.548  1.9378  0.4298 -1.1255
 6581TIP3   OH241233   3.588   4.425   3.610 -0.1571 -0.0799  0.1336
 6581TIP3    H141234   3.678   4.439   3.581 -0.9177  3.4601 -0.7614
 6581TIP3    H241235   3.539   4.405   3.530 -0.4658 -0.4300  0.4013
 6582TIP3   OH241236   0.043   0.321  15.343  0.0632 -0.4839  0.5631
 6582TIP3    H141237   0.129   0.308  15.383  0.7598  0.5294 -0.5375
 6582TIP3    H241238   0.047   0.411  15.308 -1.5309 -0.3404  0.7271
 6583TIP3   OH241239   4.795   2.549   5.618  0.1010 -0.0339 -0.4847
 6583TIP3    H141240   4.776   2.463   5.580 -1.4029  0.5157 -1.0156
 6583TIP3    H241241   4.775   2.611   5.548 -0.3119  0.8359  0.3958
 6584TIP3   OH241242   6.638   3.456  13.444 -0.0372 -0.1719  0.1647
 6584TIP3    H141243   6.709   3.476  13.384  1.9621 -1.8886  1.8571
 6584TIP3    H241244   6.648   3.518  13.516  0.2610 -0.9463  0.8006
 6585TIP3   OH241245   6.502   4.312  14.311  0.0313 -0.4005  0.7401
 6585TIP3    H141246   6.550   4.388  14.280  0.0618 -0.6464  0.1797
 6585TIP3    H241247   6.479   4.333  14.402  1.6466 -0.5129  1.1845
 6586TIP3   OH241248   2.767   4.811   5.061  0.0169  0.1402  0.8515
 6586TIP3    H141249   2.680   4.848   5.079 -0.6947 -1.5228  1.0093
 6586TIP3    H241250   2.753   4.756   4.984  0.5552 -1.3762  1.8117
 6587TIP3   OH241251   4.190   6.766  10.586 -0.3092 -0.8983  0.1377
 6587TIP3    H141252   4.135   6.690  10.565  0.7776 -2.1918  1.8724
 6587TIP3    H241253   4.279   6.738  10.563  0.0060  0.1373  0.0606
 6588TIP3   OH241254   2.716   0.697   2.381  0.3620 -0.0067  0.7462
 6588TIP3    H141255   2.765   0.639   2.439 -0.7522  0.2530  1.9680
 6588TIP3    H241256   2.667   0.638   2.324 -0.0159 -0.2711  1.3416
 6589TIP3   OH241257   6.412   3.119   5.190 -0.2311  0.0764  0.3720
 6589TIP3    H141258   6.400   3.214   5.182 -0.0227 -0.0353 -1.3833
 6589TIP3    H241259   6.456   3.094   5.109  0.5213 -1.4002  1.2191
 6590TIP3   OH241260   5.506   4.071  14.125 -0.3710 -0.6665 -0.4006
 6590TIP3    H141261   5.574   4.009  14.149 -0.9582 -0.7970  0.9247
 6590TIP3    H241262   5.462   4.093  14.207 -0.3944  1.2468 -0.8834
 6591TIP3   OH241263   2.437   3.251   5.559 -0.0935 -0.3102  0.4544
 6591TIP3    H141264   2.481   3.258   5.643  0.4376  0.2563  0.1352
 6591TIP3    H241265   2.369   3.185   5.572  0.3336 -0.6059  1.1771
 6592TIP3   OH241266   6.376   5.141   1.668  0.0204 -0.3060 -0.3109
 6592TIP3    H141267   6.329   5.118   1.748 -1.6241 -0.6232 -1.3372
 6592TIP3    H241268   6.438   5.070   1.654 -1.1922 -1.3470 -0.4715
 6593TIP3   OH241269   5.919   4.851   3.044 -0.1298  0.3850 -0.1163
 6593TIP3    H141270   5.977   4.803   3.103 -0.1686  0.6486  0.1348
 6593TIP3    H241271   5.960   4.842   2.958  0.2564  0.5262  0.0538
 6594TIP3   OH241272   0.616   2.904   6.151  0.0538  0.7321  0.2750
 6594TIP3    H141273   0.558   2.875   6.221  0.8413 -2.0355 -0.1580
 6594TIP3    H241274   0.693   2.939   6.197  0.9760 -1.9239  0.8563
 6595TIP3   OH241275   6.661   3.839   2.479  0.3322 -0.1676 -0.3887
 6595TIP3    H141276   6.646   3.747   2.456 -0.9499  0.2267 -1.2224
 6595TIP3    H241277   6.640   3.844   2.572  2.4637 -1.1372  0.1693
 6596TIP3   OH241278   0.891   2.922   5.828 -0.9117 -0.0946  0.2496
 6596TIP3    H141279   0.914   2.905   5.920 -0.3861 -0.0452  0.1270
 6596TIP3    H241280   0.935   2.853   5.779  1.5849  1.8226 -0.2958
 6597TIP3   OH241281   0.724   0.329   4.671  0.3279  0.1481  0.3468
 6597TIP3    H141282   0.793   0.291   4.616  1.1204  0.7893  0.8872
 6597TIP3    H241283   0.666   0.255   4.691 -0.0932 -0.0539 -1.5113
 6598TIP3   OH241284   4.639   3.657  10.678  0.5946  0.3523  0.1051
 6598TIP3    H141285   4.695   3.688  10.750  0.9718 -0.8850  0.3549
 6598TIP3    H241286   4.600   3.737  10.642  1.7546  1.1494  0.5689
 6599TIP3   OH241287   4.178   3.404   1.185 -0.1907 -0.1189 -0.0928
 6599TIP3    H141288   4.129   3.480   1.217 -0.7730 -0.7725  0.5816
 6599TIP3    H241289   4.217   3.365   1.264 -0.6341 -1.0334 -0.3218
 6600TIP3   OH241290   0.182   5.159   0.754 -0.0077  0.3425  0.3834
 6600TIP3    H141291   0.111   5.223   0.765 -0.3675  0.3204 -1.6074
 6600TIP3    H241292   0.261   5.206   0.779 -0.5899  0.7208  1.5340
 6601TIP3   OH241293   2.304   4.261  15.711  0.0743  0.2290 -0.5831
 6601TIP3    H141294   2.336   4.335  15.763  0.3944  0.1792 -0.7133
 6601TIP3    H241295   2.223   4.293  15.670  0.1861  0.4876 -0.5969
 6602TIP3   OH241296   0.883   2.473   1.128 -0.2286 -0.0917  0.2865
 6602TIP3    H141297   0.896   2.429   1.044 -0.3750 -0.0805  0.2597
 6602TIP3    H241298   0.822   2.544   1.109  0.1929  0.2714  0.2801
 6603TIP3   OH241299   4.967   4.331   1.288  0.4034 -0.7735 -0.4581
 6603TIP3    H141300   5.039   4.269   1.279 -1.0398 -2.4719 -0.5325
 6603TIP3    H241301   4.931   4.340   1.200  1.0671  0.7839 -0.5959
 6604TIP3   OH241302   3.632   0.450  14.660 -0.2511  0.5089 -0.4961
 6604TIP3    H141303   3.607   0.380  14.720  0.3353 -0.7412 -1.6691
 6604TIP3    H241304   3.728   0.450  14.661 -0.2511  2.0245  0.3140
 6605TIP3   OH241305   5.871   3.655   3.201 -0.3177 -0.0371 -0.2153
 6605TIP3    H141306   5.832   3.741   3.183 -1.0338 -0.2230  0.4162
 6605TIP3    H241307   5.911   3.629   3.118 -0.8426  0.5196 -0.6485
 6606TIP3   OH241308   6.715   1.186   6.452  0.3288 -0.4121 -0.8065
 6606TIP3    H141309   6.804   1.188   6.489  0.4988 -2.7825 -1.0310
 6606TIP3    H241310   6.687   1.277   6.454  3.3061  0.5973 -2.0591
 6607TIP3   OH241311   5.276   0.205   2.275 -0.4481 -0.3116 -0.3126
 6607TIP3    H141312   5.272   0.296   2.245  0.0972 -0.1457  0.1026
 6607TIP3    H241313   5.361   0.173   2.245 -0.9505 -0.9236 -1.1107
 6608TIP3   OH241314   2.063   3.374   6.019  0.2344  0.7748 -0.3363
 6608TIP3    H141315   2.019   3.420   5.948 -1.1639  0.5696  0.3748
 6608TIP3    H241316   2.025   3.286   6.018  0.2511  0.7494  0.6062
 6609TIP3   OH241317   3.601   1.744   3.900  0.7470 -0.1460  0.1131
 6609TIP3    H141318   3.544   1.798   3.955  2.3450 -0.4289  2.1077
 6609TIP3    H241319   3.655   1.807   3.852  1.0320  0.0669  0.7139
 6610TIP3   OH241320   3.482   3.511  14.200 -0.1828  0.0779 -0.8040
 6610TIP3    H141321   3.466   3.558  14.282  1.9911  0.1762 -0.4025
 6610TIP3    H241322   3.400   3.520  14.151 -0.3738  2.9146 -0.0713
 6611TIP3   OH241323   0.064   5.069   1.147 -0.0021 -0.0957 -0.5642
 6611TIP3    H141324   0.070   4.986   1.101 -1.0139  0.0175 -0.9194
 6611TIP3    H241325   0.006   5.123   1.093  1.1547  1.0778 -0.6806
 6612TIP3   OH241326   2.021   0.003   2.866 -0.2346 -0.1221  0.2738
 6612TIP3    H141327   2.090  -0.058   2.839 -0.8809 -1.1631  0.9431
 6612TIP3    H241328   2.032   0.011   2.961  0.3114  1.4015  0.1053
 6613TIP3   OH241329   4.669   0.712   1.700  0.2041  0.7297 -0.3006
 6613TIP3    H141330   4.600   0.648   1.721 -1.1780  1.9681 -0.9622
 6613TIP3    H241331   4.745   0.682   1.749 -1.1967  0.0868  1.5387
 6614TIP3   OH241332   2.166   6.375  12.908 -0.1385 -0.4099 -0.0309
 6614TIP3    H141333   2.113   6.451  12.884  0.0869 -0.0717  0.5231
 6614TIP3    H241334   2.217   6.355  12.830 -1.3073 -0.9405 -0.6856
 6615TIP3   OH241335   2.959   3.771   5.517 -0.3213  0.0964  0.3565
 6615TIP3    H141336   2.934   3.679   5.525 -2.5179  0.5845 -0.5767
 6615TIP3    H241337   2.945   3.807   5.605  3.0414 -0.9812  1.4369
 6616TIP3   OH241338   0.988   1.030  11.975 -0.2145  0.3422 -0.3514
 6616TIP3    H141339   1.058   0.981  11.933 -0.6266 -0.0892 -0.5347
 6616TIP3    H241340   0.908   0.983  11.951 -0.6529  1.3648 -0.9079
 6617TIP3   OH241341   5.383   2.649  14.377 -0.1949 -0.0003 -0.3296
 6617TIP3    H141342   5.353   2.704  14.304 -0.5423  0.3329  0.0609
 6617TIP3    H241343   5.375   2.705  14.454  0.7836 -0.1382 -0.1206
 6618TIP3   OH241344   4.983   3.695  12.748  0.0414 -0.0163  0.1338
 6618TIP3    H141345   4.903   3.743  12.770  0.1807  0.1367  0.3061
 6618TIP3    H241346   5.033   3.755  12.692 -0.5246 -0.5839 -0.9850
 6619TIP3   OH241347   3.681   5.097   4.385 -0.2927  0.0171 -0.3027
 6619TIP3    H141348   3.728   5.016   4.366 -2.2179 -1.0850 -0.4985
 6619TIP3    H241349   3.691   5.149   4.305  1.2319  0.1333 -0.0569
 6620TIP3   OH241350   1.580   0.453   1.715  0.3446 -0.7022  0.0928
 6620TIP3    H141351   1.564   0.546   1.734 -1.4383 -0.8690 -0.5161
 6620TIP3    H241352   1.606   0.416   1.799 -0.8323 -0.0280  0.7702
 6621TIP3   OH241353   2.450   4.366  15.093  0.1584  0.1070  0.1394
 6621TIP3    H141354   2.533   4.412  15.079  0.3601 -0.2541  0.1508
 6621TIP3    H241355   2.398   4.426  15.148 -0.0730  0.8795 -0.9136
 6622TIP3   OH241356   0.126   3.241  14.746  0.2042 -0.3824 -0.2586
 6622TIP3    H141357   0.211   3.196  14.738  0.2657 -0.4056  0.4864
 6622TIP3    H241358   0.123   3.270  14.837  0.3849  1.5761 -0.8594
 6623TIP3   OH241359   5.099   6.578  15.415  0.3610 -0.5984 -0.5721
 6623TIP3    H141360   5.024   6.632  15.440 -0.0754 -1.4012 -0.1249
 6623TIP3    H241361   5.151   6.634  15.357  0.7209  0.8360  1.1209
 6624TIP3   OH241362   6.345   1.634  17.087 -0.7329  0.3401  0.0486
 6624TIP3    H141363   6.354   1.686  17.167 -0.7928 -0.2638  0.4523
 6624TIP3    H241364   6.289   1.686  17.029 -2.1496 -0.0032  1.0779
 6625TIP3   OH241365   4.715   4.060   5.480 -0.0683  0.0952  0.3584
 6625TIP3    H141366   4.704   4.007   5.559 -1.2969 -1.5336 -0.8759
 6625TIP3    H241367   4.640   4.038   5.425  2.5322 -1.4394 -2.7482
 6626TIP3   OH241368   1.644   0.323   3.362 -0.8042  0.0471  0.5455
 6626TIP3    H141369   1.596   0.389   3.312  0.1387  1.4638  1.4800
 6626TIP3    H241370   1.736   0.342   3.344 -0.5343 -1.4677  0.2659
 6627TIP3   OH241371   0.544   2.477   0.912 -0.5627 -0.0158 -0.1089
 6627TIP3    H141372   0.633   2.471   0.947 -0.9620 -0.8434  0.7762
 6627TIP3    H241373   0.488   2.450   0.984 -1.5800  1.0834 -0.4614
 6628TIP3   OH241374   1.994   2.385  14.341  0.4388 -0.2263  0.0425
 6628TIP3    H141375   1.973   2.292  14.331  1.2950 -0.7305  2.5991
 6628TIP3    H241376   1.910   2.428  14.355  0.1479 -0.7710 -0.0451
 6629TIP3   OH241377   1.043   5.738  12.942 -0.1795 -0.5613 -0.2720
 6629TIP3    H141378   0.994   5.701  12.868 -0.4721  0.0423 -0.3899
 6629TIP3    H241379   1.120   5.777  12.901 -0.1242 -0.6092 -0.2119
 6630TIP3   OH241380   1.601   5.367  11.597  0.1691 -0.4410 -0.1425
 6630TIP3    H141381   1.676   5.310  11.614  2.0698  1.6915 -1.1300
 6630TIP3    H241382   1.628   5.452  11.630 -2.4047  0.0591  0.7765
 6631TIP3   OH241383   4.183   4.844   2.999 -0.5749  0.6002 -0.1830
 6631TIP3    H141384   4.125   4.817   3.070 -0.1603  1.2172  0.3927
 6631TIP3    H241385   4.254   4.780   3.000 -0.0963  1.1291  0.5546
 6632TIP3   OH241386   4.819   3.158   3.276  0.0331  1.1214 -0.3424
 6632TIP3    H141387   4.795   3.242   3.236  1.0727  1.9164  0.6514
 6632TIP3    H241388   4.861   3.183   3.358  0.5054 -0.3840 -0.1252
 6633TIP3   OH241389   3.922   0.257   6.563 -0.0866 -0.1418 -0.4612
 6633TIP3    H141390   3.906   0.228   6.652 -1.5933  1.9003 -0.0290
 6633TIP3    H241391   4.011   0.293   6.565 -0.1259 -0.0819  0.2096
 6634TIP3   OH241392   5.745   1.424   4.535 -0.3989  0.2693 -0.2489
 6634TIP3    H141393   5.654   1.429   4.564 -1.0703 -2.4484 -1.7042
 6634TIP3    H241394   5.741   1.376   4.453  2.5193 -1.3282  0.4819
 6635TIP3   OH241395   1.357   3.106  17.143  0.2722 -0.4091 -0.2515
 6635TIP3    H141396   1.276   3.059  17.166  1.3645 -1.3945  1.7504
 6635TIP3    H241397   1.351   3.120  17.049 -1.5284 -1.8271 -0.3761
 6636TIP3   OH241398   2.700   3.554  17.003 -0.0615  0.0988 -0.6263
 6636TIP3    H141399   2.611   3.519  17.003 -0.1191  0.2470 -0.0718
 6636TIP3    H241400   2.755   3.480  17.029 -0.2351  0.5362  1.0633
 6637TIP3   OH241401   1.917   3.709   5.605 -0.1606 -0.3817  0.2699
 6637TIP3    H141402   1.910   3.736   5.514  0.6141  0.5811  0.4870
 6637TIP3    H241403   1.865   3.772   5.654 -0.3468 -0.7303  0.5233
 6638TIP3   OH241404   2.261   5.979  14.790 -0.6806 -0.8615 -1.0077
 6638TIP3    H141405   2.196   5.994  14.858 -0.6547 -1.9538 -0.7417
 6638TIP3    H241406   2.215   5.928  14.723 -0.3155 -0.9852 -1.1675
 6639TIP3   OH241407   2.744   2.861   0.916  0.0854  0.0177 -0.3246
 6639TIP3    H141408   2.782   2.786   0.961 -1.0506  0.3941  1.3290
 6639TIP3    H241409   2.746   2.932   0.981 -0.1910  1.0068 -1.3679
 6640TIP3   OH241410   3.715   4.970  13.905  0.2368  0.5023 -0.4988
 6640TIP3    H141411   3.790   4.923  13.869  0.4993  1.6466 -1.4492
 6640TIP3    H241412   3.696   4.924  13.987  0.5001 -1.2549 -1.3995
 6641TIP3   OH241413   4.473   3.243   1.679  0.3279  0.5531  0.0699
 6641TIP3    H141414   4.449   3.297   1.605 -1.4998  0.6060  0.6715
 6641TIP3    H241415   4.547   3.190   1.648  0.3731  1.4431 -1.3660
 6642TIP3   OH241416   5.461   3.376   4.012 -0.5231  0.4154  0.6945
 6642TIP3    H141417   5.368   3.377   4.032 -0.6641  0.6316  0.0471
 6642TIP3    H241418   5.467   3.410   3.923  0.2722  1.3715  1.1065
 6643TIP3   OH241419   2.503   6.093   2.755 -0.2649 -0.9496 -0.3893
 6643TIP3    H141420   2.491   6.117   2.847 -0.1217  0.4929 -0.7351
 6643TIP3    H241421   2.537   6.004   2.758  4.2256  0.6259  1.1812
 6644TIP3   OH241422   5.202   2.734   3.189 -0.3075  0.6534  0.2524
 6644TIP3    H141423   5.291   2.768   3.200  0.2430 -0.6202 -0.2179
 6644TIP3    H241424   5.147   2.794   3.239  0.9630  0.7052  1.6004
 6645TIP3   OH241425   6.583   0.563  10.168  1.0120  0.1024 -0.2201
 6645TIP3    H141426   6.660   0.506  10.167  0.3348 -0.9313  2.2435
 6645TIP3    H241427   6.537   0.539  10.249 -0.7730  2.1934 -0.5816
 6646TIP3   OH241428   4.920   1.688   3.144  0.3290  0.7205 -0.1809
 6646TIP3    H141429   4.859   1.635   3.195 -0.9707  2.0631 -0.3096
 6646TIP3    H241430   4.916   1.774   3.184  0.6533  1.3295 -1.4395
 6647TIP3   OH241431   6.769   4.000  10.144 -0.0019  0.1474  0.2536
 6647TIP3    H141432   6.686   4.016  10.100  0.7021  1.9741 -0.4572
 6647TIP3    H241433   6.745   3.985  10.236 -0.9789  3.0011  0.5237
 6648TIP3   OH241434   3.134   0.632  13.710 -0.4423 -0.4551 -0.4689
 6648TIP3    H141435   3.040   0.630  13.689 -0.8397 -1.5558  1.2878
 6648TIP3    H241436   3.152   0.545  13.745  0.9455  0.1817  0.4247
 6649TIP3   OH241437   4.719   5.368   1.355 -0.0607  0.0182  0.7097
 6649TIP3    H141438   4.774   5.335   1.425  0.1725  0.9579  0.9790
 6649TIP3    H241439   4.629   5.362   1.389 -0.0111 -0.2218  0.7995
 6650TIP3   OH241440   5.760   4.822   5.009  0.7159  0.6743 -0.0511
 6650TIP3    H141441   5.808   4.827   4.927  1.5162 -0.3850  0.3399
 6650TIP3    H241442   5.737   4.729   5.018 -0.3205  0.9578  0.3866
 6651TIP3   OH241443   4.053   5.305  16.750  0.1422 -0.0236  0.0825
 6651TIP3    H141444   4.148   5.289  16.755  0.2090  0.5899  0.8311
 6651TIP3    H241445   4.045   5.400  16.748 -0.4655 -0.0759  0.0298
 6652TIP3   OH241446   4.926   4.849   4.430  0.4530  0.2742 -0.3061
 6652TIP3    H141447   4.925   4.756   4.451 -3.4884 -0.0631 -1.4833
 6652TIP3    H241448   4.907   4.852   4.336  1.9615  2.2374 -0.5842
 6653TIP3   OH241449   0.970   4.662  11.285 -0.1084  0.4184 -0.1560
 6653TIP3    H141450   1.028   4.723  11.239  0.1313  0.3876  0.0969
 6653TIP3    H241451   0.884   4.677  11.248 -0.4375  2.3328  1.2988
 6654TIP3   OH241452   0.088   1.298  15.437  0.5991 -0.2823  0.4838
 6654TIP3    H141453   0.024   1.240  15.480  0.9819 -0.6278  0.5889
 6654TIP3    H241454   0.163   1.299  15.496  1.1817 -0.8681 -0.2456
 6655TIP3   OH241455   5.897   1.478   5.191  0.1699 -0.1966 -0.3353
 6655TIP3    H141456   5.881   1.573   5.187  0.9267 -0.0996 -1.4173
 6655TIP3    H241457   5.822   1.443   5.239 -0.6234  0.8424 -0.7827
 6656TIP3   OH241458   4.815   3.103  11.798  0.6071 -0.7786  0.2044
 6656TIP3    H141459   4.775   3.182  11.760  1.4109 -0.6305 -0.3682
 6656TIP3    H241460   4.796   3.108  11.891  0.5098  0.0177  0.1447
 6657TIP3   OH241461   3.938   1.880   1.701 -0.1436  0.1011  0.4958
 6657TIP3    H141462   3.967   1.956   1.650  0.2429  0.5380  1.3578
 6657TIP3    H241463   3.881   1.918   1.769 -0.5040 -0.4566  0.5070
 6658TIP3   OH241464   1.928   2.442  12.034 -0.0582 -0.2383  0.4986
 6658TIP3    H141465   2.001   2.491  11.995  0.3348 -2.2487 -1.3452
 6658TIP3    H241466   1.850   2.488  12.003  0.3338  0.1092  0.0067
 6659TIP3   OH241467   0.708   4.051  14.055  0.5264 -0.7003  0.1522
 6659TIP3    H141468   0.711   3.956  14.054  1.3682 -0.6851  0.5501
 6659TIP3    H241469   0.755   4.076  14.134 -1.0950  0.0163  0.9059
 6660TIP3   OH241470   3.355   0.776  13.185  0.2052 -0.0961 -0.1145
 6660TIP3    H141471   3.276   0.806  13.140  0.2957 -0.2232 -0.3572
 6660TIP3    H241472   3.332   0.778  13.278  0.0160  0.1588 -0.1663
 6661TIP3   OH241473   5.271   4.409  14.810  0.2928 -0.3562  0.4593
 6661TIP3    H141474   5.322   4.347  14.863 -0.4799 -1.4961 -0.1104
 6661TIP3    H241475   5.280   4.377  14.721 -0.6873 -0.0491  0.2469
 6662TIP3   OH241476   6.227   1.322   2.513 -0.0284 -0.1773  0.1085
 6662TIP3    H141477   6.287   1.373   2.568  0.0616 -0.0848 -0.0705
 6662TIP3    H241478   6.146   1.373   2.512 -0.4238 -0.7813  1.1150
 6663TIP3   OH241479   1.978   2.460   1.491  0.8398  0.7146 -0.5241
 6663TIP3    H141480   2.062   2.498   1.515  1.3844 -1.1960  0.7683
 6663TIP3    H241481   1.923   2.534   1.465  2.9960  1.9508 -1.6444
 6664TIP3   OH241482   1.829   4.404  11.413 -0.2710 -0.4403 -0.1761
 6664TIP3    H141483   1.918   4.440  11.408  0.5199 -2.2341  0.4845
 6664TIP3    H241484   1.775   4.466  11.364  1.1638  1.2443  0.3307
 6665TIP3   OH241485   0.373   6.711  13.975  0.3443 -0.1989  1.0891
 6665TIP3    H141486   0.345   6.794  13.936  2.1715 -0.0172  0.1289
 6665TIP3    H241487   0.298   6.652  13.961 -0.2823  0.7821  0.2183
 6666TIP3   OH241488   1.957   2.328  15.493 -0.2417  0.9832  0.6853
 6666TIP3    H141489   1.866   2.300  15.488  0.3148 -0.7877 -0.0996
 6666TIP3    H241490   1.994   2.306  15.408  1.6257 -0.9534  1.9225
 6667TIP3   OH241491   2.805   5.363   0.232 -0.1582  0.5193  0.0647
 6667TIP3    H141492   2.793   5.446   0.186  0.0089  0.5816  0.1309
 6667TIP3    H241493   2.722   5.317   0.220 -0.0322  0.4335 -0.5008
 6668TIP3   OH241494   4.550   2.199   6.323 -0.2500 -0.6793 -0.6251
 6668TIP3    H141495   4.524   2.121   6.371  1.3129  0.2758  1.8694
 6668TIP3    H241496   4.487   2.266   6.351  0.3826 -0.2398 -0.2352
 6669TIP3   OH241497   6.502   2.978   2.272  0.3781  0.6027 -0.5754
 6669TIP3    H141498   6.415   2.999   2.305  0.2248 -0.0927 -0.5104
 6669TIP3    H241499   6.496   2.990   2.178  0.9260  2.9716 -0.3446
 6670TIP3   OH241500   3.575   3.628  15.183  0.3640 -0.0205  0.4048
 6670TIP3    H141501   3.492   3.580  15.187  0.8455 -0.9344 -0.3280
 6670TIP3    H241502   3.569   3.677  15.101  0.0516  0.8486  0.9433
 6671TIP3   OH241503   4.642   2.211   2.141  0.4032 -0.3047 -0.5740
 6671TIP3    H141504   4.666   2.303   2.150  0.5009 -0.4645  0.9234
 6671TIP3    H241505   4.549   2.208   2.163  0.4226 -0.5721 -0.5210
 6672TIP3   OH241506   3.668   0.058  13.149 -0.6114 -0.0278 -0.6741
 6672TIP3    H141507   3.592   0.100  13.189 -0.8798 -1.3101  0.1770
 6672TIP3    H241508   3.654  -0.036  13.162  1.1968 -0.2728 -0.3518
 6673TIP3   OH241509   2.191   2.675   5.189 -0.4903 -0.0760  0.1117
 6673TIP3    H141510   2.102   2.692   5.219 -0.6652  0.6470 -0.8111
 6673TIP3    H241511   2.201   2.580   5.195 -0.8634 -0.0425  1.4719
 6674TIP3   OH241512   3.976   3.416  16.918 -0.1953  0.2921  0.1232
 6674TIP3    H141513   3.985   3.373  16.832  1.2633 -0.2018  0.5141
 6674TIP3    H241514   3.918   3.357  16.967 -0.4856  0.2273 -0.2847
 6675TIP3   OH241515   4.606   3.897   1.645  0.6589  0.5604  0.0153
 6675TIP3    H141516   4.672   3.943   1.697  1.8363 -0.6111 -0.4237
 6675TIP3    H241517   4.645   3.811   1.627  0.3559  1.0081 -2.9603
 6676TIP3   OH241518   5.670   4.075   3.250 -0.2686 -1.3449  0.1822
 6676TIP3    H141519   5.606   4.028   3.196 -0.2464 -2.0502  0.7630
 6676TIP3    H241520   5.622   4.151   3.283  0.1783  0.0095 -2.1392
 6677TIP3   OH241521   1.036   6.081   3.416  0.2764 -0.2828 -0.5576
 6677TIP3    H141522   1.019   5.988   3.424  1.0333 -0.2650  1.3888
 6677TIP3    H241523   0.949   6.121   3.407 -0.1246 -1.0523 -0.1553
 6678TIP3   OH241524   0.090   5.400  14.415  0.5976  0.4999  0.1345
 6678TIP3    H141525   0.000   5.391  14.384  1.2428  1.0061 -1.9906
 6678TIP3    H241526   0.114   5.312  14.444 -0.1650  0.0831 -0.4812
 6679TIP3   OH241527   6.457   0.781   1.570  0.6935 -0.2703  0.5567
 6679TIP3    H141528   6.372   0.773   1.527  0.0743  0.2445  1.6648
 6679TIP3    H241529   6.505   0.703   1.544 -0.1446 -0.5897 -0.0291
 6680TIP3   OH241530   2.343   3.687  17.012  0.0309 -0.7740 -0.0370
 6680TIP3    H141531   2.375   3.623  17.075 -0.5824  0.2402  1.3205
 6680TIP3    H241532   2.327   3.636  16.932 -1.5169 -2.5426  1.3521
 6681TIP3   OH241533   3.687   6.029   6.575 -0.1001  0.3254 -0.0968
 6681TIP3    H141534   3.682   6.113   6.621 -0.4600  0.4481 -0.3647
 6681TIP3    H241535   3.610   5.981   6.605 -0.0202  0.1778 -0.1260
 6682TIP3   OH241536   3.935   0.521   6.434  0.3563 -0.0019 -0.3504
 6682TIP3    H141537   3.898   0.477   6.510  1.2815  2.7378  1.7507
 6682TIP3    H241538   3.872   0.589   6.411  0.6226 -0.0683 -1.3382
 6683TIP3   OH241539   3.154   1.470  13.331 -0.3115 -0.0408 -0.3625
 6683TIP3    H141540   3.118   1.494  13.417 -0.2031 -0.5117 -0.1864
 6683TIP3    H241541   3.179   1.378  13.340 -0.1641 -0.0501 -0.8548
 6684TIP3   OH241542   2.689   5.108  13.151  0.8394  0.2620 -0.4139
 6684TIP3    H141543   2.602   5.126  13.113  0.2993 -1.5641 -0.0696
 6684TIP3    H241544   2.670   5.082  13.241  1.7507 -0.3295 -0.3970
 6685TIP3   OH241545   1.842   3.457  15.007 -0.2172  0.1271  0.1273
 6685TIP3    H141546   1.842   3.553  15.010  0.8622  0.1423  0.0609
 6685TIP3    H241547   1.861   3.431  15.097 -1.8076 -0.0482  0.4089
 6686TIP3   OH241548   3.527   0.170  12.902  0.2566 -0.3514  0.0375
 6686TIP3    H141549   3.530   0.115  12.980  0.5338 -0.4574 -0.0484
 6686TIP3    H241550   3.570   0.118  12.834 -0.0801 -0.3061 -0.2140
 6687TIP3   OH241551   4.544   0.651  14.541 -0.4093 -0.3423  0.0590
 6687TIP3    H141552   4.542   0.711  14.615 -2.0768  0.3743 -0.5352
 6687TIP3    H241553   4.633   0.658  14.507 -0.2393  0.9069  0.7131
 6688TIP3   OH241554   0.777   1.627   1.687  0.0513  0.2536  0.0554
 6688TIP3    H141555   0.812   1.544   1.719  1.3702 -0.1862 -2.3682
 6688TIP3    H241556   0.717   1.602   1.616 -2.0708  1.2291  1.4483
 6689TIP3   OH241557   6.212   2.682  15.607 -0.2076  0.0255  0.4758
 6689TIP3    H141558   6.242   2.688  15.698 -0.6892  1.3910  0.5536
 6689TIP3    H241559   6.225   2.770  15.571  2.6395 -1.2066 -1.6389
 6690TIP3   OH241560   3.771   5.262  11.191 -0.0578  0.2542  0.2251
 6690TIP3    H141561   3.678   5.273  11.211 -0.8821  0.7008 -3.3683
 6690TIP3    H241562   3.807   5.350  11.192  0.1495  0.1625  0.8515
 6691TIP3   OH241563   2.291   4.436  11.010 -0.3412 -0.0128  0.0591
 6691TIP3    H141564   2.307   4.522  11.049  0.3055 -0.5113  0.9187
 6691TIP3    H241565   2.248   4.455  10.926  0.7576  1.1910 -0.2458
 6692TIP3   OH241566   0.873   0.600  11.655 -0.0528 -0.1396 -0.3944
 6692TIP3    H141567   0.801   0.613  11.594 -0.8501 -1.3158  0.2723
 6692TIP3    H241568   0.881   0.505  11.663  1.8199 -0.0247 -0.7510
 6693TIP3   OH241569   6.508   3.706   0.216 -0.0305 -0.1927  0.2729
 6693TIP3    H141570   6.466   3.653   0.284 -0.4880  0.2696  0.3582
 6693TIP3    H241571   6.579   3.652   0.184  0.1275 -0.4604  1.0570
 6694TIP3   OH241572   0.370   2.526   0.287 -0.0344 -0.5713  0.1866
 6694TIP3    H141573   0.459   2.496   0.266  1.4582  2.2645  2.0914
 6694TIP3    H241574   0.366   2.525   0.383 -0.4465  3.4969  0.3070
 6695TIP3   OH241575   4.132   0.371  13.402 -0.2933 -0.4600  0.4280
 6695TIP3    H141576   4.151   0.451  13.452 -0.1247  0.1757 -0.6473
 6695TIP3    H241577   4.060   0.330  13.449  1.9975 -1.5923  3.1358
 6696TIP3   OH241578   6.218   0.700   0.528 -0.2594 -0.1798 -0.1979
 6696TIP3    H141579   6.242   0.788   0.499 -2.4927  0.5443  0.0751
 6696TIP3    H241580   6.152   0.672   0.465 -0.3007 -1.2619  0.3321
 6697TIP3   OH241581   3.057   3.903  15.166  0.5367 -0.2715  0.6147
 6697TIP3    H141582   2.997   3.959  15.215 -0.4137 -1.0264  0.3346
 6697TIP3    H241583   3.142   3.913  15.210  0.0479  0.2566  1.4434
 6698TIP3   OH241584   5.298   1.248   2.148 -0.1761 -0.6319  0.1658
 6698TIP3    H141585   5.334   1.160   2.153  1.5875  0.0435  0.0935
 6698TIP3    H241586   5.319   1.277   2.059 -0.2759  0.0324  0.3570
 6699TIP3   OH241587   5.595   4.873   1.928  0.1051 -0.4480  0.6370
 6699TIP3    H141588   5.634   4.786   1.939  0.9855 -0.0090  1.0287
 6699TIP3    H241589   5.509   4.866   1.968  0.4156 -0.9695  1.2269
 6700TIP3   OH241590   5.745   3.381   4.957  0.1118 -0.4657 -0.2107
 6700TIP3    H141591   5.839   3.378   4.942  0.0942  1.3257 -0.7198
 6700TIP3    H241592   5.708   3.325   4.888  0.6881  0.1641 -1.0318
 6701TIP3   OH241593   2.321   0.578   2.634  0.7715  0.0769 -0.4579
 6701TIP3    H141594   2.338   0.671   2.616 -0.5290  0.0728 -1.8539
 6701TIP3    H241595   2.362   0.562   2.719  1.9057  1.6703 -0.6731
 6702TIP3   OH241596   3.564   2.289  13.387  0.4656 -0.1250  0.1578
 6702TIP3    H141597   3.526   2.329  13.466 -0.4520 -0.3098 -0.1738
 6702TIP3    H241598   3.601   2.206  13.417  0.4983  0.0071  0.4794
 6703TIP3   OH241599   0.465   0.615   2.424  0.1012  0.0263 -0.0423
 6703TIP3    H141600   0.549   0.647   2.456  2.1388 -4.1314 -0.8520
 6703TIP3    H241601   0.486   0.576   2.339 -3.0053  0.4319 -1.0483
 6704TIP3   OH241602   5.144   2.585   4.110 -0.4761  0.2566 -0.8719
 6704TIP3    H141603   5.115   2.496   4.133  0.1203  0.2676 -0.0824
 6704TIP3    H241604   5.210   2.571   4.042 -1.2624  0.1637 -1.6377
 6705TIP3   OH241605   3.846   2.161  12.794  0.1639  0.4121  0.1029
 6705TIP3    H141606   3.927   2.212  12.799  0.0845  0.5234  0.2800
 6705TIP3    H241607   3.862   2.085  12.851  0.6439 -0.2719 -0.9310
 6706TIP3   OH241608   5.086   0.879  15.046 -0.0006 -0.1018  0.2343
 6706TIP3    H141609   5.073   0.935  15.123 -0.2460  1.2263 -0.7501
 6706TIP3    H241610   5.066   0.936  14.972  0.2388 -1.3674 -0.8174
 6707TIP3   OH241611   1.733   2.754  16.935 -0.2460 -0.3290  0.4904
 6707TIP3    H141612   1.732   2.659  16.947 -0.9654 -0.7314 -2.3368
 6707TIP3    H241613   1.825   2.774  16.918 -0.1055 -0.5140  1.0028
 6708TIP3   OH241614   2.468   6.101  15.733  0.5985 -0.1372 -0.2729
 6708TIP3    H141615   2.479   6.011  15.701  2.6421  0.3219 -0.9382
 6708TIP3    H241616   2.529   6.107  15.807 -1.1147  0.0608  1.1407
 6709TIP3   OH241617   0.685   3.098  15.867 -0.2128 -0.4502 -0.6729
 6709TIP3    H141618   0.713   3.170  15.923 -1.8723  0.0540 -0.4602
 6709TIP3    H241619   0.758   3.036  15.869  1.2399  1.2234 -0.8782
 6710TIP3   OH241620   2.750   3.067   1.402  0.6923  0.1079 -0.4216
 6710TIP3    H141621   2.675   3.099   1.451  1.0489  0.1145  0.1145
 6710TIP3    H241622   2.821   3.063   1.465  0.9656 -0.5733 -0.7636
 6711TIP3   OH241623   1.222   4.578   3.092 -0.0934  0.2844  0.2548
 6711TIP3    H141624   1.193   4.500   3.138  1.3677  0.3727  1.3322
 6711TIP3    H241625   1.149   4.640   3.102 -0.8118 -0.5549  0.2966
 6712TIP3   OH241626   3.505   1.417  14.826  0.3270 -0.2629 -0.0996
 6712TIP3    H141627   3.438   1.460  14.880 -0.9965 -0.8603 -1.2434
 6712TIP3    H241628   3.560   1.489  14.795 -1.3639  0.5535 -1.3062
 6713TIP3   OH241629   2.163   2.191   1.204  0.1147 -0.4654 -0.3452
 6713TIP3    H141630   2.223   2.203   1.278  2.1297 -3.5650 -1.3604
 6713TIP3    H241631   2.199   2.246   1.135 -0.2276  0.3524  0.1195
 6714TIP3   OH241632   2.284   4.457  13.651  0.3272 -0.4226 -0.4791
 6714TIP3    H141633   2.282   4.451  13.747 -0.6598 -0.2651 -0.4814
 6714TIP3    H241634   2.209   4.512  13.629  0.6927 -0.2551 -1.3357
 6715TIP3   OH241635   0.222   1.151   3.978 -0.5703  0.2214  0.4819
 6715TIP3    H141636   0.314   1.153   4.002 -0.2164  0.2972 -0.8258
 6715TIP3    H241637   0.201   1.058   3.969 -0.9042  0.1564  1.7596
 6716TIP3   OH241638   1.276   4.512  13.132  0.7961 -0.1206 -0.1071
 6716TIP3    H141639   1.212   4.445  13.110  2.7235 -1.0604 -3.2352
 6716TIP3    H241640   1.226   4.593  13.136 -0.8602 -1.0810 -0.8402
 6717TIP3   OH241641   4.346   4.609  11.307  0.1256 -0.3838  0.7676
 6717TIP3    H141642   4.336   4.554  11.229  1.4070  0.1426  0.2241
 6717TIP3    H241643   4.310   4.555  11.378  0.2464 -1.4397  0.0494
 6718TIP3   OH241644   5.855   0.935   5.435 -0.7807 -0.4727 -0.3083
 6718TIP3    H141645   5.925   0.924   5.500 -0.3236 -0.4892 -0.7964
 6718TIP3    H241646   5.846   1.030   5.426  0.4980 -0.4553 -1.6307
 6719TIP3   OH241647   1.302   4.845   1.431 -0.0994 -0.4377 -0.7533
 6719TIP3    H141648   1.210   4.842   1.405  0.0650  0.3306 -1.4456
 6719TIP3    H241649   1.310   4.927   1.479 -0.5714 -2.1956  2.4527
 6720TIP3   OH241650   5.580   5.532  10.499  0.0301  0.0119  0.3851
 6720TIP3    H141651   5.648   5.553  10.436 -1.9290 -0.5647 -2.0154
 6720TIP3    H241652   5.596   5.591  10.573  2.3653  0.6952 -0.6307
 6721TIP3   OH241653   2.703   1.847  14.924 -0.0453 -0.0033  0.4382
 6721TIP3    H141654   2.768   1.913  14.901 -0.3918  0.1385 -0.1547
 6721TIP3    H241655   2.655   1.886  14.997  0.5121 -0.0975  0.8586
 6722TIP3   OH241656   4.245   2.125  14.473 -0.2133 -0.0331 -0.4319
 6722TIP3    H141657   4.164   2.144  14.425 -0.5098 -3.0194 -1.2556
 6722TIP3    H241658   4.220   2.055  14.534  1.4700 -0.1021  0.2124
 6723TIP3   OH241659   1.282   3.764   5.414  0.1034 -0.3735  0.0575
 6723TIP3    H141660   1.330   3.789   5.336 -1.6401  0.5471 -0.7510
 6723TIP3    H241661   1.256   3.847   5.454  1.5805 -0.8100  2.0336
 6724TIP3   OH241662   4.335   1.581  10.842  0.6359  0.1488  0.2393
 6724TIP3    H141663   4.395   1.653  10.823  0.6334  0.2353  0.5552
 6724TIP3    H241664   4.271   1.619  10.902  2.0724 -0.7900  2.4276
 6725TIP3   OH241665   2.077   1.014  16.554 -0.4599  0.3325  0.0334
 6725TIP3    H141666   2.023   1.047  16.482 -0.8570 -0.0227  0.1617
 6725TIP3    H241667   2.014   0.996  16.624 -0.3895 -1.5500 -0.3477
 6726TIP3   OH241668   4.207   5.588   6.238 -0.0908 -0.3292  0.0338
 6726TIP3    H141669   4.246   5.570   6.152  0.8946 -0.0838  0.4168
 6726TIP3    H241670   4.213   5.504   6.285 -0.0736 -0.3057  0.0748
 6727TIP3   OH241671   3.922   4.823  15.231 -0.0380 -0.4152 -0.5694
 6727TIP3    H141672   3.916   4.828  15.136  0.6190  0.7818 -0.5614
 6727TIP3    H241673   3.831   4.822  15.261 -0.2608 -2.1608 -1.2656
 6728TIP3   OH241674   6.381   2.299  11.470 -0.1445 -0.0254 -0.2944
 6728TIP3    H141675   6.463   2.286  11.424 -1.5583 -1.0264 -2.6454
 6728TIP3    H241676   6.368   2.219  11.520 -0.2948 -0.4164 -0.9497
 6729TIP3   OH241677   6.194   4.994  15.537 -0.1823  0.6580  0.1407
 6729TIP3    H141678   6.134   4.937  15.489 -0.4676  0.9197  0.1784
 6729TIP3    H241679   6.271   4.940  15.555 -0.3435  0.3675 -0.0474
 6730TIP3   OH241680   1.432   3.732  16.643 -0.3068  0.5739 -0.1671
 6730TIP3    H141681   1.503   3.680  16.680 -1.2776 -2.0350 -1.8049
 6730TIP3    H241682   1.473   3.783  16.574  0.1586 -0.2900 -0.5408
 6731TIP3   OH241683   1.812   1.753  16.039 -0.0386 -0.0555 -0.4773
 6731TIP3    H141684   1.790   1.663  16.062 -0.5675  0.3844  0.7927
 6731TIP3    H241685   1.730   1.801  16.053 -0.0768  0.4166 -2.2750
 6732TIP3   OH241686   3.439   1.867   0.259 -0.0148  0.6297  0.2007
 6732TIP3    H141687   3.527   1.839   0.284 -0.2152 -0.2897 -0.1085
 6732TIP3    H241688   3.389   1.785   0.251 -0.1562  0.9305 -2.4605
 6733TIP3   OH241689   3.667   3.180  16.638  0.7622  0.4173  0.0651
 6733TIP3    H141690   3.627   3.098  16.610  0.5714 -0.3344  2.4516
 6733TIP3    H241691   3.594   3.230  16.676  1.2562  0.8331  0.4808
 6734TIP3   OH241692   5.198   4.116  14.248 -0.3507  0.5472  0.2017
 6734TIP3    H141693   5.262   4.045  14.247 -0.6304  0.2853 -1.7789
 6734TIP3    H241694   5.113   4.072  14.240 -0.5551  1.0582 -0.5294
 6735TIP3   OH241695   1.239   6.291  11.449  0.6644  0.0885 -0.1931
 6735TIP3    H141696   1.303   6.296  11.520  1.1832 -1.5566 -0.5205
 6735TIP3    H241697   1.161   6.254  11.489  0.3084  0.9893 -0.0534
 6736TIP3   OH241698   5.145   5.317   3.783 -0.2892  0.1033  0.3271
 6736TIP3    H141699   5.235   5.309   3.752 -0.3519  0.5648  0.0370
 6736TIP3    H241700   5.143   5.401   3.828 -1.1942  1.1907 -1.7075
 6737TIP3   OH241701   0.841   3.755  16.988  0.3757  0.2966  0.0125
 6737TIP3    H141702   0.780   3.774  17.060  0.8153  0.7648  0.2645
 6737TIP3    H241703   0.797   3.687  16.937  0.2159 -0.3022  0.9320
 6738TIP3   OH241704   2.820   3.429  16.335 -0.2905  0.2491 -0.1347
 6738TIP3    H141705   2.831   3.362  16.403 -1.5638 -0.1825 -0.3446
 6738TIP3    H241706   2.726   3.438  16.325 -0.1208  0.1583 -1.9980
 6739TIP3   OH241707   4.365   3.208  10.729  0.0731  0.5816 -0.4106
 6739TIP3    H141708   4.312   3.286  10.749  1.1340  1.2544 -0.1637
 6739TIP3    H241709   4.302   3.143  10.700 -0.7499  1.8174 -1.4520
 6740TIP3   OH241710   4.197   2.175  13.481  0.0339 -0.1404  0.4222
 6740TIP3    H141711   4.263   2.214  13.538 -1.4251 -0.0109  2.0815
 6740TIP3    H241712   4.200   2.081  13.501  0.7417 -0.3463 -0.6060
 6741TIP3   OH241713   0.521   1.301   4.265 -0.4480  0.5737 -0.1227
 6741TIP3    H141714   0.478   1.365   4.208 -1.1171  0.5829  0.3859
 6741TIP3    H241715   0.614   1.325   4.262 -0.4105  0.3280 -1.5238
 6742TIP3   OH241716   3.771   4.920   2.649 -0.0174 -0.1667  0.3445
 6742TIP3    H141717   3.678   4.902   2.658 -0.1205  1.5415  3.7050
 6742TIP3    H241718   3.814   4.840   2.680 -0.3286 -0.9364 -1.1648
 6743TIP3   OH241719   0.656   3.054  16.575  0.5116 -1.1529  0.0922
 6743TIP3    H141720   0.630   3.146  16.573  0.3403 -1.2043 -0.0330
 6743TIP3    H241721   0.713   3.043  16.499  0.7754 -1.0757  0.2803
 6744TIP3   OH241722   0.059   1.663  15.010  0.4037 -0.1730 -0.1310
 6744TIP3    H141723   0.137   1.705  15.045 -0.3893 -0.4559  2.0310
 6744TIP3    H241724   0.020   1.617  15.084 -2.2704  0.6512 -0.9349
 6745TIP3   OH241725   4.022   5.787  11.257  0.7205 -0.1111 -0.6960
 6745TIP3    H141726   3.959   5.798  11.328 -0.5453 -0.4284 -1.7398
 6745TIP3    H241727   4.082   5.861  11.266 -1.2620  1.6118 -1.1286
 6746TIP3   OH241728   4.935   3.603   2.372 -0.5612  0.6329  0.9348
 6746TIP3    H141729   4.866   3.548   2.333 -0.3779  0.5226  0.7689
 6746TIP3    H241730   4.906   3.617   2.463 -1.9461  2.4527  0.2532
 6747TIP3   OH241731   3.800   4.848   3.994  0.0111  0.4488 -0.6674
 6747TIP3    H141732   3.887   4.889   3.997  0.8809 -1.3499 -0.5142
 6747TIP3    H241733   3.812   4.772   3.936 -0.5238 -1.8786  2.1327
 6748TIP3   OH241734   3.092   0.550   1.296  0.9950 -0.1432  0.2886
 6748TIP3    H141735   3.129   0.612   1.359  3.1162  1.2750 -2.2327
 6748TIP3    H241736   3.002   0.579   1.283  1.3831  1.2228  0.6255
 6749TIP3   OH241737   2.917   5.961   1.978 -0.6035  0.4777 -0.4241
 6749TIP3    H141738   3.004   5.970   2.017 -1.1153  1.2346  0.5328
 6749TIP3    H241739   2.927   5.998   1.890 -0.0217  0.7628 -0.2411
 6750TIP3   OH241740   5.873   0.673   1.030 -0.4113 -0.4122 -0.0493
 6750TIP3    H141741   5.828   0.625   0.961  0.5316  0.2126 -1.1235
 6750TIP3    H241742   5.957   0.629   1.040  0.2326  0.6578 -0.6560
 6751TIP3   OH241743   6.798   3.620   2.305  0.1357  0.3848 -0.0511
 6751TIP3    H141744   6.741   3.556   2.263 -0.8944  0.2504  1.5497
 6751TIP3    H241745   6.882   3.610   2.259 -0.5589 -0.7426 -1.1128
 6752TIP3   OH241746   6.662   2.227   0.202 -0.1959 -0.0127 -0.1107
 6752TIP3    H141747   6.634   2.209   0.112 -3.8077  0.5598  0.8074
 6752TIP3    H241748   6.632   2.317   0.218  1.6053  0.3640  1.2487
 6753TIP3   OH241749   3.502   1.999   2.339  0.3166  0.5878  0.7776
 6753TIP3    H141750   3.448   1.939   2.390 -1.2915  1.0961 -0.2634
 6753TIP3    H241751   3.444   2.073   2.321  1.6653  1.5743  0.4045
 6754TIP3   OH241752   3.434   2.957  14.393 -0.1856  0.3710 -0.0494
 6754TIP3    H141753   3.356   2.962  14.448 -0.7508  2.1126 -0.9697
 6754TIP3    H241754   3.504   2.992  14.449 -0.1787 -0.6087  0.5634
 6755TIP3   OH241755   4.451   1.664  16.903 -0.1830 -0.3215 -0.9569
 6755TIP3    H141756   4.452   1.754  16.936 -0.5335 -0.6042 -0.1596
 6755TIP3    H241757   4.365   1.655  16.862 -0.4511 -0.5285 -0.3577
 6756TIP3   OH241758   2.183   1.831  14.175 -0.4196  0.6342 -0.0597
 6756TIP3    H141759   2.195   1.743  14.212 -1.1719  0.8174  0.6276
 6756TIP3    H241760   2.091   1.852  14.193 -0.1844  1.6476 -0.0346
 6757TIP3   OH241761   0.860   1.873  13.773  0.5679  0.0534 -0.1286
 6757TIP3    H141762   0.929   1.939  13.769  0.8811 -0.0713  2.4646
 6757TIP3    H241763   0.804   1.901  13.845 -0.0050 -1.8608  0.2038
 6758TIP3   OH241764   4.201   5.253   5.805 -0.1398 -0.0582 -0.0100
 6758TIP3    H141765   4.219   5.346   5.819 -0.0521 -0.1860  0.7269
 6758TIP3    H241766   4.105   5.248   5.800 -0.0922  0.2957 -1.6724
 6759TIP3   OH241767   5.992   1.036  16.630  0.5304 -0.2867 -0.5646
 6759TIP3    H141768   5.976   1.011  16.721 -1.0964 -0.4554 -0.8883
 6759TIP3    H241769   6.041   1.118  16.635  1.3833 -0.8445  0.4581
 6760TIP3   OH241770   5.859   0.094   1.319 -0.7479  0.1166  0.0009
 6760TIP3    H141771   5.927   0.060   1.377 -0.3567  0.1394 -0.4512
 6760TIP3    H241772   5.830   0.019   1.268  1.7532  0.8906 -2.6737
 6761TIP3   OH241773   1.875   4.979   0.131 -0.5903 -0.4395  0.1082
 6761TIP3    H141774   1.805   5.035   0.164 -0.2505 -0.2417  0.5080
 6761TIP3    H241775   1.936   4.971   0.205 -0.5858 -1.2572  0.0186
 6762TIP3   OH241776   3.065   4.003  11.798  0.3636  0.5870  0.5140
 6762TIP3    H141777   3.033   4.093  11.802  0.1194  0.6326 -1.8917
 6762TIP3    H241778   3.158   4.009  11.819  0.0376  1.1946  1.8185
 6763TIP3   OH241779   3.284   2.770  11.778 -0.1764  0.7067 -0.5270
 6763TIP3    H141780   3.230   2.843  11.806 -0.7959  0.2281 -0.4701
 6763TIP3    H241781   3.258   2.698  11.835  1.7439  0.9173  0.6981
 6764TIP3   OH241782   5.658   4.403  13.274  0.4961 -0.1846 -0.3383
 6764TIP3    H141783   5.719   4.435  13.341  1.4578 -0.4406 -1.0733
 6764TIP3    H241784   5.659   4.308  13.284 -0.7346 -0.1186  0.4543
 6765TIP3   OH241785   4.310   3.036   1.779 -0.2647  0.0657 -0.4075
 6765TIP3    H141786   4.377   3.001   1.721  0.3498 -0.9886  0.9136
 6765TIP3    H241787   4.257   3.093   1.723  1.3080  0.3757 -1.6114
 6766TIP3   OH241788   3.916   2.869  14.874  0.3271 -0.3955  0.5995
 6766TIP3    H141789   3.989   2.869  14.812  1.2280 -0.7675  1.6379
 6766TIP3    H241790   3.874   2.784  14.860  0.8163 -0.6767  0.8360
 6767TIP3   OH241791   3.081   5.897  11.332  0.0847  0.0281 -0.3899
 6767TIP3    H141792   3.069   5.813  11.287 -0.0841 -0.8023  1.1783
 6767TIP3    H241793   3.080   5.875  11.425 -2.7751  2.1274  0.1477
 6768TIP3   OH241794   2.803   5.419  16.518  0.2579 -0.0840 -0.1466
 6768TIP3    H141795   2.737   5.488  16.513 -0.0659 -0.3115  0.8712
 6768TIP3    H241796   2.854   5.428  16.438  0.6863  1.8187  0.3244
 6769TIP3   OH241797   5.974   6.013   0.720  0.4513  0.1993 -0.6732
 6769TIP3    H141798   5.896   6.063   0.744 -0.0489  0.2723 -2.4169
 6769TIP3    H241799   6.045   6.077   0.722  0.4071  0.2198  0.5097
 6770TIP3   OH241800   6.142   4.386  14.432 -0.2392 -0.0937  0.1957
 6770TIP3    H141801   6.178   4.427  14.510  1.1624 -1.2797  0.2019
 6770TIP3    H241802   6.143   4.293  14.451  1.0065 -0.4782 -1.5669
 6771TIP3   OH241803   2.971   6.135   5.337 -0.2358 -0.4260 -0.1172
 6771TIP3    H141804   2.969   6.039   5.327  0.7685 -0.5166  0.5006
 6771TIP3    H241805   2.992   6.167   5.250 -0.5309 -0.7634 -0.3194
 6772TIP3   OH241806   4.224   3.657   3.251 -0.3662 -0.1644 -0.0044
 6772TIP3    H141807   4.172   3.728   3.289  0.7752  1.8441 -2.0552
 6772TIP3    H241808   4.315   3.688   3.258  0.0410 -0.8373 -2.0930
 6773TIP3   OH241809   0.259   5.344  12.542  0.3513  0.3357  0.7102
 6773TIP3    H141810   0.187   5.283  12.532  0.4781 -0.1058  2.2998
 6773TIP3    H241811   0.311   5.307  12.613  2.0261  0.7629 -0.2685
 6774TIP3   OH241812   4.107   3.536   4.569  0.1063  0.1832 -0.4143
 6774TIP3    H141813   4.193   3.579   4.573  0.8226 -1.3640  2.1009
 6774TIP3    H241814   4.066   3.557   4.654 -1.5670  0.0133 -1.1694
 6775TIP3   OH241815   4.628   1.065  11.932  0.7944 -0.2248 -0.1364
 6775TIP3    H141816   4.649   1.072  11.839  1.5923  0.0804  0.0640
 6775TIP3    H241817   4.713   1.071  11.977  0.3529  0.3740  0.6449
 6776TIP3   OH241818   5.778   3.268   2.791  0.7341  0.1363  0.2706
 6776TIP3    H141819   5.709   3.299   2.850 -0.9946 -3.1721  0.0833
 6776TIP3    H241820   5.747   3.290   2.703  0.6354  0.0054  0.2730
 6777TIP3   OH241821   1.044   1.792  13.221  0.3122  0.0192  0.2123
 6777TIP3    H141822   0.999   1.807  13.304  1.0685 -1.3139  0.8698
 6777TIP3    H241823   1.087   1.876  13.202 -0.1780  0.4503  0.9643
 6778TIP3   OH241824   5.120   2.891   2.363  0.2915 -0.4560 -0.0419
 6778TIP3    H141825   5.083   2.854   2.443  0.4677 -0.5663 -0.0110
 6778TIP3    H241826   5.103   2.985   2.369  0.6829 -0.4093  0.3223
 6779TIP3   OH241827   3.686   1.302  13.548 -0.4326 -0.4866  0.0678
 6779TIP3    H141828   3.625   1.300  13.622  0.2502 -0.5177  0.6366
 6779TIP3    H241829   3.644   1.359  13.484  0.4784  2.2450  1.8286
 6780TIP3   OH241830   3.063   2.368   2.889 -0.4501 -0.2059 -0.2251
 6780TIP3    H141831   3.076   2.368   2.984  1.6223  1.3582 -0.4723
 6780TIP3    H241832   2.970   2.350   2.877 -0.4849 -1.7008  2.0469
 6781TIP3   OH241833   4.539   5.395   3.764  0.0549 -0.5448 -0.8883
 6781TIP3    H141834   4.499   5.388   3.851 -0.8275 -0.2169 -1.2553
 6781TIP3    H241835   4.616   5.338   3.768  0.2598 -0.2094  0.2384
 6782TIP3   OH241836   0.996   1.514   3.981  0.7222 -0.0262  0.0411
 6782TIP3    H141837   0.941   1.473   3.915  1.2701  0.8289 -0.9563
 6782TIP3    H241838   0.934   1.557   4.040  0.2242 -0.9682  0.2127
 6783TIP3   OH241839   1.991   1.348   2.076 -0.0712 -0.4220  0.1115
 6783TIP3    H141840   2.070   1.305   2.046  0.9587  0.9973  0.7480
 6783TIP3    H241841   1.955   1.288   2.142  1.3226 -0.3586  0.9572
 6784TIP3   OH241842   6.136   6.814  13.514 -0.2602 -0.4189 -0.5955
 6784TIP3    H141843   6.181   6.893  13.483 -0.3165 -0.3732 -0.5634
 6784TIP3    H241844   6.063   6.803  13.454 -0.0172 -0.6791 -0.8385
 6785TIP3   OH241845   0.034   6.308  11.482  0.5996 -0.2193 -0.1517
 6785TIP3    H141846   0.022   6.392  11.528 -0.7693 -1.2337  1.4105
 6785TIP3    H241847   0.128   6.304  11.464  0.5493  2.1280 -1.2108
 6786TIP3   OH241848   1.574   2.243  13.115  0.4537  0.6258  0.3035
 6786TIP3    H141849   1.536   2.328  13.139  0.5429  0.5251  0.7964
 6786TIP3    H241850   1.506   2.179  13.138  1.5739  0.2819  2.8000
 6787TIP3   OH241851   3.005   3.707  13.512  0.3831  0.0427  0.0212
 6787TIP3    H141852   2.925   3.744  13.550  0.0646  0.4568 -1.0314
 6787TIP3    H241853   2.984   3.615  13.497  0.3014  0.0192  0.2783
 6788TIP3   OH241854   3.991   6.299   2.508 -0.2591  0.8353  0.1758
 6788TIP3    H141855   3.912   6.264   2.548  0.0409 -0.5501 -0.4318
 6788TIP3    H241856   3.959   6.360   2.441 -0.7863  1.3569  0.8979
 6789TIP3   OH241857   0.879   5.530   6.043  0.4328  0.4498 -0.2919
 6789TIP3    H141858   0.888   5.605   5.984  1.0925  2.7207  2.6268
 6789TIP3    H241859   0.793   5.493   6.021  0.8592  0.9194 -2.9919
 6790TIP3   OH241860   3.423   3.083  13.871 -0.3176 -0.1311 -0.0921
 6790TIP3    H141861   3.433   3.099  13.777 -0.2545 -0.5319 -0.1576
 6790TIP3    H241862   3.386   2.995  13.876  0.8957 -0.6316  0.2900
 6791TIP3   OH241863   0.590   2.896  12.164  0.3317  0.7375  0.2315
 6791TIP3    H141864   0.559   2.925  12.079  0.4503  0.6007  0.1419
 6791TIP3    H241865   0.614   2.977  12.210  0.4545  0.7956  0.0645
 6792TIP3   OH241866   3.145   0.908  13.627  0.2278  0.2312 -0.2457
 6792TIP3    H141867   3.205   0.886  13.556  0.9319 -2.2270  1.0579
 6792TIP3    H241868   3.117   0.824  13.661 -0.7558  1.3766  1.8571
 6793TIP3   OH241869   4.013   6.352  14.546  0.5108  0.6796 -0.3296
 6793TIP3    H141870   3.942   6.386  14.491  0.3835  0.2600 -0.4271
 6793TIP3    H241871   3.982   6.265  14.573  1.7858 -0.2749 -1.8831
 6794TIP3   OH241872   3.260   4.670   4.023  0.2055 -0.0774  0.6699
 6794TIP3    H141873   3.241   4.639   3.934 -2.2409  3.7454 -0.2804
 6794TIP3    H241874   3.205   4.616   4.080  0.4644 -1.3732 -0.2853
 6795TIP3   OH241875   2.619   4.394  16.501  0.9025 -0.6752 -0.4206
 6795TIP3    H141876   2.670   4.428  16.575 -2.0536 -0.4623  1.5852
 6795TIP3    H241877   2.598   4.472  16.449 -1.6410  0.0115  1.5108
 6796TIP3   OH241878   5.146   2.087  12.460 -0.0614  0.5782 -0.8306
 6796TIP3    H141879   5.208   2.151  12.425  1.0191  0.0679  0.1306
 6796TIP3    H241880   5.191   2.002  12.450 -1.1256  0.0540 -1.2932
 6797TIP3   OH241881   6.286   1.173  16.505 -0.0065 -0.6787  0.3859
 6797TIP3    H141882   6.232   1.245  16.536  0.3830 -0.5495  0.7860
 6797TIP3    H241883   6.374   1.193  16.540 -0.1089 -1.8771  1.3869
 6798TIP3   OH241884   2.660   3.680  15.477  0.0071  0.0428  0.2159
 6798TIP3    H141885   2.576   3.724  15.469  1.0251  1.8031 -1.2238
 6798TIP3    H241886   2.723   3.740  15.437  1.8512 -1.5372  0.6360
 6799TIP3   OH241887   3.531   2.566   2.264  0.5182 -0.0616  0.0566
 6799TIP3    H141888   3.463   2.503   2.285  0.2931 -0.4538 -1.7949
 6799TIP3    H241889   3.538   2.621   2.343 -0.2257 -1.5241  1.1609
 6800TIP3   OH241890   0.701   1.170  13.268  0.0222  0.4387 -0.0924
 6800TIP3    H141891   0.704   1.241  13.333  0.0232 -0.5582  1.0096
 6800TIP3    H241892   0.660   1.211  13.191  0.6225  1.8111  0.2896
 6801TIP3   OH241893   4.500   3.373   0.286  0.1194 -0.0058 -0.0866
 6801TIP3    H141894   4.472   3.389   0.196  2.2801  1.2729 -0.5849
 6801TIP3    H241895   4.420   3.375   0.337 -1.0520  0.0501 -1.8737
 6802TIP3   OH241896   4.139   3.881   2.511 -0.6065  0.1686 -0.1143
 6802TIP3    H141897   4.094   3.906   2.430 -1.4326  0.2036  0.3512
 6802TIP3    H241898   4.184   3.800   2.489  0.5033  1.0257 -1.0768
 6803TIP3   OH241899   1.045   2.015   3.139  0.1076 -0.4115 -0.7947
 6803TIP3    H141900   0.999   2.007   3.055  0.5427 -0.1769 -1.0616
 6803TIP3    H241901   0.976   2.033   3.202 -0.1028  0.6527 -1.3077
 6804TIP3   OH241902   5.622   5.531  13.345 -0.2749 -0.0189  0.2248
 6804TIP3    H141903   5.652   5.607  13.396  0.4496 -0.1898  0.0535
 6804TIP3    H241904   5.543   5.562  13.302  0.2602  0.7879 -0.1945
 6805TIP3   OH241905   6.465   3.551  13.987  0.0891 -0.6711  0.0480
 6805TIP3    H141906   6.402   3.623  13.983 -0.1576 -0.9980 -3.0314
 6805TIP3    H241907   6.550   3.594  13.988 -0.1040 -0.2838 -0.0863
 6806TIP3   OH241908   3.435   5.054  11.338 -0.0205 -0.0622  0.0081
 6806TIP3    H141909   3.427   5.024  11.247 -0.7018 -0.3727  0.1717
 6806TIP3    H241910   3.524   5.088  11.344 -0.3696  1.1022 -1.1268
 6807TIP3   OH241911   4.906   4.928   5.615  0.2403  0.2224 -0.0529
 6807TIP3    H141912   4.935   4.932   5.706 -0.2698 -1.4395  0.2014
 6807TIP3    H241913   4.810   4.928   5.620  0.2108 -0.9948 -0.5302
 6808TIP3   OH241914   5.042   4.105   3.789 -0.5455  0.1379  0.0665
 6808TIP3    H141915   4.956   4.071   3.810 -0.6761  0.5487  0.1987
 6808TIP3    H241916   5.025   4.188   3.743 -0.2232  0.2947  0.2228
 6809TIP3   OH241917   1.423   1.375   5.627 -0.6144  0.0909  0.0438
 6809TIP3    H141918   1.507   1.344   5.660 -0.1259  1.6456  0.3266
 6809TIP3    H241919   1.443   1.405   5.538 -0.5229  1.8561  0.6395
 6810TIP3   OH241920   2.000   3.935   4.172 -0.3772  1.2444 -0.1348
 6810TIP3    H141921   2.004   3.898   4.084  1.1224  1.9698 -0.3911
 6810TIP3    H241922   2.087   3.918   4.210 -0.6532  1.8659  0.8124
 6811TIP3   OH241923   3.435   6.224   4.825  0.3166 -0.3886 -0.3265
 6811TIP3    H141924   3.396   6.148   4.868  1.5257 -0.3074  0.9277
 6811TIP3    H241925   3.481   6.188   4.749  3.0937 -1.2791  1.7039
 6812TIP3   OH241926   3.210   1.048   6.173  0.3265  0.2376  0.0136
 6812TIP3    H141927   3.231   0.968   6.222 -0.0328 -0.0678 -0.3346
 6812TIP3    H241928   3.295   1.089   6.158  0.6554 -0.7814 -1.0184
 6813TIP3   OH241929   3.749   3.917   5.742 -0.0494 -0.3556  0.2300
 6813TIP3    H141930   3.731   3.972   5.666 -0.6168 -0.0707  0.5657
 6813TIP3    H241931   3.807   3.971   5.796 -1.5834  0.4182  1.1391
 6814TIP3   OH241932   3.706   2.307  11.659  0.1696  0.1277  0.5498
 6814TIP3    H141933   3.765   2.269  11.724 -0.2183 -1.5637 -0.0407
 6814TIP3    H241934   3.706   2.244  11.587  0.2995  1.7752 -0.9343
 6815TIP3   OH241935   5.099   0.192   2.775 -0.5507  0.5035 -0.2949
 6815TIP3    H141936   5.183   0.235   2.763 -0.4835  0.6738  0.7777
 6815TIP3    H241937   5.086   0.142   2.694  0.2446  1.0378 -0.7556
 6816TIP3   OH241938   0.664   4.128  11.193 -0.0623  0.1257 -0.3381
 6816TIP3    H141939   0.633   4.057  11.250  1.5737 -0.5047 -0.2006
 6816TIP3    H241940   0.754   4.104  11.172  0.4675  2.0805 -0.4253
 6817TIP3   OH241941   4.619   6.129  17.195 -0.0513  0.1560 -0.0610
 6817TIP3    H141942   4.662   6.079  17.125 -1.1450  0.7210 -1.1486
 6817TIP3    H241943   4.621   6.070  17.271  0.6312 -0.6873 -0.7206
 6818TIP3   OH241944   1.171   0.676   3.698  0.2241 -0.1959 -0.0962
 6818TIP3    H141945   1.203   0.640   3.780 -0.4253  0.3879  0.4142
 6818TIP3    H241946   1.249   0.681   3.642  0.0940 -3.6487 -0.6720
 6819TIP3   OH241947   5.337   4.940   6.112 -0.6057 -0.2153 -0.3629
 6819TIP3    H141948   5.262   4.912   6.165 -0.3851 -2.4396 -1.1528
 6819TIP3    H241949   5.360   5.026   6.146 -0.1466 -1.7822  3.4509
 6820TIP3   OH241950   2.677   0.514   5.955  0.6605  0.3922  0.3163
 6820TIP3    H141951   2.702   0.433   5.909  0.0038  0.8487 -0.8720
 6820TIP3    H241952   2.756   0.539   6.003  0.6946 -1.2785  1.1809
 6821TIP3   OH241953   2.904   1.857   6.545  0.0265  0.2133  0.0227
 6821TIP3    H141954   2.890   1.901   6.628 -0.9355  1.4847 -0.7986
 6821TIP3    H241955   2.867   1.770   6.557 -1.8846  1.0536  0.3051
 6822TIP3   OH241956   3.491   1.287  14.319  0.5272 -0.2783  0.0232
 6822TIP3    H141957   3.530   1.289  14.232 -0.2611 -1.8698 -0.3908
 6822TIP3    H241958   3.557   1.243  14.374  0.8183  0.2797  0.1184
 6823TIP3   OH241959   2.166   6.556   1.865  0.9213  0.3873  0.2700
 6823TIP3    H141960   2.238   6.573   1.804  1.2089 -2.8775 -0.3736
 6823TIP3    H241961   2.210   6.533   1.947  0.5290  2.6399  1.1712
 6824TIP3   OH241962   3.560   3.485  11.918  0.6272 -0.9234 -0.3132
 6824TIP3    H141963   3.507   3.557  11.885  0.7946 -0.4542  0.4266
 6824TIP3    H241964   3.503   3.409  11.914 -0.6887 -0.0986  2.0875
 6825TIP3   OH241965   2.896   4.831  11.801  0.3463  0.2428 -0.2009
 6825TIP3    H141966   2.844   4.896  11.753  1.0446 -0.6281 -2.1684
 6825TIP3    H241967   2.981   4.832  11.759  0.6882 -1.2430  0.4121
 6826TIP3   OH241968   5.410   5.017   5.108  0.1289 -0.2634  0.4736
 6826TIP3    H141969   5.387   4.932   5.146 -0.3012 -0.3481  0.0358
 6826TIP3    H241970   5.445   5.067   5.181  1.4385 -1.1997  0.4983
 6827TIP3   OH241971   4.746   2.617   2.867  0.1521  0.4109  0.1116
 6827TIP3    H141972   4.816   2.673   2.900  0.4193  0.4894 -0.5727
 6827TIP3    H241973   4.722   2.656   2.783 -0.9901  0.6214  0.5234
 6828TIP3   OH241974   2.389   0.027  13.948  0.0042 -0.2018 -0.0949
 6828TIP3    H141975   2.333   0.053  14.021 -0.5145  0.2660 -0.6451
 6828TIP3    H241976   2.475   0.015  13.987 -0.8699 -2.9237  1.1363
 6829TIP3   OH241977   3.258   2.364  15.762  0.0410 -0.5733  0.1266
 6829TIP3    H141978   3.200   2.430  15.799  1.7459  1.4329 -0.6694
 6829TIP3    H241979   3.226   2.351  15.673 -1.1198 -1.8558  0.7092
 6830TIP3   OH241980   0.573   3.894   3.512 -0.3958 -0.2272 -0.5605
 6830TIP3    H141981   0.507   3.858   3.453  0.3073 -1.7645 -0.4302
 6830TIP3    H241982   0.643   3.829   3.512  1.1078  1.3464 -0.6544
 6831TIP3   OH241983   6.570   0.416   4.622  0.3951 -0.0005 -0.1282
 6831TIP3    H141984   6.608   0.488   4.673  2.1652 -1.2028  0.3246
 6831TIP3    H241985   6.476   0.432   4.624  0.7012  1.8271  0.6873
 6832TIP3   OH241986   0.130   5.781  13.573 -0.4298  0.3432 -0.8638
 6832TIP3    H141987   0.036   5.793  13.583 -0.5305 -0.2801 -1.0493
 6832TIP3    H241988   0.149   5.813  13.484 -0.6681 -0.6790 -1.2888
 6833TIP3   OH241989   5.507   6.141   0.739 -0.1777 -0.0358 -0.0707
 6833TIP3    H141990   5.507   6.054   0.698  2.1374  0.2573 -0.7714
 6833TIP3    H241991   5.469   6.127   0.826 -2.2468 -1.2514 -1.1404
 6834TIP3   OH241992   6.718   4.861  11.628  0.2129 -0.3878  0.2141
 6834TIP3    H141993   6.686   4.793  11.687  0.6351 -0.3032  0.5469
 6834TIP3    H241994   6.813   4.857  11.636  0.3582 -1.6153 -1.8793
 6835TIP3   OH241995   3.785   0.730  12.728  0.5078  1.2587 -0.6354
 6835TIP3    H141996   3.690   0.721  12.726  0.5528  0.7950 -0.7607
 6835TIP3    H241997   3.805   0.756  12.817  0.4067 -0.2922 -0.1484
 6836TIP3   OH241998   3.007   3.782   4.576  0.0333 -0.2338  0.0255
 6836TIP3    H141999   2.949   3.723   4.527  0.5605 -0.4548 -0.3310
 6836TIP3    H242000   3.027   3.735   4.657  0.9114 -0.7909 -0.5094
 6837TIP3   OH242001   2.582   2.853  14.981  0.0096  0.5092  0.9167
 6837TIP3    H142002   2.519   2.852  15.053  1.7458  0.0153  2.4771
 6837TIP3    H242003   2.662   2.817  15.019  1.1722  0.9286 -1.0721
 6838TIP3   OH242004   2.162   3.879   4.824 -0.0173 -0.0253  0.3554
 6838TIP3    H142005   2.134   3.969   4.842 -0.0240 -0.3341  1.9742
 6838TIP3    H242006   2.246   3.888   4.779 -0.0924  0.7816  0.3687
 6839TIP3   OH242007   5.624   0.894   5.758  0.2128  0.0908 -0.0668
 6839TIP3    H142008   5.711   0.858   5.742  0.9944  1.1937  1.5455
 6839TIP3    H242009   5.597   0.857   5.842 -0.2295  0.9245  0.1670
 6840TIP3   OH242010   4.138   3.890   4.858 -0.2380 -0.1871 -0.2956
 6840TIP3    H142011   4.140   3.823   4.790 -1.3340 -0.9520  0.4163
 6840TIP3    H242012   4.083   3.960   4.822 -1.1227 -0.7538 -0.0542
 6841TIP3   OH242013   5.334   4.245   0.090  0.1848 -0.5698  0.0560
 6841TIP3    H142014   5.411   4.302   0.099 -0.5004  0.2223  1.0166
 6841TIP3    H242015   5.322   4.208   0.177  1.0423 -2.7591 -0.7340
 6842TIP3   OH242016   4.333   4.690   5.564 -0.3267 -0.2155  0.4002
 6842TIP3    H142017   4.352   4.744   5.641 -0.0881  0.5321 -0.1732
 6842TIP3    H242018   4.322   4.753   5.493 -2.0234 -0.8114  0.1077
 6843TIP3   OH242019   3.081   5.268  16.641  0.1709 -0.6044 -0.4656
 6843TIP3    H142020   3.041   5.181  16.643  0.1890 -0.6021  0.0000
 6843TIP3    H242021   3.149   5.262  16.574  0.5892 -1.1272  0.0042
 6844TIP3   OH242022   6.297   0.202  13.462 -0.6005  0.2925  0.2834
 6844TIP3    H142023   6.312   0.196  13.367 -2.9090 -0.5948 -0.0612
 6844TIP3    H242024   6.333   0.287  13.487 -2.0950  1.5961 -1.8262
 6845TIP3   OH242025   0.547   5.744  14.448  0.2585  0.5156 -0.4751
 6845TIP3    H142026   0.532   5.835  14.475  2.0989  0.4182  0.9930
 6845TIP3    H242027   0.596   5.751  14.366 -0.4188  0.8414 -0.8534
 6846TIP3   OH242028   5.257   1.692  13.615  0.1405  0.4539  0.2151
 6846TIP3    H142029   5.214   1.776  13.604  1.4121  1.2436  1.1070
 6846TIP3    H242030   5.286   1.668  13.527 -1.0039  0.5045 -0.1852
 6847TIP3   OH242031   5.972   5.715   4.587 -0.2744  0.0333  0.0537
 6847TIP3    H142032   6.060   5.750   4.573  0.6215 -1.6162  1.2545
 6847TIP3    H242033   5.938   5.764   4.662 -0.1466  0.2925 -0.0588
 6848TIP3   OH242034   6.317   5.271  14.342  1.2335  0.0599 -0.1761
 6848TIP3    H142035   6.300   5.201  14.405  0.8854 -0.5972 -1.0014
 6848TIP3    H242036   6.371   5.333  14.391 -0.0564  0.1590  1.1554
 6849TIP3   OH242037   6.566   5.281   1.875  0.2067 -0.4154  0.2732
 6849TIP3    H142038   6.617   5.358   1.852  0.8395 -1.3430 -1.5349
 6849TIP3    H242039   6.476   5.304   1.853 -0.0401  0.8353  2.4598
 6850TIP3   OH242040   4.994   4.224   0.908  0.2351  0.3049 -0.0789
 6850TIP3    H142041   4.950   4.305   0.934  1.3533  1.4374 -1.6069
 6850TIP3    H242042   5.065   4.214   0.971 -0.6503 -0.1783  0.8648
 6851TIP3   OH242043   1.088   4.019  16.066  0.0109 -0.3987  0.1728
 6851TIP3    H142044   1.141   4.087  16.024 -0.0231 -0.4957 -0.0220
 6851TIP3    H242045   1.149   3.972  16.122  0.3480 -1.1896 -0.8626
 6852TIP3   OH242046   2.393   0.375   4.881  0.1762  0.4292 -0.3834
 6852TIP3    H142047   2.395   0.351   4.973 -0.8066  0.3954 -0.3668
 6852TIP3    H242048   2.300   0.378   4.858  0.4474 -2.4927 -2.1434
 6853TIP3   OH242049   3.925   2.014  14.557  0.2435  0.1704 -0.3903
 6853TIP3    H142050   3.961   2.088  14.508  0.8755 -0.3648 -0.7490
 6853TIP3    H242051   3.948   1.938  14.504 -0.0598 -0.3120  0.1761
 6854TIP3   OH242052   3.747   1.630  12.630  0.3645  0.0982  0.2271
 6854TIP3    H142053   3.753   1.722  12.656  0.2434  0.0916  0.2810
 6854TIP3    H242054   3.761   1.581  12.711 -1.1202  0.0936  0.5020
 6855TIP3   OH242055   5.861   4.345   0.657 -0.4341  0.7024  0.0924
 6855TIP3    H142056   5.784   4.289   0.665 -1.8202  2.2099 -1.9910
 6855TIP3    H242057   5.851   4.410   0.727 -0.2227 -0.0425  0.8184
 6856TIP3   OH242058   0.015   3.225  17.078  0.6939  0.7031 -0.1255
 6856TIP3    H142059  -0.039   3.295  17.041  0.0062 -0.2026 -0.8624
 6856TIP3    H242060   0.005   3.235  17.173 -0.8000  0.5247 -0.2592
 6857TIP3   OH242061   0.528   3.625  12.991 -0.1822 -0.5493  0.4860
 6857TIP3    H142062   0.518   3.607  12.898 -0.5911 -0.9427  0.6045
 6857TIP3    H242063   0.609   3.676  12.997 -0.0259 -0.7311 -0.0546
 6858TIP3   OH242064   3.371   5.939   3.988  0.0835  0.6270  0.5484
 6858TIP3    H142065   3.460   5.974   3.988  0.1994  0.3702 -0.8299
 6858TIP3    H242066   3.331   5.976   3.910 -1.2476  1.2614  1.5131
 6859TIP3   OH242067   2.344   4.065  16.502  0.7013 -1.3012  0.3062
 6859TIP3    H142068   2.271   4.112  16.463  2.2415 -1.3554 -2.8562
 6859TIP3    H242069   2.307   3.982  16.531 -0.6169 -1.0500 -0.6206
 6860TIP3   OH242070   1.099   6.413  14.270 -0.0819  0.3409  0.2289
 6860TIP3    H142071   1.013   6.400  14.229  0.1342  0.3190 -0.2199
 6860TIP3    H242072   1.101   6.506  14.292 -0.5390  0.1772  0.9661
 6861TIP3   OH242073   5.895   4.755  13.500  0.0993  0.3110  0.0644
 6861TIP3    H142074   5.962   4.762  13.568  0.3261  0.5824 -0.1812
 6861TIP3    H242075   5.888   4.661  13.484  0.2241  0.2617  0.2884
 6862TIP3   OH242076   5.626   4.489  17.210 -0.2775  0.1762 -0.1262
 6862TIP3    H142077   5.685   4.564  17.198 -1.2807  0.8634 -0.8966
 6862TIP3    H242078   5.609   4.486  17.304 -1.0243  1.5568 -0.2032
 6863TIP3   OH242079   2.906   5.638   0.685  0.7581 -0.0397 -0.1304
 6863TIP3    H142080   2.883   5.548   0.661  1.8367 -0.0417 -1.2419
 6863TIP3    H242081   2.926   5.633   0.778  0.0399 -0.8009 -0.0130
 6864TIP3   OH242082   0.930   3.995  11.711 -0.1571  0.1851  0.0729
 6864TIP3    H142083   0.963   3.920  11.761 -1.0169  1.1545  2.1177
 6864TIP3    H242084   0.837   3.978  11.700  0.2634 -0.6946 -2.4370
 6865TIP3   OH242085   3.647   0.670   4.793  0.5862 -0.4681  0.2451
 6865TIP3    H142086   3.676   0.742   4.738  0.4300 -0.0431  0.7190
 6865TIP3    H242087   3.560   0.695   4.823 -0.2372 -1.6706 -1.0397
 6866TIP3   OH242088   1.594   3.169   1.804 -0.5608 -0.2304 -0.0170
 6866TIP3    H142089   1.638   3.105   1.860  0.7333  1.1772  0.6054
 6866TIP3    H242090   1.607   3.136   1.715  1.4995 -0.0196  0.1848
 6867TIP3   OH242091   2.888   5.636  12.951 -0.0294 -0.3311  0.3280
 6867TIP3    H142092   2.802   5.599  12.934  0.6365 -1.5937 -0.4460
 6867TIP3    H242093   2.946   5.560  12.955  1.1164  0.5239  0.3606
 6868TIP3   OH242094   1.835   0.997   1.749 -0.2977 -0.1442 -0.1091
 6868TIP3    H142095   1.748   0.962   1.768  0.1518 -0.5667  1.2438
 6868TIP3    H242096   1.844   0.990   1.654 -0.0033 -4.2523  0.1574
 6869TIP3   OH242097   3.528   2.206  17.006 -0.2887  0.3706 -0.1098
 6869TIP3    H142098   3.492   2.221  16.919 -2.0297  2.6506  0.9356
 6869TIP3    H242099   3.455   2.170  17.057  0.1129  0.9931  0.9289
 6870TIP3   OH242100   1.319   1.493  12.517  0.3585 -0.0231  0.5765
 6870TIP3    H142101   1.287   1.405  12.495  0.1197  0.2305 -0.1092
 6870TIP3    H242102   1.248   1.534  12.566 -1.2386  1.2696 -2.6845
 6871TIP3   OH242103   2.861   6.293   4.867  0.0472  0.3406  0.2097
 6871TIP3    H142104   2.792   6.354   4.889 -0.7170 -0.7469  0.8934
 6871TIP3    H242105   2.900   6.328   4.787  0.1248  2.1108  1.0008
 6872TIP3   OH242106   2.676   5.330  13.613 -0.0344  0.2602 -0.2966
 6872TIP3    H142107   2.607   5.285  13.662 -0.6996  1.0508 -0.4977
 6872TIP3    H242108   2.629   5.387  13.552  0.7726  1.4630  0.1717
 6873TIP3   OH242109   1.659   6.449   4.990 -0.2560 -0.4360  0.1423
 6873TIP3    H142110   1.683   6.400   5.069 -1.0095 -0.1458  0.5594
 6873TIP3    H242111   1.662   6.540   5.017 -4.0687 -0.4737  0.8669
 6874TIP3   OH242112   3.165   0.381   5.701 -0.2530 -0.2667  0.2717
 6874TIP3    H142113   3.229   0.422   5.760 -0.5655 -0.6794  0.8984
 6874TIP3    H242114   3.114   0.455   5.667 -0.0655 -0.0279  0.5058
 6875TIP3   OH242115   5.533   4.375   5.688 -0.2001  0.1576 -0.1777
 6875TIP3    H142116   5.495   4.303   5.637 -0.5519  0.4866 -0.3911
 6875TIP3    H242117   5.598   4.334   5.743  0.0033 -0.2485 -0.7130
 6876TIP3   OH242118   5.622   1.327   6.461  0.4185 -0.2633 -0.3737
 6876TIP3    H142119   5.597   1.413   6.497  0.8411  1.4847 -4.0072
 6876TIP3    H242120   5.686   1.293   6.524  0.1967  2.0499  1.2025
 6877TIP3   OH242121   4.381   3.360  12.118  0.1390  0.3529  0.0860
 6877TIP3    H142122   4.335   3.373  12.035  2.1840  0.3780 -1.0751
 6877TIP3    H242123   4.437   3.284  12.103  1.2315  0.9335  1.1118
 6878TIP3   OH242124   6.687   4.806   5.089 -0.3517 -0.2263  0.1003
 6878TIP3    H142125   6.619   4.740   5.076 -0.1183 -0.3967 -0.2681
 6878TIP3    H242126   6.740   4.772   5.161 -0.0463 -0.5963 -0.2946
 6879TIP3   OH242127   4.076   1.661  15.882 -0.4484 -0.2044  0.3027
 6879TIP3    H142128   3.988   1.669  15.919 -0.6975  0.1931 -0.3729
 6879TIP3    H242129   4.065   1.679  15.789  0.1676 -1.2676  0.0163
 6880TIP3   OH242130   6.078   4.197   0.564  0.0238  0.0690  0.0467
 6880TIP3    H142131   6.132   4.258   0.514  0.5492 -1.2522 -0.9911
 6880TIP3    H242132   6.004   4.251   0.594  1.4856  1.6907  0.8280
 6881TIP3   OH242133   5.024   4.893   6.104 -0.4266  0.7610 -0.3600
 6881TIP3    H142134   5.011   4.813   6.156 -0.4310  0.6550 -0.5217
 6881TIP3    H242135   5.009   4.965   6.165  2.3435  0.6543  0.4866
 6882TIP3   OH242136   6.407   4.038   5.060  0.6189 -0.3084  0.3787
 6882TIP3    H142137   6.472   3.972   5.036 -1.4833 -1.8220 -1.3886
 6882TIP3    H242138   6.377   4.074   4.977  0.5810  1.7673  1.2576
 6883TIP3   OH242139   2.524   4.010   2.314 -0.6822  0.5585 -0.6111
 6883TIP3    H142140   2.489   4.069   2.380  0.4052  0.2922  0.2300
 6883TIP3    H242141   2.460   3.940   2.306 -0.8186  0.5976  0.1663
 6884TIP3   OH242142   1.446   0.478  16.983 -0.2117 -0.0176  0.3639
 6884TIP3    H142143   1.367   0.501  16.933 -0.2119  1.1057  0.8736
 6884TIP3    H242144   1.415   0.465  17.072  0.1316  0.1010  0.5021
 6885TIP3   OH242145   4.202   2.574  13.119 -0.5037  0.0856 -0.1689
 6885TIP3    H142146   4.254   2.514  13.067 -1.3483 -0.7922 -0.0285
 6885TIP3    H242147   4.241   2.660  13.104  0.5197 -0.4536 -0.6247
 6886TIP3   OH242148   4.640   5.343  14.031 -0.0450 -0.1710 -0.7622
 6886TIP3    H142149   4.728   5.381  14.024  0.5200 -0.7400  2.4661
 6886TIP3    H242150   4.581   5.418  14.027  0.7344  0.4650 -0.5727
 6887TIP3   OH242151   4.084   3.524   6.702  0.3372 -0.2511 -0.4865
 6887TIP3    H142152   4.034   3.594   6.660  0.4303 -0.4487 -0.9269
 6887TIP3    H242153   4.162   3.566   6.736  0.3602 -0.1304 -0.6936
 6888TIP3   OH242154   6.726   3.855   2.156  0.1828 -0.5338 -0.2302
 6888TIP3    H142155   6.735   3.845   2.251 -1.3307 -0.3212 -0.0403
 6888TIP3    H242156   6.695   3.769   2.126  0.1642 -0.4461 -0.4602
 6889TIP3   OH242157   0.484   1.238  13.532 -0.0373 -0.2551  0.1852
 6889TIP3    H142158   0.574   1.243  13.500 -0.8007  0.2778 -2.0550
 6889TIP3    H242159   0.443   1.318  13.498 -2.0116 -1.7575 -1.0749
 6890TIP3   OH242160   1.458   5.079  13.850  0.1090 -0.4121 -0.4075
 6890TIP3    H142161   1.374   5.061  13.892 -0.1651  0.2078 -0.6912
 6890TIP3    H242162   1.499   5.145  13.906  1.1418 -1.9033  0.6657
 6891TIP3   OH242163   0.699   0.967  13.658 -0.4566  0.8429 -0.1898
 6891TIP3    H142164   0.748   0.886  13.676 -1.8989  0.3748  1.7743
 6891TIP3    H242165   0.725   1.027  13.728  0.9821  2.2805 -1.9229
 6892TIP3   OH242166   5.976   6.718  11.415 -0.0080 -0.4948 -0.2172
 6892TIP3    H142167   6.041   6.687  11.351  0.3137 -1.3268  0.5059
 6892TIP3    H242168   5.973   6.650  11.481 -0.8037  0.0748  0.3412
 6893TIP3   OH242169   4.541   0.012  15.144 -0.0760  0.3774 -0.1187
 6893TIP3    H142170   4.592   0.010  15.063  1.4270  0.8586  0.7821
 6893TIP3    H242171   4.568   0.093  15.187 -0.8221  0.1079  0.8741
 6894TIP3   OH242172   5.810   2.159   3.492  0.1493  0.6718  0.2590
 6894TIP3    H142173   5.716   2.165   3.506  0.2273  0.9018  0.6955
 6894TIP3    H242174   5.829   2.065   3.497 -0.0128  0.6494  0.4601
 6895TIP3   OH242175   2.632   6.235   2.458  0.5726 -0.4522 -0.0061
 6895TIP3    H142176   2.613   6.142   2.446  0.8987 -0.5032 -0.1158
 6895TIP3    H242177   2.575   6.261   2.531 -1.0106 -0.2561 -1.2839
 6896TIP3   OH242178   1.759   0.968  12.905  0.1425  0.6835  0.1264
 6896TIP3    H142179   1.849   0.963  12.937  0.6437  1.0661 -1.1682
 6896TIP3    H242180   1.719   0.886  12.933  0.5634  1.0021  1.6895
 6897TIP3   OH242181   0.807   0.895   0.894 -0.0294  0.8200 -0.1674
 6897TIP3    H142182   0.764   0.972   0.930 -0.3443 -0.3141  1.9852
 6897TIP3    H242183   0.736   0.836   0.871  0.2738  0.1567  0.5697
 6898TIP3   OH242184   5.610   2.132   0.666  0.5351  0.3513 -0.6401
 6898TIP3    H142185   5.642   2.066   0.727 -1.6105  0.1320  0.2777
 6898TIP3    H242186   5.651   2.109   0.582  2.2080 -0.3118  0.3306
 6899TIP3   OH242187   2.239   2.467  15.336  0.0023  0.3469  0.3647
 6899TIP3    H142188   2.259   2.473  15.242 -0.6538  0.6605  0.2447
 6899TIP3    H242189   2.211   2.555  15.360 -0.8758  0.0060  0.6120
 6900TIP3   OH242190   6.189   5.733   4.993 -0.1179  0.8977 -0.4189
 6900TIP3    H142191   6.180   5.822   4.960  0.1589  1.2185  0.3555
 6900TIP3    H242192   6.264   5.697   4.945 -0.8762  0.7290 -1.4825
 6901TIP3   OH242193   5.089   0.865   0.554 -0.0023 -0.3705  0.1748
 6901TIP3    H142194   5.017   0.839   0.611  1.4549 -1.4998  1.5637
 6901TIP3    H242195   5.166   0.864   0.610  0.9723  1.7819 -1.0441
 6902TIP3   OH242196   4.786   4.090  11.599  0.3183  0.3240 -0.4578
 6902TIP3    H142197   4.768   4.042  11.679 -1.3881  0.5596 -0.6731
 6902TIP3    H242198   4.840   4.031  11.546 -1.7523 -1.4089 -0.7332
 6903TIP3   OH242199   0.582   2.603   5.516  0.3059 -0.0947 -0.0274
 6903TIP3    H142200   0.488   2.615   5.504  0.0571  0.0041  1.8756
 6903TIP3    H242201   0.616   2.692   5.527  0.5675 -0.1529 -0.3872
 6904TIP3   OH242202   5.722   1.526   3.667  0.2089  0.0622  0.7091
 6904TIP3    H142203   5.642   1.476   3.649  0.5037 -0.4217  0.7579
 6904TIP3    H242204   5.690   1.608   3.706 -0.1322 -1.6160  4.1911
 6905TIP3   OH242205   4.808   1.119   2.956 -0.5623  0.2970 -0.4983
 6905TIP3    H142206   4.830   1.163   3.038  0.2163  0.4263 -0.7719
 6905TIP3    H242207   4.882   1.061   2.939 -1.5814 -1.1259 -0.1423
 6906TIP3   OH242208   1.717   3.956   6.231  0.1989 -0.4672  0.3053
 6906TIP3    H142209   1.657   3.976   6.303 -0.3821  0.6859 -0.4791
 6906TIP3    H242210   1.786   3.905   6.271 -0.4565 -0.3901  1.5621
 6907TIP3   OH242211   6.325   3.553   1.122 -0.1178  0.0352  0.2244
 6907TIP3    H142212   6.346   3.614   1.052  0.0863  0.1050  0.3473
 6907TIP3    H242213   6.230   3.561   1.133 -0.1378  0.0923  0.0217
 6908TIP3   OH242214   6.614   6.045  14.037  0.4087  0.1576  0.0851
 6908TIP3    H142215   6.574   6.069  14.120  0.7740  0.4089  0.1862
 6908TIP3    H242216   6.693   5.996  14.062  0.9756  0.9692 -0.1105
 6909TIP3   OH242217   4.450   2.988  14.575 -0.5380 -0.1440 -0.2174
 6909TIP3    H142218   4.522   2.987  14.513 -0.3117 -1.2787  0.0493
 6909TIP3    H242219   4.412   2.900  14.569 -1.9660  0.4805 -0.4380
 6910TIP3   OH242220   2.099   2.200  12.365  0.0257  0.0212  0.7974
 6910TIP3    H142221   2.154   2.123  12.351 -0.8103 -0.8437  2.1229
 6910TIP3    H242222   2.037   2.199  12.292 -0.2038 -0.7912  0.9866
 6911TIP3   OH242223   0.439   6.427   2.860  0.4022  0.0073  0.3315
 6911TIP3    H142224   0.533   6.446   2.856  0.4764 -0.6036 -0.9346
 6911TIP3    H242225   0.416   6.398   2.772 -0.7653 -0.8392  0.8915
 6912TIP3   OH242226   6.392   0.428  16.207  0.3491 -0.0842 -0.2750
 6912TIP3    H142227   6.462   0.399  16.266  0.3865 -0.6080 -0.5739
 6912TIP3    H242228   6.380   0.355  16.146 -2.2721 -1.0872  1.3713
 6913TIP3   OH242229   5.996   0.616  11.737  0.1598 -0.0955 -0.0032
 6913TIP3    H142230   6.056   0.620  11.811 -0.5728 -1.9863  0.7121
 6913TIP3    H242231   6.039   0.556  11.675  1.5149  2.6542 -1.8294
 6914TIP3   OH242232   3.524   6.026   1.882  0.8122  0.2410 -0.4314
 6914TIP3    H142233   3.436   6.064   1.882  0.2780 -0.9537 -2.2845
 6914TIP3    H242234   3.549   6.022   1.790  2.3175 -0.5632 -0.0072
 6915TIP3   OH242235   2.777   0.723   1.800 -0.5400  0.7621  0.1549
 6915TIP3    H142236   2.802   0.653   1.861  1.5467 -0.7274 -2.2981
 6915TIP3    H242237   2.807   0.803   1.842  0.4283 -0.1858  1.3147
 6916TIP3   OH242238   5.692   2.788  17.067  0.9833 -0.1121  0.7759
 6916TIP3    H142239   5.710   2.828  17.152  0.4376  1.0068  0.3606
 6916TIP3    H242240   5.691   2.694  17.085 -0.9864  0.1957  2.3618
 6917TIP3   OH242241   3.031   4.997  16.649  0.3343  0.6835 -0.4270
 6917TIP3    H142242   3.108   4.968  16.698 -0.7067  1.4737  1.7408
 6917TIP3    H242243   3.006   4.920  16.598  0.1291 -0.9258  1.9918
 6918TIP3   OH242244   5.031   6.291   0.535  0.4625 -0.0019  0.2299
 6918TIP3    H142245   4.980   6.330   0.605  1.0200 -0.8589  1.1366
 6918TIP3    H242246   4.966   6.251   0.477  0.0726 -0.6418  1.0998
 6919TIP3   OH242247   1.425   2.398   0.741  0.2983 -1.0800 -0.1556
 6919TIP3    H142248   1.466   2.464   0.796  1.9800  0.2339 -2.9189
 6919TIP3    H242249   1.335   2.391   0.775  1.2676 -0.2899  2.6735
 6920TIP3   OH242250   4.722   3.623   1.871  0.8337  0.1644  0.2124
 6920TIP3    H142251   4.767   3.539   1.870  2.1403  0.8630 -1.5616
 6920TIP3    H242252   4.664   3.621   1.795  2.2842  1.6020 -0.9561
 6921TIP3   OH242253   3.370   0.712  16.860 -0.0863  0.0196  0.7341
 6921TIP3    H142254   3.361   0.617  16.859  1.3297 -0.1003 -0.4524
 6921TIP3    H242255   3.326   0.741  16.781  0.1386  0.3038  0.7129
 6922TIP3   OH242256   4.463   5.197   4.648  0.1508 -0.0420  0.1197
 6922TIP3    H142257   4.485   5.248   4.725 -1.9290  1.2070 -0.0620
 6922TIP3    H242258   4.448   5.108   4.681  0.4440  0.2221  0.9656
 6923TIP3   OH242259   0.240   1.979  15.923 -0.2002  0.1675  0.0702
 6923TIP3    H142260   0.177   1.951  15.857 -0.4653  1.0251 -0.0470
 6923TIP3    H242261   0.201   2.057  15.963  0.5906  0.4616  0.2895
 6924TIP3   OH242262   5.580   6.617  14.402  0.6576 -0.0217  0.4403
 6924TIP3    H142263   5.526   6.670  14.343 -1.4069 -0.3470  1.9768
 6924TIP3    H242264   5.650   6.676  14.430  0.3360  0.8396 -0.5389
 6925TIP3   OH242265   0.029   2.478  17.044 -0.4695 -0.3754  0.4416
 6925TIP3    H142266   0.072   2.426  16.976  0.0341  0.7012 -0.0768
 6925TIP3    H242267   0.015   2.563  17.004 -2.4129 -0.4760  0.8666
 6926TIP3   OH242268   6.169   4.087   4.554  0.0097  0.1560  0.4502
 6926TIP3    H142269   6.136   4.152   4.491 -3.3514 -0.4838  1.4904
 6926TIP3    H242270   6.208   4.019   4.499 -0.1166  1.0862 -0.8208
 6927TIP3   OH242271   1.944   2.061   2.994 -0.0088  0.0149 -0.3471
 6927TIP3    H142272   1.909   2.081   2.907 -0.2204 -2.2074 -0.8140
 6927TIP3    H242273   2.036   2.039   2.978  0.4405  1.4573  0.2545
 6928TIP3   OH242274   1.104   0.522   1.833  0.5557  0.2001  0.2203
 6928TIP3    H142275   1.190   0.558   1.812 -0.0577  1.1854 -0.6441
 6928TIP3    H242276   1.046   0.558   1.766 -1.4449  3.2498  3.4171
 6929TIP3   OH242277   1.983   6.558   2.121  0.1488 -0.4810 -0.1353
 6929TIP3    H142278   1.892   6.588   2.126  0.5214  0.7398 -0.5708
 6929TIP3    H242279   2.007   6.539   2.211 -0.2440  0.0749  0.0842
 6930TIP3   OH242280   2.907   5.223  11.922  0.9944  0.5641 -0.0238
 6930TIP3    H142281   2.968   5.192  11.988  0.7996  3.0215  1.3689
 6930TIP3    H242282   2.836   5.159  11.922  1.4074  0.0884  1.5411
 6931TIP3   OH242283   0.084   3.207   5.049 -0.1054  0.7961  0.6643
 6931TIP3    H142284   0.077   3.242   4.960 -0.1776  0.9750  0.7403
 6931TIP3    H242285   0.056   3.278   5.105 -0.6601  0.4743  0.7979
 6932TIP3   OH242286   1.404   0.976   2.122  0.5638 -0.2557 -0.1208
 6932TIP3    H142287   1.357   0.973   2.040  1.0632 -0.5219 -0.4024
 6932TIP3    H242288   1.431   1.067   2.132  0.4777 -0.2185 -0.2363
 6933TIP3   OH242289   6.025   1.671  13.068  0.2588 -0.2579 -0.2814
 6933TIP3    H142290   6.016   1.737  12.999 -2.7505  0.2119  0.5140
 6933TIP3    H242291   6.069   1.717  13.140 -1.9478  0.9723  0.3249
 6934TIP3   OH242292   2.506   0.113   3.649  0.8896 -0.2745 -0.0196
 6934TIP3    H142293   2.466   0.062   3.719 -0.3427 -0.8261 -1.1132
 6934TIP3    H242294   2.454   0.194   3.646  0.3923 -0.6154 -0.8510
 6935TIP3   OH242295   2.662   0.471  15.333 -0.2424 -0.1220  0.3762
 6935TIP3    H142296   2.622   0.530  15.269 -0.7407 -0.6759  0.1699
 6935TIP3    H242297   2.721   0.416  15.281  0.0690  0.0592  0.5375
 6936TIP3   OH242298   2.820   5.662   2.122 -0.4604 -0.3414 -0.3298
 6936TIP3    H142299   2.835   5.570   2.145  0.1454 -0.7937 -2.4476
 6936TIP3    H242300   2.886   5.681   2.056 -0.3330  1.7448  0.3700
 6937TIP3   OH242301   6.119   3.770   2.230  0.2107  0.4486 -0.0173
 6937TIP3    H142302   6.060   3.817   2.289  1.3756  0.6041  1.0707
 6937TIP3    H242303   6.202   3.819   2.236  0.2163  0.7321 -2.1478
 6938TIP3   OH242304   3.171   3.801  16.794  0.2018  0.2813  0.5373
 6938TIP3    H142305   3.211   3.876  16.750  0.9156 -0.5457 -0.2229
 6938TIP3    H242306   3.216   3.796  16.878 -3.0069  3.5404  2.6146
 6939TIP3   OH242307   1.539   3.034  13.389 -0.6201  0.2411 -0.2505
 6939TIP3    H142308   1.564   2.944  13.411 -1.2335  0.0854 -0.1946
 6939TIP3    H242309   1.513   3.072  13.473  0.7557  0.8265 -0.0866
 6940TIP3   OH242310   4.987   6.686   3.257 -0.5127 -0.8897 -0.2137
 6940TIP3    H142311   4.897   6.685   3.224 -0.2998  0.6572 -0.8723
 6940TIP3    H242312   5.014   6.595   3.255 -2.2570 -1.4425  0.5002
 6941TIP3   OH242313   0.715   2.014  17.144 -0.2635 -0.5943 -0.0877
 6941TIP3    H142314   0.645   2.026  17.080  1.8866  0.5835 -2.3048
 6941TIP3    H242315   0.710   2.091  17.200 -2.3937 -1.8091  1.4919
 6942TIP3   OH242316   6.285   3.010   4.042  0.8417  0.0552 -1.0699
 6942TIP3    H142317   6.224   3.069   3.999  2.5286  1.4084 -1.6839
 6942TIP3    H242318   6.261   3.014   4.135 -1.9001 -1.7784 -1.6737
 6943TIP3   OH242319   6.559   1.756   5.336 -0.1984 -1.3345 -0.2364
 6943TIP3    H142320   6.529   1.735   5.424 -0.7881 -0.8426 -0.3213
 6943TIP3    H242321   6.540   1.676   5.285  1.6273 -2.2213  0.4313
 6944TIP3   OH242322   2.591   1.508  13.492 -0.7364 -0.0761  0.5073
 6944TIP3    H142323   2.550   1.436  13.445  1.1972 -0.1492 -1.1142
 6944TIP3    H242324   2.564   1.495  13.583  0.3574 -3.3903  0.4150
 6945TIP3   OH242325   4.136   4.286   3.790 -0.3525 -0.2755  0.3323
 6945TIP3    H142326   4.141   4.368   3.741  0.5344 -0.5673 -0.0772
 6945TIP3    H242327   4.089   4.226   3.731 -2.1620  0.3025  1.1556
 6946TIP3   OH242328   1.910   6.485  11.389  0.8041  0.0142 -0.0709
 6946TIP3    H142329   1.913   6.511  11.297  0.4028 -0.2802 -0.1683
 6946TIP3    H242330   1.885   6.564  11.436 -1.6281 -0.4864 -0.4867
 6947TIP3   OH242331   2.651   6.620  16.301 -0.0031  0.6780  0.2242
 6947TIP3    H142332   2.698   6.574  16.232  0.6668 -0.0339  1.1409
 6947TIP3    H242333   2.599   6.686  16.255  1.3810  1.0392 -0.8650
 6948TIP3   OH242334   6.188   6.262  11.094 -0.3902  0.3696  0.0900
 6948TIP3    H142335   6.200   6.186  11.151 -0.8777  0.0115 -0.2814
 6948TIP3    H242336   6.096   6.287  11.106 -1.1819 -1.1739 -2.3147
 6949TIP3   OH242337   5.024   5.405   5.755 -0.0670  0.3350  0.2131
 6949TIP3    H142338   5.040   5.360   5.672 -0.4864  1.2379 -0.3646
 6949TIP3    H242339   5.104   5.393   5.805 -0.3150 -1.3955  0.2285
 6950TIP3   OH242340   2.559   5.687  16.484  0.3284  0.2853 -0.8471
 6950TIP3    H142341   2.468   5.691  16.511  0.7468 -0.3359  0.7228
 6950TIP3    H242342   2.574   5.770  16.439 -0.8751  0.5974 -0.6848
 6951TIP3   OH242343   3.517   6.477  12.507 -0.7213  0.1023  0.3198
 6951TIP3    H142344   3.428   6.504  12.530 -1.2021 -1.7295  0.6454
 6951TIP3    H242345   3.518   6.383  12.520  0.4268 -0.3254 -2.4361
 6952TIP3   OH242346   3.717   2.620   5.776  0.5296 -0.8146  0.0929
 6952TIP3    H142347   3.769   2.700   5.770 -1.1150  0.8373  4.9139
 6952TIP3    H242348   3.636   2.640   5.730 -0.1869  0.6582  1.9182
 6953TIP3   OH242349   4.282   3.291  15.519 -0.5056  0.1394  0.1118
 6953TIP3    H142350   4.231   3.219  15.484 -0.8916  0.8431 -0.7838
 6953TIP3    H242351   4.226   3.331  15.586 -0.6242  0.1373  0.0121
 6954TIP3   OH242352   6.122   1.545  11.482  0.0043 -0.7476  0.0788
 6954TIP3    H142353   6.093   1.471  11.429 -1.3065 -0.2286  0.0569
 6954TIP3    H242354   6.211   1.561  11.454 -0.3127 -1.1659 -1.1985
 6955TIP3   OH242355   3.314   4.589  17.247 -0.1782 -0.7639  0.4650
 6955TIP3    H142356   3.228   4.630  17.245  0.3804  0.5258  1.9037
 6955TIP3    H242357   3.327   4.556  17.158 -0.5985  2.2835 -0.8089
 6956TIP3   OH242358   1.546   3.155  11.422 -0.1272 -0.6330 -0.1883
 6956TIP3    H142359   1.595   3.236  11.436 -0.1120 -0.9619  1.7494
 6956TIP3    H242360   1.482   3.178  11.355 -0.7251  1.2582  0.9819
 6957TIP3   OH242361   0.211   4.774  12.576  1.2304  0.0427 -0.5157
 6957TIP3    H142362   0.285   4.762  12.635  0.5666 -1.0054  0.1247
 6957TIP3    H242363   0.145   4.711  12.607  0.6543 -0.1133 -2.0225
 6958TIP3   OH242364   4.528   2.956  12.985  0.3676  0.3435  0.0075
 6958TIP3    H142365   4.581   2.879  12.962  1.2674  0.7780  0.5672
 6958TIP3    H242366   4.581   3.002  13.050  0.1832  1.8349 -0.8777
 6959TIP3   OH242367   4.566   1.063   2.838 -0.2662 -0.0204 -0.6845
 6959TIP3    H142368   4.654   1.084   2.870 -0.2964 -0.5841 -0.2044
 6959TIP3    H242369   4.563   1.099   2.750  0.3726  0.1918 -0.6243
 6960TIP3   OH242370   1.000   2.205   1.030  0.0707  0.1867 -0.3417
 6960TIP3    H142371   1.086   2.172   1.056  0.0939  0.5984  0.1158
 6960TIP3    H242372   0.944   2.128   1.029  0.1066  0.1380  0.7932
 6961TIP3   OH242373   3.078   3.532   0.061 -0.1938 -0.1155  0.1781
 6961TIP3    H142374   3.106   3.475   0.132  0.0257  0.0249  0.2018
 6961TIP3    H242375   2.995   3.493   0.031 -0.8379  0.4577  1.2202
 6962TIP3   OH242376   1.466   4.201  13.260 -0.8918  0.1782 -0.1685
 6962TIP3    H142377   1.509   4.280  13.226 -0.8986  0.2133 -0.0988
 6962TIP3    H242378   1.422   4.163  13.185  0.7035 -0.8145 -0.6257
 6963TIP3   OH242379   0.667   1.530  15.767  0.0248  0.0561  0.0718
 6963TIP3    H142380   0.699   1.480  15.842 -0.7950 -0.6099 -0.0125
 6963TIP3    H242381   0.705   1.617  15.777  0.1679 -0.1276  1.0869
 6964TIP3   OH242382   2.640   1.820   3.008 -0.4639  0.1594 -0.5849
 6964TIP3    H142383   2.545   1.826   3.005 -0.5080 -0.0731  0.4135
 6964TIP3    H242384   2.659   1.770   3.087  0.4668 -0.2782 -1.0789
 6965TIP3   OH242385   5.235   0.099  11.355 -0.3701 -0.2116  0.2042
 6965TIP3    H142386   5.295   0.155  11.404  1.5885 -0.2739 -2.0153
 6965TIP3    H242387   5.240   0.131  11.265 -1.9904 -1.6681 -0.4394
 6966TIP3   OH242388   1.334   0.160   0.357  0.6207  0.1361 -0.4585
 6966TIP3    H142389   1.307   0.229   0.297 -0.9775 -0.0791 -0.0151
 6966TIP3    H242390   1.303   0.079   0.316 -0.8541  0.0215  0.8233
 6967TIP3   OH242391   4.528   1.448   2.346 -0.4014  0.4498  0.1781
 6967TIP3    H142392   4.597   1.400   2.391 -0.1402 -1.2763 -1.9857
 6967TIP3    H242393   4.491   1.386   2.284 -1.9688  2.2138 -0.7374
 6968TIP3   OH242394   4.766   2.669   3.670  0.2105 -0.0034 -0.4524
 6968TIP3    H142395   4.708   2.746   3.663 -1.0845 -0.8970  0.2174
 6968TIP3    H242396   4.759   2.643   3.762  1.7076 -0.1108 -0.3658
 6969TIP3   OH242397   1.485   3.278   2.242  0.4045 -0.3852  0.0974
 6969TIP3    H142398   1.529   3.276   2.327 -2.5417 -1.3204  1.6994
 6969TIP3    H242399   1.480   3.186   2.216 -1.0615 -0.3581  0.2311
 6970TIP3   OH242400   3.858   0.305   4.089  0.0265  0.0273 -0.5478
 6970TIP3    H142401   3.779   0.252   4.103 -0.0944  0.3187 -0.0855
 6970TIP3    H242402   3.868   0.310   3.994  0.3325 -1.2584 -0.5835
 6971TIP3   OH242403   1.312   0.349  12.671  0.2451 -0.5870 -0.5754
 6971TIP3    H142404   1.297   0.266  12.715  3.4205  0.0537  1.9362
 6971TIP3    H242405   1.334   0.326  12.581 -0.1132 -2.3744 -0.2148
 6972TIP3   OH242406   1.083   1.362  16.382 -0.1935  0.1456 -0.3809
 6972TIP3    H142407   1.061   1.275  16.414  2.7376 -1.3290 -2.0975
 6972TIP3    H242408   1.112   1.410  16.459  0.4401 -1.2014  0.2377
 6973TIP3   OH242409   4.029   2.756   5.734  0.2097  0.0252 -0.1416
 6973TIP3    H142410   3.973   2.823   5.774 -0.8728 -0.8377 -0.1910
 6973TIP3    H242411   4.066   2.799   5.657 -0.0212  0.7397  0.1352
 6974TIP3   OH242412   2.702   3.391  10.926 -0.3061 -0.4880 -0.1461
 6974TIP3    H142413   2.709   3.297  10.946  1.9632 -0.6960 -1.6440
 6974TIP3    H242414   2.675   3.394  10.834  0.6997  0.2966 -0.4278
 6975TIP3   OH242415   1.207   2.768  15.030  0.5554 -0.1836 -0.3561
 6975TIP3    H142416   1.163   2.845  15.064 -1.6827 -1.8479  0.6362
 6975TIP3    H242417   1.213   2.708  15.105  2.4211 -0.9209 -1.0526
 6976TIP3   OH242418   3.322   1.080   1.213 -0.0001  0.9934  0.0765
 6976TIP3    H142419   3.383   1.090   1.286  0.4844 -1.0946  0.0075
 6976TIP3    H242420   3.355   1.003   1.165 -1.7280  0.8373 -0.9035
 6977TIP3   OH242421   1.393   0.601   4.947 -0.2891 -0.1713 -0.0847
 6977TIP3    H142422   1.462   0.628   5.007 -0.8107  0.1151  0.3975
 6977TIP3    H242423   1.416   0.642   4.864  1.2680 -1.8272 -0.4997
 6978TIP3   OH242424   4.464   2.834  14.018 -0.2844  0.1061  0.3106
 6978TIP3    H142425   4.545   2.796  14.051 -0.1694 -0.3482 -0.4851
 6978TIP3    H242426   4.460   2.807  13.926 -1.2390  0.2818  0.2918
 6979TIP3   OH242427   2.969   0.033  14.164 -0.7197  0.1442  0.4195
 6979TIP3    H142428   3.057   0.042  14.199 -0.1928 -0.8891 -0.5877
 6979TIP3    H242429   2.931   0.121  14.169  0.3830  0.6009  0.7960
 6980TIP3   OH242430   2.661   3.481   6.105  0.3385  0.0529 -0.4661
 6980TIP3    H142431   2.646   3.416   6.174  0.8762 -1.2081 -1.5053
 6980TIP3    H242432   2.576   3.490   6.062 -0.2847  1.7184  1.0913
 6981TIP3   OH242433   1.954   4.177   3.252 -0.5065  0.1375  0.5060
 6981TIP3    H142434   1.998   4.247   3.205  0.8751 -2.0166 -1.5523
 6981TIP3    H242435   1.862   4.205   3.255 -0.1263  1.6654 -1.0165
 6982TIP3   OH242436   2.653   3.298  10.683  0.0741 -0.0287 -0.5112
 6982TIP3    H142437   2.705   3.238  10.630 -0.4879 -1.2880  0.3385
 6982TIP3    H242438   2.562   3.275  10.662 -0.1557 -0.5510  0.9755
 6983TIP3   OH242439   5.227   1.991   0.831  0.3414  0.3638 -0.0282
 6983TIP3    H142440   5.274   1.922   0.878  1.2419  0.0635 -1.3537
 6983TIP3    H242441   5.251   2.072   0.877  1.3960  0.0984 -0.0927
 6984TIP3   OH242442   2.771   1.837  12.398  0.5620  0.2930  0.3600
 6984TIP3    H142443   2.862   1.861  12.384  0.2127  2.1339  1.1204
 6984TIP3    H242444   2.735   1.907  12.452 -1.8236  0.6448 -1.6010
 6985TIP3   OH242445   3.385   0.925  11.690  0.0697 -0.1645 -0.0268
 6985TIP3    H142446   3.431   0.879  11.620 -2.7403 -0.9286 -1.4386
 6985TIP3    H242447   3.437   0.908  11.768  2.9850  0.2706 -1.8118
 6986TIP3   OH242448   1.953   0.117  16.474  0.2475  0.4620  0.3070
 6986TIP3    H142449   1.892   0.182  16.511  0.0889 -0.0895  1.0322
 6986TIP3    H242450   2.030   0.123  16.531  0.4709  0.4393  0.0045
 6987TIP3   OH242451   2.076   5.627   2.104  0.5364  0.2826  0.6130
 6987TIP3    H142452   2.078   5.532   2.114 -3.8404  0.1003  0.5205
 6987TIP3    H242453   2.052   5.642   2.013  3.6536  1.5920 -0.0701
 6988TIP3   OH242454   1.748   1.132   3.748  0.6846  0.0094 -0.1505
 6988TIP3    H142455   1.789   1.182   3.678  1.2938  0.8179  0.7769
 6988TIP3    H242456   1.814   1.129   3.817  0.6433 -2.0133 -0.1481
 6989TIP3   OH242457   1.725   0.013   4.188 -0.1886  0.4602  0.5092
 6989TIP3    H142458   1.761   0.068   4.118 -0.8178  1.3753  0.8824
 6989TIP3    H242459   1.801  -0.017   4.237  0.3117 -0.8958 -1.0738
 6990TIP3   OH242460   4.368   0.375  11.541 -0.7241 -0.0484 -0.1154
 6990TIP3    H142461   4.306   0.355  11.611 -0.8460 -1.3186 -0.5810
 6990TIP3    H242462   4.454   0.371  11.583 -0.8462  0.0339  0.1458
 6991TIP3   OH242463   2.140   3.177   3.251 -0.0728  0.0205  0.0653
 6991TIP3    H142464   2.214   3.194   3.309 -1.6719 -3.5755  3.3457
 6991TIP3    H242465   2.066   3.224   3.292 -0.2774  1.1671 -1.5712
 6992TIP3   OH242466   3.468   3.545   4.072  0.0085 -0.5771  0.0906
 6992TIP3    H142467   3.481   3.451   4.059  0.7891  0.1136 -5.1614
 6992TIP3    H242468   3.373   3.557   4.068  0.0796 -0.7562 -3.1427
 6993TIP3   OH242469   4.913   2.980   5.102  0.8129 -0.5390  0.1370
 6993TIP3    H142470   4.993   2.989   5.153 -0.3342 -0.4936  1.9648
 6993TIP3    H242471   4.924   3.041   5.029  2.4257 -0.5365  0.3586
 6994TIP3   OH242472   0.545   6.756   4.413  0.0102 -0.1814 -0.8343
 6994TIP3    H142473   0.449   6.765   4.412  0.1116  1.6509  0.7986
 6994TIP3    H242474   0.573   6.788   4.327 -0.8236 -0.4284 -1.2046
 6995TIP3   OH242475   1.307   4.457   4.732 -0.1793 -0.3185  0.1739
 6995TIP3    H142476   1.382   4.514   4.745 -0.2175 -0.0309 -0.8378
 6995TIP3    H242477   1.233   4.504   4.770  0.0533 -0.3460  0.6559
 6996TIP3   OH242478   1.758   2.929   0.546 -0.5065  0.3313  0.0047
 6996TIP3    H142479   1.779   2.992   0.477 -1.4576  0.4961 -0.1345
 6996TIP3    H242480   1.783   2.973   0.627  1.1183 -0.0693 -0.2567
 6997TIP3   OH242481   5.370   3.898  14.343 -0.3008 -0.5347  0.2132
 6997TIP3    H142482   5.301   3.859  14.397 -0.6866 -0.6854 -0.3988
 6997TIP3    H242483   5.407   3.825  14.294  2.2452 -0.9893  2.6556
 6998TIP3   OH242484   3.939   2.842   2.577 -0.0742 -0.2525  0.5347
 6998TIP3    H142485   3.880   2.790   2.631  1.1580 -0.8782  1.2951
 6998TIP3    H242486   3.948   2.792   2.496 -1.6357  0.5093 -0.1254
 6999TIP3   OH242487   2.791   1.035   4.229 -0.1477  0.5759  0.2127
 6999TIP3    H142488   2.766   1.119   4.267 -1.0349  0.0453  0.8528
 6999TIP3    H242489   2.854   0.998   4.291  1.2612  1.3598 -0.7565
 7000TIP3   OH242490   0.982   6.228   1.182 -0.1632 -0.2215 -0.2780
 7000TIP3    H142491   0.988   6.322   1.196 -0.5088 -0.3066  0.5094
 7000TIP3    H242492   0.888   6.210   1.180 -0.1022 -0.6816  0.5645
 7001TIP3   OH242493   4.505   1.105  15.905  0.4494 -0.1691  0.3117
 7001TIP3    H142494   4.579   1.061  15.864 -0.0197 -1.1557  0.5200
 7001TIP3    H242495   4.482   1.049  15.979 -0.3433  0.2779  0.4060
 7002TIP3   OH242496   3.589   2.395   6.221 -0.0498 -0.1606  0.2942
 7002TIP3    H142497   3.580   2.322   6.284 -1.8118  0.1994  0.5006
 7002TIP3    H242498   3.518   2.455   6.245 -0.0359  0.5179 -1.3401
 7003TIP3   OH242499   4.969   5.302  10.914 -0.4986  0.2950  0.6498
 7003TIP3    H142500   5.001   5.260  10.994  2.8672 -0.5302 -1.0318
 7003TIP3    H242501   4.933   5.231  10.863 -0.6236  0.4726  0.4912
 7004TIP3   OH242502   0.922   0.546  16.838 -0.1560 -0.0876  0.1042
 7004TIP3    H142503   0.995   0.566  16.897 -1.1331 -2.1087  2.0674
 7004TIP3    H242504   0.960   0.553  16.750  2.4308 -1.0722  1.0873
 7005TIP3   OH242505   5.181   3.442   4.018  0.2772 -0.1473 -0.3600
 7005TIP3    H142506   5.141   3.468   4.101 -0.8135 -0.3376 -0.8143
 7005TIP3    H242507   5.143   3.503   3.954  0.5297 -0.4903 -0.8359
 7006TIP3   OH242508   4.685   5.667   3.283 -0.9908  0.0941 -0.4278
 7006TIP3    H142509   4.732   5.590   3.316 -1.1354  0.3019  0.2720
 7006TIP3    H242510   4.752   5.733   3.270 -0.7378 -0.4403 -1.9110
 7007TIP3   OH242511   0.395   0.280   0.377 -0.0339  0.3794 -0.3532
 7007TIP3    H142512   0.303   0.303   0.369 -0.0189  0.0478 -1.6100
 7007TIP3    H242513   0.441   0.346   0.324  0.2100 -1.0728 -1.9999
 7008TIP3   OH242514   2.876   5.465   4.402  0.6777 -0.1878 -0.3008
 7008TIP3    H142515   2.845   5.385   4.360 -1.3028 -0.2565  1.2326
 7008TIP3    H242516   2.955   5.438   4.449  0.0789 -1.2229  0.1286
 7009TIP3   OH242517   2.533   5.332  12.368  0.1226 -0.9726 -0.1209
 7009TIP3    H142518   2.564   5.416  12.334 -1.0366 -0.4484  0.0909
 7009TIP3    H242519   2.582   5.320  12.450 -0.9414  0.3358  0.7294
 7010TIP3   OH242520   5.927   3.523   3.454 -0.1385  0.1878  0.4047
 7010TIP3    H142521   5.915   3.560   3.367  1.2736 -2.3964 -0.9271
 7010TIP3    H242522   5.878   3.582   3.512 -1.6602  1.5403 -2.1880
 7011TIP3   OH242523   4.968   0.638  11.530 -0.2851 -0.5460  0.4940
 7011TIP3    H142524   5.048   0.644  11.478 -0.7930 -0.2096 -0.2543
 7011TIP3    H242525   4.998   0.643  11.621  0.7517 -2.7029  0.2900
 7012TIP3   OH242526   6.593   0.499   5.937 -0.0219 -0.0277 -0.4286
 7012TIP3    H142527   6.630   0.502   6.025 -0.4708  0.0932 -0.2390
 7012TIP3    H242528   6.609   0.410   5.906  2.1751  0.5687 -1.1191
 7013TIP3   OH242529   3.207   0.802  13.978  0.1521  0.0722 -0.1052
 7013TIP3    H142530   3.167   0.844  14.054  1.5745 -0.6661  1.0895
 7013TIP3    H242531   3.138   0.746  13.942  0.2084 -1.6343  2.2624
 7014TIP3   OH242532   5.938   6.588   4.629 -0.0420  0.1681  0.0052
 7014TIP3    H142533   5.934   6.684   4.623 -0.4144  0.1107 -0.8549
 7014TIP3    H242534   5.962   6.560   4.540 -2.2581 -0.6388 -0.3733
 7015TIP3   OH242535   3.961   3.412   1.009 -0.3252  0.0977 -0.3848
 7015TIP3    H142536   4.037   3.449   1.054 -1.2701 -0.3098  1.5700
 7015TIP3    H242537   3.927   3.484   0.956 -0.0110  0.9985  0.6184
 7016TIP3   OH242538   5.957   4.932  14.363 -0.1737  0.3172  0.0604
 7016TIP3    H142539   5.984   4.849  14.402  1.6657  1.8399  2.2155
 7016TIP3    H242540   5.993   4.931  14.275  0.0707 -1.0573  0.1751
 7017TIP3   OH242541   1.390   1.684  12.165 -0.1634 -0.0358  0.5119
 7017TIP3    H142542   1.391   1.720  12.254  0.6270 -2.6278  1.5976
 7017TIP3    H242543   1.436   1.750  12.112 -0.9442  1.6845  1.9282
 7018TIP3   OH242544   3.975   4.548  11.240  0.8117 -0.0690 -0.5314
 7018TIP3    H142545   3.910   4.480  11.255 -0.1917  0.4764 -2.3472
 7018TIP3    H242546   4.057   4.500  11.224  0.1008 -0.8783 -1.8460
 7019TIP3   OH242547   2.292   2.165  13.667  0.3676  0.4392 -0.0834
 7019TIP3    H142548   2.225   2.188  13.603 -1.5473 -0.6975  1.4488
 7019TIP3    H242549   2.347   2.100  13.623  0.8884  1.8286 -1.5595
 7020TIP3   OH242550   5.173   3.684   5.157 -0.5439  0.4926 -0.1050
 7020TIP3    H142551   5.197   3.603   5.202 -0.3421 -0.4870 -1.9202
 7020TIP3    H242552   5.253   3.736   5.156 -0.4032  0.2799  0.1756
 7021TIP3   OH242553   2.771   6.213  15.346 -0.0501 -0.1170  0.3227
 7021TIP3    H142554   2.852   6.215  15.295 -0.5928 -2.3888 -0.6835
 7021TIP3    H242555   2.733   6.300  15.333 -0.1511 -0.5979 -3.1364
 7022TIP3   OH242556   3.652   1.783   5.039  0.5436  0.0776 -0.1185
 7022TIP3    H142557   3.732   1.835   5.033  0.2500  0.2552 -2.7380
 7022TIP3    H242558   3.664   1.713   4.975 -0.8725 -0.6504  0.3900
 7023TIP3   OH242559   4.338   1.594   3.614  0.1866  0.3325  0.6289
 7023TIP3    H142560   4.259   1.619   3.661 -0.0882 -1.3669  1.1301
 7023TIP3    H242561   4.323   1.502   3.591  1.5793  0.3017 -0.1839
 7024TIP3   OH242562   3.593   3.283   0.880  0.0424  0.3249 -0.2727
 7024TIP3    H142563   3.545   3.319   0.806 -1.1874 -0.4072  0.1425
 7024TIP3    H242564   3.530   3.286   0.953  0.1772 -1.7974 -0.0228
 7025TIP3   OH242565   0.273   5.673   1.082 -0.2729  0.2637 -0.1357
 7025TIP3    H142566   0.223   5.728   1.142 -2.4540 -0.2171 -1.4543
 7025TIP3    H242567   0.327   5.618   1.139  0.1950  2.1154  1.2555
 7026TIP3   OH242568   1.445   1.388  14.054 -0.4502  0.6772  0.5639
 7026TIP3    H142569   1.456   1.297  14.028 -0.9035  0.4398  1.2146
 7026TIP3    H242570   1.486   1.438  13.983 -0.2251 -0.0272  0.1973
 7027TIP3   OH242571   5.481   4.817  11.839 -0.1647  0.4636 -0.8717
 7027TIP3    H142572   5.493   4.751  11.906 -0.6896  0.9729 -0.2692
 7027TIP3    H242573   5.570   4.837  11.809  0.1913  1.1878  0.6132
 7028TIP3   OH242574   6.769   5.763  16.757  0.4069 -0.5607  0.1378
 7028TIP3    H142575   6.731   5.751  16.670  1.0372  0.0538 -0.2278
 7028TIP3    H242576   6.695   5.778  16.815  0.0329 -0.3849 -0.3935
 7029TIP3   OH242577   3.351   1.590  13.978  0.5430 -0.6333  0.1573
 7029TIP3    H142578   3.419   1.562  14.040 -0.2158 -2.0769  0.3338
 7029TIP3    H242579   3.304   1.510  13.956  0.1266  0.0571 -1.4735
 7030TIP3   OH242580   4.755   1.239   4.453  0.0221  0.2848 -0.6011
 7030TIP3    H142581   4.816   1.258   4.382 -0.4437  0.9402 -0.8296
 7030TIP3    H242582   4.736   1.324   4.492  0.2853 -0.0778  0.3177
 7031TIP3   OH242583   5.910   6.321   2.418  0.0588  0.9639  0.0492
 7031TIP3    H142584   5.858   6.398   2.394 -0.7029  0.8195  1.1596
 7031TIP3    H242585   5.990   6.328   2.366  0.2930  2.8631  0.6104
 7032TIP3   OH242586   4.848   0.454   3.099 -0.7059 -0.4505 -0.5802
 7032TIP3    H142587   4.903   0.383   3.065  0.7728  0.8299 -0.9251
 7032TIP3    H242588   4.895   0.534   3.075 -1.3551  0.5911  1.5146
 7033TIP3   OH242589   3.026   4.745  16.468  0.7918 -0.6895 -0.3353
 7033TIP3    H142590   3.107   4.774  16.425  1.2754 -0.0798  0.9663
 7033TIP3    H242591   3.019   4.652  16.446  0.8931 -0.3232 -1.9550
 7034TIP3   OH242592   1.218   1.805  11.904  0.0056  0.8792 -0.0153
 7034TIP3    H142593   1.198   1.872  11.969 -0.6599  0.0233  0.6555
 7034TIP3    H242594   1.311   1.820  11.883  0.6139  0.2827  2.1374
 7035TIP3   OH242595   0.091   1.974   2.808  0.1256 -0.6272 -0.7291
 7035TIP3    H142596   0.121   2.015   2.889  0.1421 -1.8673 -0.1059
 7035TIP3    H242597   0.171   1.939   2.767 -0.1586 -1.9080 -0.2029
 7036TIP3   OH242598   3.351   1.394   1.414 -0.7823 -0.7015 -0.2054
 7036TIP3    H142599   3.265   1.380   1.373 -0.7250  1.4945 -1.1515
 7036TIP3    H242600   3.385   1.306   1.427 -2.8488 -1.6014 -0.5366
 7037TIP3   OH242601   1.744   6.288   1.623 -0.1121  0.4930  0.1258
 7037TIP3    H142602   1.770   6.247   1.541  0.0242 -0.8525  0.8303
 7037TIP3    H242603   1.671   6.345   1.599 -1.2626 -1.2538 -0.6498
 7038TIP3   OH242604   3.352   5.400  11.688  0.5022  0.3145 -0.2783
 7038TIP3    H142605   3.407   5.478  11.698  1.3452  0.0144 -2.2072
 7038TIP3    H242606   3.299   5.418  11.611 -0.0141 -0.6180 -0.1469
 7039TIP3   OH242607   4.371   0.195  13.206  0.0594 -0.2436 -0.1575
 7039TIP3    H142608   4.320   0.118  13.229  1.1357 -1.6370 -2.2722
 7039TIP3    H242609   4.445   0.161  13.155  0.1226  2.2277 -1.8222
 7040TIP3   OH242610   4.736   4.924   6.149  0.4777  0.1645 -0.0422
 7040TIP3    H142611   4.799   4.954   6.215 -0.3169  0.6948  0.4827
 7040TIP3    H242612   4.660   4.895   6.199 -0.2221  0.7708 -0.7325
 7041TIP3   OH242613   4.746   5.232  13.689 -0.0416  0.0634 -0.1863
 7041TIP3    H142614   4.672   5.201  13.741  0.5189 -2.0256 -0.6007
 7041TIP3    H242615   4.815   5.249  13.753 -0.2360  0.1208  0.0080
 7042TIP3   OH242616   1.674   1.171   5.530  0.5570 -0.1249 -0.0721
 7042TIP3    H142617   1.719   1.252   5.553 -0.2922  0.7108 -1.3181
 7042TIP3    H242618   1.713   1.145   5.447 -0.6093  0.0868 -0.6787
 7043TIP3   OH242619   1.089   4.977   5.969 -0.4596  0.3620 -0.1107
 7043TIP3    H142620   0.995   4.963   5.969 -0.3711 -0.6876  3.4868
 7043TIP3    H242621   1.121   4.931   6.047  2.6919  2.7360  0.1189
 7044TIP3   OH242622   3.120   2.521  12.698 -0.3584 -0.9324 -0.1476
 7044TIP3    H142623   3.199   2.572  12.679 -1.5150  1.2821  0.7767
 7044TIP3    H242624   3.131   2.493  12.789 -0.3273 -1.2165 -0.2376
 7045TIP3   OH242625   2.565   1.212  15.963  0.5687 -0.4365 -0.0828
 7045TIP3    H142626   2.515   1.178  15.889 -0.0632  1.1318 -0.3991
 7045TIP3    H242627   2.499   1.248  16.022  1.1267 -0.9451  0.8687
 7046TIP3   OH242628   6.112   4.803   6.507  0.3994  0.3990  0.4913
 7046TIP3    H142629   6.018   4.792   6.496  0.3169  2.3563 -1.0947
 7046TIP3    H242630   6.151   4.759   6.431  0.7000  0.4245  0.6297
 7047TIP3   OH242631   4.105   2.247  12.955 -0.4585  0.1720 -0.3151
 7047TIP3    H142632   4.120   2.152  12.954  1.8412  0.5113 -0.7761
 7047TIP3    H242633   4.151   2.280  12.878 -0.6952  1.7586  0.2004
 7048TIP3   OH242634   1.316   5.622  16.894 -0.1915 -0.1253  0.1117
 7048TIP3    H142635   1.329   5.573  16.813 -1.5290  2.2964 -1.6389
 7048TIP3    H242636   1.404   5.649  16.920  0.3422 -1.7191  0.0099
 7049TIP3   OH242637   2.964   3.577   1.904  0.5022 -0.3507  0.6865
 7049TIP3    H142638   3.016   3.591   1.983 -1.0197 -0.6443  1.7615
 7049TIP3    H242639   2.939   3.666   1.876  1.5496 -0.2048  0.1493
 7050TIP3   OH242640   6.697   2.766   3.430  0.0107  0.1408 -0.4912
 7050TIP3    H142641   6.715   2.856   3.404  1.1743 -0.4136 -1.6687
 7050TIP3    H242642   6.782   2.722   3.426 -0.5220 -0.9844  0.1818
 7051TIP3   OH242643   5.157   1.282   4.178  0.2409  0.0537  0.0986
 7051TIP3    H142644   5.157   1.330   4.095  1.4685 -1.3628 -0.7330
 7051TIP3    H242645   5.068   1.247   4.186  0.3091 -0.3488 -0.9255
 7052TIP3   OH242646   5.187   4.136   5.933  0.1046 -0.1928 -0.8783
 7052TIP3    H142647   5.259   4.197   5.946  0.3186 -0.4761 -0.7455
 7052TIP3    H242648   5.144   4.130   6.018  0.4725 -0.7205 -0.7235
 7053TIP3   OH242649   6.011   0.350   1.454 -0.0122  0.4390 -0.7514
 7053TIP3    H142650   6.034   0.410   1.525  0.1709  0.6566 -0.9976
 7053TIP3    H242651   6.089   0.346   1.399  0.4784 -1.1245  0.0224
 7054TIP3   OH242652   3.250   5.816  17.183 -0.4483  0.1674 -0.4008
 7054TIP3    H142653   3.223   5.860  17.264  0.4242 -0.8976  0.4775
 7054TIP3    H242654   3.178   5.833  17.122 -1.8679 -0.3516  1.0906
 7055TIP3   OH242655   3.471   2.093   5.155  0.2255 -0.4451  0.2685
 7055TIP3    H142656   3.495   2.095   5.063 -1.9951 -0.9977 -0.3402
 7055TIP3    H242657   3.429   2.177   5.171 -0.0413 -0.6392  0.5924
 7056TIP3   OH242658   6.003   4.375  13.030  0.0995  0.7990  0.6722
 7056TIP3    H142659   6.060   4.309  12.991  1.3063  0.3398  3.1043
 7056TIP3    H242660   5.914   4.344  13.012  0.5917  0.8419 -2.0042
 7057TIP3   OH242661   1.795   2.428  16.179 -0.6793 -0.1649 -0.2443
 7057TIP3    H142662   1.888   2.418  16.197 -0.7733 -0.0845  0.2928
 7057TIP3    H242663   1.765   2.495  16.242 -0.8610  0.6404 -1.1733
 7058TIP3   OH242664   5.448   3.442  10.960 -0.0290 -0.1166  0.0130
 7058TIP3    H142665   5.489   3.457  11.046  0.6293  0.5621 -0.4094
 7058TIP3    H242666   5.409   3.355  10.967  0.2970 -0.2005  0.8943
 7059TIP3   OH242667   5.995   2.632  16.729  0.4935  0.0910 -0.2823
 7059TIP3    H142668   5.958   2.571  16.793 -0.4657  0.3773 -0.5531
 7059TIP3    H242669   6.074   2.588  16.698 -0.6775 -1.4926 -1.1744
 7060TIP3   OH242670   0.014   5.353  13.148  0.0865  0.0407 -0.7914
 7060TIP3    H142671   0.066   5.274  13.159  0.2221  0.3399  0.8321
 7060TIP3    H242672   0.057   5.402  13.078  0.9036 -0.5837 -0.7194
 7061TIP3   OH242673   6.291   3.327  14.330  0.6173 -0.3594 -0.2070
 7061TIP3    H142674   6.206   3.310  14.288  1.4839 -1.9891 -1.3960
 7061TIP3    H242675   6.273   3.325  14.424 -1.2926  2.8995 -0.4639
 7062TIP3   OH242676   3.293   5.626   1.744 -0.2760  0.9489 -0.4004
 7062TIP3    H142677   3.237   5.636   1.821  1.6150 -1.0056  1.2859
 7062TIP3    H242678   3.357   5.697   1.750  0.1787  0.4945  0.0949
 7063TIP3   OH242679   6.003   2.874  15.552 -0.2574  0.5070  0.1279
 7063TIP3    H142680   5.926   2.932  15.551 -1.0835 -0.5503  0.8411
 7063TIP3    H242681   5.976   2.801  15.607 -0.0921 -1.7494 -2.7085
 7064TIP3   OH242682   2.070   0.500  11.898 -0.9546 -0.0826  0.0107
 7064TIP3    H142683   2.107   0.446  11.968 -0.1445 -0.7572 -0.9206
 7064TIP3    H242684   2.029   0.437  11.838  0.6295  0.2460 -1.4685
 7065TIP3   OH242685   1.774   2.666   5.592  0.1199  0.1893 -0.1548
 7065TIP3    H142686   1.736   2.644   5.677 -0.3777  2.1991  0.1607
 7065TIP3    H242687   1.700   2.691   5.538  0.7332  2.2047 -0.1310
 7066TIP3   OH242688   2.191   5.726  15.360  0.5676 -0.4009 -0.1109
 7066TIP3    H142689   2.137   5.647  15.359 -1.0304  0.6666 -0.3619
 7066TIP3    H242690   2.269   5.702  15.409 -0.9041 -1.4931  1.7419
 7067TIP3   OH242691   4.569   4.304   0.353  0.2381 -0.1594 -0.2348
 7067TIP3    H142692   4.598   4.319   0.263  0.9635  2.3210  0.3758
 7067TIP3    H242693   4.597   4.214   0.372  1.1009 -0.3162 -2.0795
 7068TIP3   OH242694   5.869   0.154  10.885 -0.0784 -0.5684 -0.4423
 7068TIP3    H142695   5.777   0.159  10.911 -0.0487 -0.2159 -0.4007
 7068TIP3    H242696   5.905   0.081  10.936 -0.6695 -1.6110 -1.4712
 7069TIP3   OH242697   1.225   1.511  15.307  1.0213 -1.0113  0.3727
 7069TIP3    H142698   1.143   1.549  15.339  0.4877 -1.8977  0.0864
 7069TIP3    H242699   1.275   1.585  15.273 -0.6225 -0.7198 -1.5066
 7070TIP3   OH242700   0.281   5.416  16.077 -0.5980 -0.4466  0.1384
 7070TIP3    H142701   0.205   5.359  16.069 -0.4171 -0.9027  1.5660
 7070TIP3    H242702   0.261   5.473  16.151  0.3491 -0.4062  0.3734
 7071TIP3   OH242703   4.190   6.805  16.019  0.7887 -0.1153  0.1173
 7071TIP3    H142704   4.177   6.771  16.107  0.7512 -0.6303 -0.0856
 7071TIP3    H242705   4.118   6.768  15.967  1.4332 -0.6991 -0.3722
 7072TIP3   OH242706   6.364   1.265   0.735  0.1772  0.2289 -0.4927
 7072TIP3    H142707   6.274   1.233   0.731 -0.2910  1.5416 -0.6296
 7072TIP3    H242708   6.418   1.186   0.738 -1.0697 -0.5610  1.7736
 7073TIP3   OH242709   2.441   3.550   3.213  0.0892  0.0465  0.7182
 7073TIP3    H142710   2.494   3.558   3.293 -0.1654 -0.8196  0.9877
 7073TIP3    H242711   2.480   3.476   3.166 -1.0869 -0.8209  1.0881
 7074TIP3   OH242712   4.102   4.900   1.175 -0.0125 -0.4365 -0.5712
 7074TIP3    H142713   4.178   4.899   1.117 -0.1911  0.0120 -0.8192
 7074TIP3    H242714   4.125   4.841   1.247 -0.3146 -2.0508 -1.7716
 7075TIP3   OH242715   6.177   2.196   0.746 -0.2505 -0.0923  0.1932
 7075TIP3    H142716   6.112   2.225   0.810 -0.2463  0.8864 -0.2399
 7075TIP3    H242717   6.261   2.218   0.785 -0.2075 -0.5454  0.3582
 7076TIP3   OH242718   0.549   4.924  13.422 -0.5454  0.2866 -0.3265
 7076TIP3    H142719   0.593   4.841  13.439 -1.7632 -0.6886 -1.8545
 7076TIP3    H242720   0.491   4.936  13.497  0.4812  0.3577  0.4772
 7077TIP3   OH242721   6.293   5.070  11.131  0.2875  0.8613  0.0192
 7077TIP3    H142722   6.330   4.995  11.178 -2.4294 -0.2518  0.4761
 7077TIP3    H242723   6.299   5.142  11.194 -0.3444  0.1438  0.9316
 7078TIP3   OH242724   2.344   6.239  14.617  0.1541 -0.2544 -0.6644
 7078TIP3    H142725   2.321   6.285  14.698  0.2408  1.8011 -1.7721
 7078TIP3    H242726   2.381   6.156  14.647 -1.1377 -0.1458  1.3564
 7079TIP3   OH242727   3.297   3.142   0.580  0.1116 -0.1900  0.3728
 7079TIP3    H142728   3.304   3.052   0.548  2.5215 -0.1977  0.8174
 7079TIP3    H242729   3.231   3.183   0.523  1.2771 -1.3752 -1.8804
 7080TIP3   OH242730   2.342   1.540  11.283  0.1146 -1.0755  0.2775
 7080TIP3    H142731   2.354   1.473  11.349 -0.5187 -0.9953  0.4799
 7080TIP3    H242732   2.331   1.491  11.201 -1.6408 -1.2855  0.6132
 7081TIP3   OH242733   4.861   0.398  14.612 -0.1936  0.0049 -0.5877
 7081TIP3    H142734   4.941   0.422  14.564  0.1611  1.7675  0.8142
 7081TIP3    H242735   4.800   0.368  14.544  0.9564  0.6095 -1.9073
 7082TIP3   OH242736   4.650   5.527  16.919 -0.1284 -0.3473  0.0840
 7082TIP3    H142737   4.670   5.618  16.941 -1.5212 -0.2094  0.8617
 7082TIP3    H242738   4.702   5.475  16.981  2.3692 -0.1614 -1.7830
 7083TIP3   OH242739   6.775   6.461   4.525  0.2667  0.1898  0.2662
 7083TIP3    H142740   6.759   6.553   4.503  1.1687  0.7121  1.6574
 7083TIP3    H242741   6.862   6.462   4.567  0.3225 -1.3063  0.1957
 7084TIP3   OH242742   0.884   4.731   2.430  0.4189  0.1588 -0.4194
 7084TIP3    H142743   0.871   4.666   2.498 -1.5906  1.0747  0.1152
 7084TIP3    H242744   0.962   4.701   2.382  0.3982 -1.8021  0.7256
 7085TIP3   OH242745   5.120   2.005  15.828 -0.2094  0.0175  0.0238
 7085TIP3    H142746   5.178   2.051  15.769  0.5470  2.8168  2.8055
 7085TIP3    H242747   5.156   1.916  15.833  3.3776  1.4588  1.0404
 7086TIP3   OH242748   2.227   4.171   4.452  0.3096 -0.4437  0.4462
 7086TIP3    H142749   2.296   4.122   4.496 -0.2868 -1.2947  0.4391
 7086TIP3    H242750   2.274   4.229   4.392  1.1226  0.6923  2.1524
 7087TIP3   OH242751   6.780   6.688   4.035  0.4356  0.6305 -0.4479
 7087TIP3    H142752   6.836   6.708   4.110 -0.1897  1.3246 -0.1603
 7087TIP3    H242753   6.693   6.720   4.061  0.1307  0.5114 -1.3089
 7088TIP3   OH242754   0.338   3.655  15.520  0.0158 -0.3851  0.0524
 7088TIP3    H142755   0.395   3.632  15.445  0.5252  0.8562  0.0554
 7088TIP3    H242756   0.394   3.705  15.578 -1.0533  0.7564  0.1176
 7089TIP3   OH242757   4.424   6.066   1.345  0.2468 -0.4905  0.2182
 7089TIP3    H142758   4.414   6.121   1.423 -2.0456 -1.6879  0.8034
 7089TIP3    H242759   4.496   6.006   1.367  0.7198  0.2634  0.7513
 7090TIP3   OH242760   2.757   3.954  12.667  0.6808 -0.0733  0.0627
 7090TIP3    H142761   2.813   3.905  12.606 -0.5143 -1.2166 -0.1243
 7090TIP3    H242762   2.793   4.042  12.665  2.8409 -0.9078  0.3591
 7091TIP3   OH242763   2.078   4.391   5.111  0.1292  0.1808  0.1011
 7091TIP3    H142764   2.167   4.427   5.106 -0.2730  1.1335 -0.4562
 7091TIP3    H242765   2.033   4.449   5.172  0.6659 -2.0307  2.6712
 7092TIP3   OH242766   0.777   3.507   5.451  0.0396  0.0981  0.1773
 7092TIP3    H142767   0.768   3.552   5.535 -0.9978 -0.1886  0.2251
 7092TIP3    H242768   0.860   3.538   5.416  0.3838  0.3783  1.2169
 7093TIP3   OH242769   2.255   6.088   1.438  0.3680  0.6265  0.9733
 7093TIP3    H142770   2.290   6.170   1.473 -0.4355  1.7439 -0.7248
 7093TIP3    H242771   2.187   6.062   1.500  0.3480  1.4733  1.3140
 7094TIP3   OH242772   1.566   4.130   0.723  0.5850  0.5073  0.4753
 7094TIP3    H142773   1.509   4.178   0.664 -0.9178 -0.5758  1.0332
 7094TIP3    H242774   1.585   4.049   0.677 -1.5464 -0.8595  1.9389
 7095TIP3   OH242775   0.065   2.081   0.126  0.2128  0.1326 -0.1124
 7095TIP3    H142776   0.137   2.131   0.163 -0.1836  0.8846 -0.3639
 7095TIP3    H242777  -0.014   2.119   0.165  0.0133 -1.5838  1.2598
 7096TIP3   OH242778   4.996   1.868  14.511  0.0772  0.4781 -0.1444
 7096TIP3    H142779   4.905   1.892  14.531 -0.0957 -0.9156  0.7877
 7096TIP3    H242780   5.002   1.873  14.416 -1.5950 -1.5397 -0.3914
 7097TIP3   OH242781   3.564   2.467  12.476  0.5405 -0.7808  0.0238
 7097TIP3    H142782   3.636   2.525  12.453  0.7277  0.1993  2.8849
 7097TIP3    H242783   3.606   2.390  12.514  0.1184 -0.8576  0.3383
 7098TIP3   OH242784   0.356   0.287  16.548 -0.0911 -0.2513 -0.1161
 7098TIP3    H142785   0.414   0.219  16.582  1.6548  1.4188  0.3274
 7098TIP3    H242786   0.294   0.240  16.492  2.2019 -1.9721 -1.2750
 7099TIP3   OH242787   6.213   1.849   2.977  0.5856  0.2016  0.0271
 7099TIP3    H142788   6.281   1.912   2.953  0.8868 -0.2076 -0.1911
 7099TIP3    H242789   6.142   1.866   2.914  0.0496  1.3529  0.9348
 7100TIP3   OH242790   1.090   1.994  16.488 -0.4908 -0.1024 -0.3497
 7100TIP3    H142791   1.015   1.976  16.545 -1.4009  2.7566 -0.5642
 7100TIP3    H242792   1.073   1.943  16.409 -0.3848 -2.2697  1.0007
 7101TIP3   OH242793   4.741   6.274   5.472  0.2467 -0.0828  0.6025
 7101TIP3    H142794   4.652   6.283   5.438  0.1679  1.9683  1.2684
 7101TIP3    H242795   4.797   6.307   5.402  0.2734  1.4218  1.3182
 7102TIP3   OH242796   6.296   5.811   4.178  0.1467  0.2336  0.2502
 7102TIP3    H142797   6.335   5.807   4.266  0.0577 -2.1377  0.2193
 7102TIP3    H242798   6.371   5.807   4.119  0.1062 -0.1791  0.2224
 7103TIP3   OH242799   3.639   4.460   6.199 -0.4820 -0.6395 -0.3985
 7103TIP3    H142800   3.596   4.505   6.126  0.7264  0.5708 -0.3839
 7103TIP3    H242801   3.631   4.367   6.179 -2.0293 -0.3916 -0.9970
 7104TIP3   OH242802   6.179   4.709  15.545  0.0949 -0.1794 -0.5968
 7104TIP3    H142803   6.133   4.678  15.623 -1.2241  1.3574 -0.7188
 7104TIP3    H242804   6.258   4.752  15.578  1.4328 -2.7662 -0.3755
 7105TIP3   OH242805   5.697   4.614  15.214 -0.4642 -0.4073  0.0096
 7105TIP3    H142806   5.682   4.707  15.231 -1.3690 -0.5643  0.0426
 7105TIP3    H242807   5.625   4.587  15.159  0.5287 -0.7738 -1.1361
 7106TIP3   OH242808   3.846   1.090  12.493  0.3355 -0.3599  0.1716
 7106TIP3    H142809   3.873   1.025  12.558 -2.4337 -0.1024  1.6823
 7106TIP3    H242810   3.816   1.164  12.545  1.8414  1.4849 -1.5184
 7107TIP3   OH242811   1.036   6.185   2.155  0.4497 -0.3113 -0.5787
 7107TIP3    H142812   1.020   6.277   2.134  0.1812 -0.4238 -0.8670
 7107TIP3    H242813   1.131   6.174   2.144  0.4544 -0.1199 -0.7312
 7108TIP3   OH242814   1.205   0.781   6.223  0.0930 -0.7473  0.1514
 7108TIP3    H142815   1.134   0.723   6.250  1.4876 -2.1253  0.9270
 7108TIP3    H242816   1.183   0.805   6.133 -1.0488 -1.6228  0.1834
 7109TIP3   OH242817   6.246   0.181   1.551 -0.0694  0.0226 -0.1841
 7109TIP3    H142818   6.280   0.239   1.619 -0.7607  1.2562 -0.8868
 7109TIP3    H242819   6.275   0.220   1.469 -1.2481 -0.1520 -0.6958
 7110TIP3   OH242820   2.089   2.904  14.528 -0.2529 -0.3309  0.3657
 7110TIP3    H142821   2.103   2.812  14.505 -0.2010 -0.4627  0.9353
 7110TIP3    H242822   2.097   2.907  14.623  0.5459  0.4018  0.2787
 7111TIP3   OH242823   2.510   3.986  11.183  0.1494 -0.2878  0.3389
 7111TIP3    H142824   2.440   4.051  11.175 -0.5166 -0.8438  1.5689
 7111TIP3    H242825   2.480   3.912  11.130  0.5352  0.0855 -0.4059
 7112TIP3   OH242826   2.005   3.980   2.513  0.4462  0.2706  0.3354
 7112TIP3    H142827   2.045   3.899   2.481  0.4941  0.7840 -0.9251
 7112TIP3    H242828   2.030   4.046   2.449 -1.7953  0.7585 -0.0804
 7113TIP3   OH242829   2.295   2.671  14.774 -0.6970  0.1817 -0.2700
 7113TIP3    H142830   2.278   2.748  14.828 -0.4848  1.3811 -1.8623
 7113TIP3    H242831   2.344   2.704  14.699  2.8273 -2.1436  0.8883
 7114TIP3   OH242832   6.393   2.985   5.431 -0.5061  0.4961 -0.3207
 7114TIP3    H142833   6.434   2.901   5.411 -0.7199  0.3788 -0.2683
 7114TIP3    H242834   6.375   3.024   5.345 -0.9616  0.2187 -0.3515
 7115TIP3   OH242835   3.127   0.205  17.057  0.2289  0.4408 -0.2065
 7115TIP3    H142836   3.198   0.170  17.111  0.0677 -1.0539 -0.9471
 7115TIP3    H242837   3.157   0.193  16.967 -0.8541  0.0247 -0.5207
 7116TIP3   OH242838   5.893   5.757   0.725 -0.3377  0.3229  0.0174
 7116TIP3    H142839   5.949   5.834   0.717  1.1401 -0.6996  0.3760
 7116TIP3    H242840   5.831   5.765   0.652  2.6342 -0.4513 -2.7278
 7117TIP3   OH242841   0.277   4.987   4.801  0.0083  0.4964 -0.1700
 7117TIP3    H142842   0.351   4.943   4.844 -0.1871 -0.1377 -0.4736
 7117TIP3    H242843   0.203   4.971   4.860  0.2083  1.5246  0.3630
 7118TIP3   OH242844   5.749   6.064  11.322  0.5853 -0.0610 -0.0277
 7118TIP3    H142845   5.735   6.156  11.345 -0.0455 -0.2202  0.2300
 7118TIP3    H242846   5.725   6.016  11.401  1.0523 -0.4448 -0.1144
 7119TIP3   OH242847   5.548   0.600  11.049  0.5070 -0.5341 -0.2014
 7119TIP3    H142848   5.518   0.527  10.994  0.0341  0.3593 -1.1538
 7119TIP3    H242849   5.558   0.673  10.988  0.8933  0.2203  0.7572
 7120TIP3   OH242850   4.453   1.641   1.256  0.3037 -0.2332 -0.5030
 7120TIP3    H142851   4.419   1.729   1.267  2.3090  0.4476  0.5409
 7120TIP3    H242852   4.529   1.651   1.198  0.0342 -1.4059 -1.0953
 7121TIP3   OH242853   3.257   1.675  14.728  0.1512 -0.2994 -0.2076
 7121TIP3    H142854   3.242   1.638  14.815 -1.2570  1.4988  0.3476
 7121TIP3    H242855   3.193   1.631  14.671 -1.6763  1.3398  0.4960
 7122TIP3   OH242856   2.305   0.907   6.040 -0.1783 -0.1450  0.3653
 7122TIP3    H142857   2.336   0.927   6.128  0.2870  0.0783  0.1553
 7122TIP3    H242858   2.382   0.872   5.995 -0.9825 -2.5035  0.7411
 7123TIP3   OH242859   0.470   5.199   5.548 -0.5745  0.1556  0.0004
 7123TIP3    H142860   0.386   5.245   5.542 -0.2471  0.9138  1.1680
 7123TIP3    H242861   0.499   5.213   5.638  1.7117  1.4576 -0.9157
 7124TIP3   OH242862   5.226   1.333  12.863  0.1730 -0.1580  0.1956
 7124TIP3    H142863   5.304   1.363  12.817  1.5745 -1.4618  1.6487
 7124TIP3    H242864   5.256   1.259  12.916 -2.2109 -1.1635  0.2100
 7125TIP3   OH242865   4.252   2.861   5.138  0.0566  0.1824 -0.2108
 7125TIP3    H142866   4.269   2.778   5.182  1.3078  0.8681  0.6429
 7125TIP3    H242867   4.268   2.927   5.206 -1.4446  1.0931 -0.7232
 7126TIP3   OH242868   1.281   5.150  15.094  0.3370 -0.2938  0.3898
 7126TIP3    H142869   1.370   5.181  15.110  0.6105 -0.1414 -1.3086
 7126TIP3    H242870   1.231   5.229  15.073 -0.1719 -0.3945  1.2078
 7127TIP3   OH242871   6.671   2.821  10.627 -0.2527  0.4717  0.1924
 7127TIP3    H142872   6.739   2.868  10.579  0.0824 -0.9623 -0.7652
 7127TIP3    H242873   6.592   2.872  10.613 -0.7656 -1.2886 -4.1986
 7128TIP3   OH242874   6.530   3.397  14.691  0.2098 -0.3519  0.4255
 7128TIP3    H142875   6.548   3.394  14.785  0.8746  0.6518  0.3406
 7128TIP3    H242876   6.595   3.339  14.652 -0.4125 -1.1918  0.6311
 7129TIP3   OH242877   1.494   6.503  13.974  0.3020 -0.4942 -0.3202
 7129TIP3    H142878   1.583   6.484  13.943 -0.1319 -0.4778 -1.6374
 7129TIP3    H242879   1.471   6.585  13.930 -0.6548 -0.9206 -0.6287
 7130TIP3   OH242880   2.760   5.953  15.447 -0.5924  0.5711 -0.5502
 7130TIP3    H142881   2.749   6.047  15.429 -2.1918  1.1436  3.0512
 7130TIP3    H242882   2.824   5.949  15.517  0.5898 -1.1725 -1.6841
 7131TIP3   OH242883   0.996   6.251   2.796  0.0171 -0.5056  0.6806
 7131TIP3    H142884   0.907   6.262   2.764  0.1495 -0.1757  0.4157
 7131TIP3    H242885   1.014   6.332   2.845  0.6911  0.0846 -0.5189
 7132TIP3   OH242886   6.538   5.939   3.717 -0.0205  0.1571  0.4248
 7132TIP3    H142887   6.509   5.918   3.628 -0.5156  0.9707  0.3908
 7132TIP3    H242888   6.458   5.966   3.762 -0.1508 -2.2740  1.7329
 7133TIP3   OH242889   4.579   2.473   4.199  0.2781 -0.1791 -0.3406
 7133TIP3    H142890   4.606   2.384   4.220  0.0674 -0.2034 -0.1615
 7133TIP3    H242891   4.627   2.528   4.261 -1.4607 -0.3687  1.2269
 7134TIP3   OH242892   4.666   5.554   0.281 -0.0372  0.6811 -0.2738
 7134TIP3    H142893   4.680   5.648   0.271  0.5696  0.3972 -2.5017
 7134TIP3    H242894   4.680   5.537   0.374  2.1167  2.4235 -0.2327
 7135TIP3   OH242895   4.009   4.985   0.511  0.8514  0.3910  0.0580
 7135TIP3    H142896   3.955   4.942   0.444 -0.1068 -0.2104  1.1895
 7135TIP3    H242897   4.098   4.957   0.492  0.1160 -3.0313  1.4375
 7136TIP3   OH242898   6.189   4.322  12.781  0.2919  0.7953  0.6685
 7136TIP3    H142899   6.262   4.275  12.822 -2.0012 -0.3261  3.6888
 7136TIP3    H242900   6.130   4.252  12.751 -0.2124  1.6958 -0.4779
 7137TIP3   OH242901   2.081   6.234   2.622 -0.4339  0.1286  0.0722
 7137TIP3    H142902   2.071   6.320   2.664  1.5721  0.2708  0.3048
 7137TIP3    H242903   2.116   6.178   2.691  2.8241  0.3437 -1.3463
 7138TIP3   OH242904   6.444   5.639   4.903  0.4010 -0.6558  0.7240
 7138TIP3    H142905   6.505   5.567   4.922 -0.7098 -1.2189  2.2717
 7138TIP3    H242906   6.459   5.702   4.973  0.5407  0.1028  0.0233
 7139TIP3   OH242907   2.411   6.311   2.634  0.2240  0.1080  0.0743
 7139TIP3    H142908   2.383   6.371   2.703 -1.5120 -0.5046 -0.0721
 7139TIP3    H242909   2.456   6.241   2.680  1.0433  0.8137  0.3692
 7140TIP3   OH242910   2.490   3.004  14.761 -0.2832  0.2623  0.5824
 7140TIP3    H142911   2.493   2.934  14.826 -2.0630  0.0688  0.4717
 7140TIP3    H242912   2.471   2.960  14.678 -3.9880  1.0947  0.9244
 7141TIP3   OH242913   1.246   4.924  14.911  0.3066 -0.0328  0.0079
 7141TIP3    H142914   1.227   4.983  14.984 -0.0706 -0.1976  0.0469
 7141TIP3    H242915   1.239   4.979  14.833 -0.7124 -0.1632 -0.0071
 7142TIP3   OH242916   2.215   6.092   1.802 -0.3781  0.4453  0.1225
 7142TIP3    H142917   2.210   6.076   1.896  1.1758  0.9322  0.2981
 7142TIP3    H242918   2.184   6.182   1.792 -0.2290  0.5051  0.2009
 7143TIP3   OH242919   1.494   2.523  11.609 -0.1793 -0.2151  0.3964
 7143TIP3    H142920   1.503   2.446  11.665  1.2698 -0.5413 -0.2565
 7143TIP3    H242921   1.412   2.509  11.561  0.3231 -1.5999 -0.0897
 7144TIP3   OH242922   3.463   3.869   5.631 -0.2527  0.3680  0.4532
 7144TIP3    H142923   3.553   3.841   5.612 -0.5149 -0.0584 -0.1565
 7144TIP3    H242924   3.473   3.953   5.676  0.4555  0.2836  0.4593
 7145TIP3   OH242925   5.520   2.200  15.462  0.0953 -0.6802  0.3770
 7145TIP3    H142926   5.582   2.230  15.529  0.1311 -2.0832  0.9882
 7145TIP3    H242927   5.557   2.118  15.430 -1.7588 -1.9066  1.2366
 7146TIP3   OH242928   4.220   4.716  12.580  0.2026 -0.0177  0.2177
 7146TIP3    H142929   4.132   4.678  12.570  0.1067  0.4168 -0.6250
 7146TIP3    H242930   4.215   4.767  12.660 -0.0541 -0.7074  0.6502
 7147TIP3   OH242931   2.861   4.969  12.263  0.1052 -0.2946  0.2092
 7147TIP3    H142932   2.808   5.047  12.244 -0.1030 -0.1307  1.4525
 7147TIP3    H242933   2.931   5.001  12.320 -0.9189 -1.3072  2.0708
 7148TIP3   OH242934   3.780   4.778   0.581 -0.1326  0.0529 -0.0338
 7148TIP3    H142935   3.815   4.806   0.497 -0.0223 -0.3506 -0.1257
 7148TIP3    H242936   3.797   4.684   0.584 -0.2880  0.0337  0.3660
 7149TIP3   OH242937   1.114   3.024  13.553 -0.3599 -0.3744  0.0758
 7149TIP3    H142938   1.161   2.991  13.629 -1.5664 -1.8932  0.1931
 7149TIP3    H242939   1.086   3.112  13.577  1.4682  0.1203  0.4077
 7150TIP3   OH242940   5.545   0.727   2.575 -0.3309 -0.8001  0.0949
 7150TIP3    H142941   5.465   0.683   2.546 -0.2661 -1.5820  1.0895
 7150TIP3    H242942   5.521   0.768   2.658 -0.1305  0.2955 -0.3722
 7151TIP3   OH242943   0.994   6.531  16.838 -0.6553  0.2593 -0.1672
 7151TIP3    H142944   1.065   6.594  16.849 -0.2323 -0.4909  1.4323
 7151TIP3    H242945   0.921   6.568  16.888  0.0605 -1.2221  2.0653
 7152TIP3   OH242946   3.452   4.232  11.637 -0.2261  0.2536  0.3153
 7152TIP3    H142947   3.403   4.244  11.556 -0.9756 -1.0416  0.5491
 7152TIP3    H242948   3.544   4.235  11.611 -0.4252  2.6281 -0.1385
 7153TIP3   OH242949   0.616   2.004   1.857  0.3821 -0.2340 -0.3210
 7153TIP3    H142950   0.700   1.958   1.852  1.3805  1.3850  0.8601
 7153TIP3    H242951   0.551   1.935   1.863  1.7657 -1.4961  0.4426
 7154TIP3   OH242952   3.070   1.347   5.800  0.0228  0.4224 -0.2273
 7154TIP3    H142953   3.127   1.423   5.817 -0.0741  0.2576  0.8656
 7154TIP3    H242954   3.070   1.299   5.882 -1.0436 -0.0265 -0.4876
 7155TIP3   OH242955   5.286   0.122  12.234 -0.5520  0.0351 -0.2924
 7155TIP3    H142956   5.283   0.027  12.229  0.4544  0.0190 -0.8496
 7155TIP3    H242957   5.295   0.141  12.327 -0.6996 -0.4195 -0.1843
 7156TIP3   OH242958   1.687   5.703  11.279  0.3836  0.0658 -0.6165
 7156TIP3    H142959   1.623   5.632  11.281  2.2095 -1.5818  0.1815
 7156TIP3    H242960   1.681   5.738  11.190 -1.7978  0.1210 -0.4770
 7157TIP3   OH242961   2.751   0.606  13.150 -0.0388 -0.3833 -0.7213
 7157TIP3    H142962   2.838   0.592  13.112  0.0787  1.2516 -1.0885
 7157TIP3    H242963   2.719   0.518  13.169  1.8566 -0.9852 -0.2114
 7158TIP3   OH242964   3.507   1.591  17.007  0.1661  0.0020 -0.0869
 7158TIP3    H142965   3.518   1.633  17.092  1.4676  0.1036 -0.3068
 7158TIP3    H242966   3.459   1.655  16.954  0.2417  0.3306  0.2466
 7159TIP3   OH242967   1.610   2.589   0.856 -0.2602 -0.1413 -0.2382
 7159TIP3    H142968   1.677   2.522   0.843 -1.0017 -0.5774 -1.8625
 7159TIP3    H242969   1.650   2.670   0.826 -0.1215 -0.2235 -0.2729
 7160TIP3   OH242970   1.915   1.494  13.804  0.6792 -0.2442 -0.0652
 7160TIP3    H142971   1.869   1.546  13.738  0.2573 -1.8760 -1.0833
 7160TIP3    H242972   1.849   1.433  13.837  1.2090 -0.2529  1.0021
 7161TIP3   OH242973   6.458   5.065   0.321  0.0354 -0.1183  0.1058
 7161TIP3    H142974   6.546   5.055   0.357 -0.4785 -0.8130  1.1550
 7161TIP3    H242975   6.451   4.995   0.255  0.1641 -0.2258  0.2063
 7162TIP3   OH242976   2.418   6.038   5.518  0.1454  0.2421  0.3251
 7162TIP3    H142977   2.410   5.963   5.460 -0.0456  0.8053 -0.3900
 7162TIP3    H242978   2.428   6.001   5.605 -2.3302 -0.5935  0.2806
 7163TIP3   OH242979   0.627   0.137  15.641  0.6686 -0.3533 -0.3995
 7163TIP3    H142980   0.587   0.193  15.575  1.6055 -0.1138 -0.7634
 7163TIP3    H242981   0.645   0.054  15.596  1.8315  0.0046 -0.6059
 7164TIP3   OH242982   0.325   0.396   4.771  0.1477 -0.0614 -0.1858
 7164TIP3    H142983   0.417   0.411   4.792  0.6969 -0.2639 -2.3546
 7164TIP3    H242984   0.321   0.305   4.742 -0.8942 -0.3060  0.6794
 7165TIP3   OH242985   1.951   2.288   6.265 -0.0263  0.4469 -0.2594
 7165TIP3    H142986   2.010   2.340   6.319  1.5983 -0.5643 -1.0468
 7165TIP3    H242987   2.005   2.216   6.232 -0.9512  1.0809 -3.3175
 7166TIP3   OH242988   6.325   5.483  12.029  0.2419 -0.2808 -0.6984
 7166TIP3    H142989   6.337   5.396  12.065 -1.2076  0.5564  1.9281
 7166TIP3    H242990   6.253   5.474  11.967 -0.7762 -0.7219  0.5241
 7167TIP3   OH242991   5.171   4.984  16.973  0.0740 -0.0823  0.0191
 7167TIP3    H142992   5.186   5.062  17.026 -0.7763  0.4618 -0.5283
 7167TIP3    H242993   5.226   4.997  16.896  0.5965 -0.4326  0.3323
 7168TIP3   OH242994   5.596   0.431  16.188  0.0005  0.2319  0.1214
 7168TIP3    H142995   5.665   0.420  16.253 -1.1732  0.5180  1.4412
 7168TIP3    H242996   5.619   0.370  16.117 -0.0980 -1.9755  1.9559
 7169TIP3   OH242997   4.290   6.782   0.869 -0.2281  0.1412  0.3831
 7169TIP3    H142998   4.198   6.775   0.842 -0.0425 -1.2627  0.0578
 7169TIP3    H242999   4.327   6.846   0.809 -0.4757 -0.9272 -0.9258
 7170TIP3   OH243000   3.917   5.014   5.573 -0.6709  0.5745  1.0049
 7170TIP3    H143001   3.891   4.925   5.596  0.7768 -0.3223 -0.6831
 7170TIP3    H243002   3.842   5.050   5.525 -0.7470 -0.1816  0.5653
 7171TIP3   OH243003   6.564   0.713  16.434  0.1289  0.4080 -0.2506
 7171TIP3    H143004   6.517   0.643  16.478  2.5945 -0.3497  1.3376
 7171TIP3    H243005   6.513   0.792  16.452 -1.9425 -0.7690 -0.9102
 7172TIP3   OH243006   5.914   0.892  11.879 -0.1383 -0.0138  0.4931
 7172TIP3    H143007   5.983   0.914  11.817 -0.2417  0.6661  0.6046
 7172TIP3    H243008   5.949   0.820  11.931  0.0366 -0.4325 -0.2092
 7173TIP3   OH243009   4.198   2.240   3.470  0.3799 -0.2058  0.2577
 7173TIP3    H143010   4.138   2.212   3.401  0.6869  1.6470 -0.7938
 7173TIP3    H243011   4.171   2.330   3.491  1.4037 -0.1231  1.2962
 7174TIP3   OH243012   3.430   2.821   0.917 -0.2197  0.5094  0.3130
 7174TIP3    H143013   3.515   2.859   0.939 -0.0035 -0.9260  2.1635
 7174TIP3    H243014   3.376   2.895   0.892  1.9163  1.3200 -2.1012
 7175TIP3   OH243015   2.153   3.345   0.773 -0.8954 -0.1376  0.2092
 7175TIP3    H143016   2.146   3.438   0.796 -0.9591 -0.2295  0.5656
 7175TIP3    H243017   2.063   3.313   0.777 -0.9647 -0.0559 -0.5998
 7176TIP3   OH243018   2.604   3.762  16.556  0.0353 -0.4986 -0.3045
 7176TIP3    H143019   2.552   3.810  16.620  0.4238  1.0622 -1.1233
 7176TIP3    H243020   2.641   3.688  16.605 -1.2735 -0.4648  0.7671
 7177TIP3   OH243021   0.388   2.463   1.132 -0.0604  0.6786  0.2122
 7177TIP3    H143022   0.376   2.555   1.153 -0.1548  0.3572  1.5648
 7177TIP3    H243023   0.440   2.427   1.204 -0.2194 -0.3895 -0.1803
 7178TIP3   OH243024   1.895   6.540  15.387  0.3340 -0.5418  0.4831
 7178TIP3    H143025   1.822   6.488  15.354 -1.0291  1.0610  0.9054
 7178TIP3    H243026   1.940   6.482  15.449 -1.3495 -1.1105  1.2010
 7179TIP3   OH243027   4.868   6.085  12.110 -0.0980  0.3114 -0.2680
 7179TIP3    H143028   4.944   6.062  12.056  0.7668  0.8195  0.7102
 7179TIP3    H243029   4.824   6.001  12.127  1.2126 -0.2261  0.5682
 7180TIP3   OH243030   2.224   0.987   4.038 -0.1404  0.3943  0.0369
 7180TIP3    H143031   2.254   0.998   4.128  1.9124 -0.6815 -0.4884
 7180TIP3    H243032   2.136   0.950   4.047  0.9000 -1.8235  1.6211
 7181TIP3   OH243033   1.965   0.444  12.588  0.0507 -0.1811  0.0282
 7181TIP3    H143034   2.056   0.468  12.604 -0.1916  0.1886  0.8640
 7181TIP3    H243035   1.940   0.496  12.511  1.1278 -1.7627 -1.4047
 7182TIP3   OH243036   2.159   1.264   1.205  0.2427 -0.3740 -0.0225
 7182TIP3    H143037   2.254   1.253   1.204  0.5813  2.1659 -0.4664
 7182TIP3    H243038   2.146   1.349   1.248 -1.8248 -0.7121  0.0520
 7183TIP3   OH243039   0.841   0.758  15.823 -0.0199 -0.6132  0.1829
 7183TIP3    H143040   0.776   0.698  15.787 -0.5146  0.2709 -0.4297
 7183TIP3    H243041   0.809   0.780  15.910 -0.3386 -0.4879  0.0327
 7184TIP3   OH243042   0.857   0.520   2.570  0.0018 -0.1857  0.4867
 7184TIP3    H143043   0.817   0.508   2.484  2.1265  2.2576 -0.9292
 7184TIP3    H243044   0.795   0.574   2.618  1.0634  2.9164 -1.4217
 7185TIP3   OH243045   4.724   3.401  12.483 -0.0689  0.0498 -0.3739
 7185TIP3    H143046   4.753   3.415  12.574  0.0189 -0.0281 -0.3895
 7185TIP3    H243047   4.675   3.318  12.487  0.4448 -0.2625 -0.5101
 7186TIP3   OH243048   5.211   3.865   1.105  0.0980 -0.6656  0.6811
 7186TIP3    H143049   5.183   3.824   1.024 -0.0958 -0.0854  0.4536
 7186TIP3    H243050   5.303   3.839   1.114 -0.2069 -1.6976  0.8909
 7187TIP3   OH243051   3.544   3.156  16.983  0.3855 -0.1683  0.0310
 7187TIP3    H143052   3.599   3.204  17.045 -1.2345  0.9741  0.6226
 7187TIP3    H243053   3.454   3.180  17.006 -0.2845 -0.0277 -2.4960
 7188TIP3   OH243054   0.138   4.633   1.683  0.2916 -0.5518  0.4434
 7188TIP3    H143055   0.156   4.719   1.645  0.0789 -0.0606  1.4333
 7188TIP3    H243056   0.221   4.586   1.675 -0.7941 -1.9306 -4.2746
 7189TIP3   OH243057   4.904   2.546  15.499  0.3138  0.6613 -0.2046
 7189TIP3    H143058   4.922   2.460  15.538  1.3197  0.7827 -0.3894
 7189TIP3    H243059   4.890   2.604  15.574 -2.5713 -0.1004 -0.0934
 7190TIP3   OH243060   3.560   4.118   4.854 -0.4844 -0.3756 -0.6339
 7190TIP3    H143061   3.498   4.171   4.905 -1.4499 -0.1641 -1.9824
 7190TIP3    H243062   3.541   4.028   4.879  0.3684 -0.1620  0.8083
 7191TIP3   OH243063   1.439   3.005   2.148 -0.7924 -0.3523  0.2668
 7191TIP3    H143064   1.519   2.964   2.115 -0.1434 -0.2332  1.6398
 7191TIP3    H243065   1.372   2.985   2.083  0.1441 -1.2807 -0.4103
 7192TIP3   OH243066   2.805   6.732  16.696  0.2883 -0.0669 -0.1160
 7192TIP3    H143067   2.837   6.662  16.639 -1.2383  1.2838 -2.7399
 7192TIP3    H243068   2.739   6.689  16.751  0.7116 -1.1029 -0.3933
 7193TIP3   OH243069   4.513   0.978  13.767  0.2040  0.4755  0.1111
 7193TIP3    H143070   4.524   0.892  13.808  0.4116 -0.6758 -2.3055
 7193TIP3    H243071   4.470   1.031  13.834 -4.9114 -3.0338 -0.1510
 7194TIP3   OH243072   4.923   3.656  15.433 -0.5480  0.1906  0.3156
 7194TIP3    H143073   4.845   3.687  15.388 -0.4057  0.2390  0.1009
 7194TIP3    H243074   4.893   3.582  15.486 -1.2154  1.7111  2.1090
 7195TIP3   OH243075   0.393   0.030  12.657  0.1173  0.0287  0.3301
 7195TIP3    H143076   0.382   0.115  12.615 -0.8925  0.4165  1.3740
 7195TIP3    H243077   0.397  -0.033  12.584  0.4422  0.9084 -0.4177
 7196TIP3   OH243078   5.238   0.718  15.994 -0.1680 -0.2437  0.0658
 7196TIP3    H143079   5.265   0.648  16.053 -1.2578  0.0928  0.9795
 7196TIP3    H243080   5.306   0.721  15.927  0.6006 -1.2433  0.7971
 7197TIP3   OH243081   5.212   1.616  12.403 -0.1487  1.0213 -0.0206
 7197TIP3    H143082   5.279   1.678  12.377 -0.1874  1.3795  0.7093
 7197TIP3    H243083   5.144   1.625  12.336  1.1020 -0.2975 -1.4842
 7198TIP3   OH243084   6.000   4.693   2.121 -0.5583  0.0135 -0.6972
 7198TIP3    H143085   5.905   4.689   2.118 -0.6059  0.6458 -0.0237
 7198TIP3    H243086   6.027   4.692   2.029 -1.1103 -2.3348 -0.8658
 7199TIP3   OH243087   0.973   1.973   2.881 -0.0877  0.3462  0.0427
 7199TIP3    H143088   0.891   1.925   2.871  0.0592  0.5026 -2.1553
 7199TIP3    H243089   0.954   2.060   2.844  0.5537  0.9717  1.1525
 7200TIP3   OH243090   3.955   1.294  13.609  0.5499 -0.1779 -0.1503
 7200TIP3    H143091   3.873   1.301  13.561  0.6134 -0.7925 -0.3579
 7200TIP3    H243092   3.938   1.336  13.693  0.5762  1.3233 -0.8869
 7201TIP3   OH243093   6.661   6.195  12.542 -0.5222  0.1638  0.0176
 7201TIP3    H143094   6.567   6.211  12.547 -0.7434 -1.3638  1.0484
 7201TIP3    H243095   6.669   6.101  12.523  0.7984  0.0922  0.8428
 7202TIP3   OH243096   4.292   2.142   5.856 -1.1519 -0.0593  0.0282
 7202TIP3    H143097   4.223   2.204   5.879 -0.2120  0.5059  1.3197
 7202TIP3    H243098   4.341   2.128   5.937  0.2760 -0.4469 -0.8839
 7203TIP3   OH243099   0.363   4.760  13.739 -0.9710 -0.9729  0.1198
 7203TIP3    H143100   0.310   4.718  13.671 -1.9166  2.1890 -1.1822
 7203TIP3    H243101   0.385   4.845  13.703  0.8710 -0.3036  2.6986
 7204TIP3   OH243102   3.122   4.452  13.864  0.0914  0.2927 -0.7503
 7204TIP3    H143103   3.176   4.375  13.847 -1.4490 -0.6968 -1.2954
 7204TIP3    H243104   3.048   4.419  13.916 -1.7467  0.9539 -2.8482
 7205TIP3   OH243105   6.538   5.900  15.978 -0.0013  0.5905 -0.4857
 7205TIP3    H143106   6.579   5.983  15.954  2.0955 -0.2271  0.0845
 7205TIP3    H243107   6.575   5.836  15.918  0.3175 -0.3377  0.6643
 7206TIP3   OH243108   4.510   3.502   2.866  0.2550  0.0070 -0.4939
 7206TIP3    H143109   4.428   3.519   2.820 -0.2426  0.4807  0.5642
 7206TIP3    H243110   4.572   3.481   2.796 -0.1180  2.1863 -1.5083
 7207TIP3   OH243111   6.600   5.011  12.840  0.7296 -0.6541 -0.3260
 7207TIP3    H143112   6.558   5.097  12.847  0.5407 -0.6688 -1.1303
 7207TIP3    H243113   6.682   5.020  12.888  0.2910 -0.2992  0.3704
 7208TIP3   OH243114   4.058   6.116   3.388  0.4566  0.3164 -0.5526
 7208TIP3    H143115   4.122   6.115   3.317  0.8263  1.6954 -0.2365
 7208TIP3    H243116   4.059   6.205   3.421 -1.5564  0.3507 -0.4834
 7209TIP3   OH243117   2.319   6.430  13.158  0.0013 -0.0318 -0.1153
 7209TIP3    H143118   2.303   6.418  13.064  0.1144 -1.5039  0.0409
 7209TIP3    H243119   2.402   6.477  13.163  0.0423 -0.0396 -0.7543
 7210TIP3   OH243120   3.440   1.449  12.883 -0.1368 -0.6635 -0.1994
 7210TIP3    H143121   3.473   1.539  12.882  0.9326 -1.0425 -0.3586
 7210TIP3    H243122   3.432   1.426  12.791  2.2300 -1.6453 -0.1968
 7211TIP3   OH243123   4.122   0.613   2.123  0.5106  0.4557 -0.4324
 7211TIP3    H143124   4.085   0.531   2.089 -0.3207  0.5551  0.1978
 7211TIP3    H243125   4.153   0.659   2.045 -0.8825  0.4465 -1.0224
 7212TIP3   OH243126   3.212   5.618  14.524  0.3885 -0.3896 -0.2485
 7212TIP3    H143127   3.256   5.687  14.573  0.1066 -1.5003  1.6190
 7212TIP3    H243128   3.278   5.584  14.463  2.1227 -1.9345  2.4007
 7213TIP3   OH243129   3.392   4.343   1.215  0.5807 -0.7843  0.2893
 7213TIP3    H143130   3.408   4.364   1.122  0.4562 -1.6929  0.0628
 7213TIP3    H243131   3.384   4.429   1.257 -0.1218 -0.3566 -0.6743
 7214TIP3   OH243132   3.332   6.047  14.838 -0.3422  0.4546 -0.3323
 7214TIP3    H143133   3.251   6.049  14.890 -1.0704  1.5476 -1.4904
 7214TIP3    H243134   3.323   6.120  14.776  1.6126  0.7066 -0.3609
 7215TIP3   OH243135   1.765   6.638  13.513  0.2383 -0.6062 -0.3724
 7215TIP3    H143136   1.843   6.623  13.567 -1.2868  0.3346  2.1920
 7215TIP3    H243137   1.692   6.609  13.568 -1.3279 -0.3757 -2.2718
 7216TIP3   OH243138   1.492   5.376  17.064 -0.1174  0.3409  0.0180
 7216TIP3    H143139   1.503   5.281  17.068 -0.3012  0.3023 -0.4315
 7216TIP3    H243140   1.397   5.389  17.069 -0.0490  0.5407  0.9247
 7217TIP3   OH243141   0.815   1.650   5.950 -0.1399  0.3229 -0.0307
 7217TIP3    H143142   0.746   1.632   6.014 -1.1180  1.0689 -0.8488
 7217TIP3    H243143   0.888   1.593   5.976 -0.0260  1.5831  2.5132
 7218TIP3   OH243144   6.054   2.155   2.207  0.0290 -0.1093  0.7919
 7218TIP3    H143145   6.138   2.138   2.164  0.1330  0.7380  0.6583
 7218TIP3    H243146   5.991   2.159   2.135 -0.2852 -1.6283  0.9569
 7219TIP3   OH243147   1.032   2.171  12.444  0.2023 -0.0767 -0.3999
 7219TIP3    H143148   0.974   2.189  12.370 -1.4383 -0.1083  0.8476
 7219TIP3    H243149   1.092   2.245  12.446 -1.2600  1.1265 -0.3178
 7220TIP3   OH243150   6.320   4.765  14.861 -0.0736  0.1413  0.0734
 7220TIP3    H143151   6.325   4.785  14.768  1.2393 -0.0001  0.1029
 7220TIP3    H243152   6.407   4.785  14.895 -0.2805 -0.6413  1.1033
 7221TIP3   OH243153   4.989   4.638   4.597  0.1116 -0.2866  0.5049
 7221TIP3    H143154   5.082   4.627   4.617  0.6069 -0.0994 -1.5565
 7221TIP3    H243155   4.968   4.726   4.629  1.3887  0.8020 -1.5265
 7222TIP3   OH243156   3.074   6.086  12.348  0.7564  0.9747 -0.2376
 7222TIP3    H143157   3.090   6.000  12.386  0.3218  0.7617 -0.5353
 7222TIP3    H243158   3.064   6.145  12.423 -0.1324  0.5512 -0.0260
 7223TIP3   OH243159   4.981   5.948   1.988  0.3961  0.6472  0.1631
 7223TIP3    H143160   4.993   5.859   2.020 -0.6992  0.1492 -0.7707
 7223TIP3    H243161   4.891   5.970   2.013 -0.2902  0.4456 -2.0659
 7224TIP3   OH243162   4.477   6.747   1.362  0.1158  0.3323 -0.3385
 7224TIP3    H143163   4.532   6.816   1.326  0.4386  0.5464  0.5609
 7224TIP3    H243164   4.517   6.726   1.446 -1.7869  1.2087  0.7916
 7225TIP3   OH243165   3.931   0.223  12.678 -0.6576 -0.2792 -0.4613
 7225TIP3    H143166   3.877   0.301  12.692  0.9943  0.8135 -0.0755
 7225TIP3    H243167   3.883   0.153  12.722 -1.5760  0.7468  0.2146
 7226TIP3   OH243168   4.879   5.699  16.823 -0.2759 -0.0495  0.5610
 7226TIP3    H143169   4.875   5.604  16.811  1.0191  0.0275 -0.6108
 7226TIP3    H243170   4.954   5.713  16.881 -0.5418  0.2489  0.8328
 7227TIP3   OH243171   4.638   1.991  12.153  0.2754  0.2734 -0.1275
 7227TIP3    H143172   4.597   1.960  12.233  1.4136 -0.0759  0.3273
 7227TIP3    H243173   4.613   1.926  12.086 -0.2375  0.2796  0.0631
 7228TIP3   OH243174   2.345   3.440   1.882 -0.4330 -0.1415  0.1607
 7228TIP3    H143175   2.370   3.533   1.883 -0.6051 -0.1019  1.6856
 7228TIP3    H243176   2.373   3.409   1.796  2.0268  0.6867  0.6141
 7229TIP3   OH243177   1.396   1.130   0.962 -0.7804 -0.2861  0.0527
 7229TIP3    H143178   1.439   1.066   0.905 -0.5590 -0.8274  0.8228
 7229TIP3    H243179   1.427   1.109   1.050 -3.1012 -1.0823  0.7027
 7230TIP3   OH243180   3.300   5.737  12.231 -0.3999 -0.0366  0.3438
 7230TIP3    H143181   3.227   5.762  12.176 -0.6549 -2.9619 -0.7441
 7230TIP3    H243182   3.377   5.770  12.185 -0.8487  0.6558  0.0844
 7231TIP3   OH243183   2.740   2.328  13.309  0.0329  0.2401  0.0349
 7231TIP3    H143184   2.664   2.382  13.332 -1.2027 -0.2259 -2.7380
 7231TIP3    H243185   2.710   2.275  13.235  2.2274 -1.9387  0.6481
 7232TIP3   OH243186   6.261   0.926   1.424 -0.0476 -0.0729 -0.3165
 7232TIP3    H143187   6.180   0.916   1.373 -0.0650 -0.5349 -0.1970
 7232TIP3    H243188   6.232   0.922   1.515  0.3765 -2.6054 -0.2422
 7233TIP3   OH243189   4.223   5.979  16.007  0.1386 -0.3233 -0.4832
 7233TIP3    H143190   4.210   5.937  16.092  1.5986 -0.6617 -0.4159
 7233TIP3    H243191   4.144   5.957  15.957 -0.5065 -0.5176  0.6201
 7234TIP3   OH243192   4.512   0.205   6.012  0.0291 -0.2605 -0.1366
 7234TIP3    H143193   4.510   0.298   5.991 -1.7104 -0.5323 -1.2120
 7234TIP3    H243194   4.581   0.169   5.956  1.3443  0.5098  0.9445
 7235TIP3   OH243195   2.512   4.112   0.271  0.1745 -0.4270 -0.4382
 7235TIP3    H143196   2.453   4.145   0.204 -0.9516  1.4966  1.4550
 7235TIP3    H243197   2.593   4.162   0.259  0.7994 -1.7519 -1.8448
 7236TIP3   OH243198   1.756   2.436  13.927 -0.2917 -0.6444  0.3982
 7236TIP3    H143199   1.740   2.361  13.870 -0.0148 -0.0410 -0.4893
 7236TIP3    H243200   1.851   2.445  13.928 -0.3939  0.7701 -0.9277
 7237TIP3   OH243201   4.466   2.198   0.491 -0.5450  0.3455 -0.2176
 7237TIP3    H143202   4.539   2.179   0.432 -1.0043 -0.9233 -0.3833
 7237TIP3    H243203   4.413   2.118   0.492  0.6416 -0.5208  3.6404
 7238TIP3   OH243204   1.840   1.022  11.922 -0.2489 -0.1722 -0.5270
 7238TIP3    H143205   1.909   1.050  11.862  3.0870 -0.8449  2.7834
 7238TIP3    H243206   1.820   0.932  11.895  1.1174 -0.4153 -0.7910
 7239TIP3   OH243207   2.182   3.117   6.169 -0.4468  0.1340  0.1166
 7239TIP3    H143208   2.179   3.038   6.222  0.3360  0.0430  0.0385
 7239TIP3    H243209   2.263   3.161   6.197 -1.0706  1.0893  0.4245
 7240TIP3   OH243210   0.003   5.523   1.309  0.7567  0.1341  0.0031
 7240TIP3    H143211  -0.077   5.531   1.257  0.4999 -1.1003  0.1898
 7240TIP3    H243212   0.052   5.604   1.291  0.5409 -0.1455 -1.9167
 7241TIP3   OH243213   4.047   4.957   4.940 -0.1792 -0.5690 -0.1856
 7241TIP3    H143214   4.068   5.049   4.920 -1.1739  0.0728  1.6214
 7241TIP3    H243215   4.066   4.910   4.859 -1.4973  1.5343 -1.7527
 7242TIP3   OH243216   5.363   1.360  14.218 -0.8015  0.4223  0.4765
 7242TIP3    H143217   5.292   1.336  14.277 -1.1612  1.8253  0.6177
 7242TIP3    H243218   5.354   1.454  14.205  0.6675  0.5202  0.0208
 7243TIP3   OH243219   5.250   1.655   3.674  0.1382  0.1862 -0.1649
 7243TIP3    H143220   5.197   1.576   3.677  1.6396 -0.7813  3.6985
 7243TIP3    H243221   5.340   1.624   3.665  0.5466  1.5798 -1.0785
 7244TIP3   OH243222   2.494   3.104  15.959  0.3433  0.4483 -0.5571
 7244TIP3    H143223   2.588   3.122  15.964  0.8075 -1.9266  0.2049
 7244TIP3    H243224   2.485   3.051  15.880 -0.4880  1.3129 -1.0495
 7245TIP3   OH243225   0.799   3.931   3.847 -0.0354  0.1630  0.4940
 7245TIP3    H143226   0.821   3.844   3.879  1.6101  0.4149  0.0976
 7245TIP3    H243227   0.791   3.921   3.753 -0.3703  0.3285  0.5051
 7246TIP3   OH243228   3.196   0.307  15.379  0.1770  0.8885  0.3011
 7246TIP3    H143229   3.132   0.374  15.354  1.2630  1.0878 -2.1230
 7246TIP3    H243230   3.193   0.244  15.306  0.1721 -0.9826  1.8871
 7247TIP3   OH243231   1.012   3.409  16.234 -0.1799  0.5124  0.1532
 7247TIP3    H143232   1.021   3.448  16.321 -2.7367  0.3354  0.5595
 7247TIP3    H243233   1.095   3.425  16.191  0.4709  2.2544  1.9857
 7248TIP3   OH243234   1.136   5.659   6.535  0.0649 -0.2128 -0.2933
 7248TIP3    H143235   1.200   5.638   6.603 -0.2896  0.1156  0.1452
 7248TIP3    H243236   1.054   5.672   6.582 -0.0070  0.8268 -0.6977
 7249TIP3   OH243237   2.901   6.638   6.241 -0.5856  0.4138  0.3582
 7249TIP3    H143238   2.981   6.661   6.289 -0.5683  0.6368  0.2245
 7249TIP3    H243239   2.884   6.546   6.265 -0.7007  0.5877  0.9578
 7250TIP3   OH243240   5.962   4.268   0.943  0.1385  0.2239  0.6483
 7250TIP3    H143241   5.909   4.296   1.018 -0.6785  1.7411 -0.4633
 7250TIP3    H243242   5.898   4.236   0.879  0.6206  1.0116 -0.2521
 7251TIP3   OH243243   6.409   4.142   1.007 -0.3151 -0.1765  0.3503
 7251TIP3    H143244   6.470   4.140   1.081  0.0323 -1.8765  0.0284
 7251TIP3    H243245   6.463   4.160   0.931 -0.4245 -0.2613  0.2531
 7252TIP3   OH243246   6.079   0.879   0.103 -0.0528 -0.2847 -0.4754
 7252TIP3    H143247   6.083   0.974   0.088 -1.4263 -0.0937  0.2810
 7252TIP3    H243248   6.084   0.870   0.198  0.2218 -0.9942 -0.5514
 7253TIP3   OH243249   5.412   0.241  11.569 -0.5739  0.1967  0.0716
 7253TIP3    H143250   5.363   0.323  11.558  2.2763  2.0401  0.3214
 7253TIP3    H243251   5.496   0.269  11.607  1.3560 -2.5426 -1.9748
 7254TIP3   OH243252   3.419   6.091  13.055  0.0756  0.3334 -0.4793
 7254TIP3    H143253   3.489   6.054  13.108  0.1043 -1.0431 -1.4649
 7254TIP3    H243254   3.398   6.174  13.097 -1.1493 -1.5500  2.7812
 7255TIP3   OH243255   0.343   1.110   2.813 -0.4580  0.2640  0.4765
 7255TIP3    H143256   0.418   1.161   2.780 -0.8293 -0.5332 -1.6929
 7255TIP3    H243257   0.380   1.057   2.884  1.3564 -1.0628 -1.3964
 7256TIP3   OH243258   4.793   5.767  14.848 -0.2414  0.2523 -0.8814
 7256TIP3    H143259   4.799   5.672  14.853 -1.4507  0.0831 -2.4236
 7256TIP3    H243260   4.884   5.797  14.851  0.1124 -0.8968  0.3491
 7257TIP3   OH243261   1.581   4.362  12.510 -0.3172  0.4227  0.0791
 7257TIP3    H143262   1.510   4.339  12.451 -0.5057  0.9407  0.1034
 7257TIP3    H243263   1.660   4.333  12.465 -0.4789  0.5951 -0.3121
 7258TIP3   OH243264   2.556   2.641   3.181 -0.3912  0.3297 -0.5632
 7258TIP3    H143265   2.639   2.602   3.156 -0.1084  1.2675 -1.0787
 7258TIP3    H243266   2.511   2.571   3.229  0.8847 -0.0192  0.1467
 7259TIP3   OH243267   3.276   4.962  16.972 -0.2938 -0.0394 -0.7297
 7259TIP3    H143268   3.253   4.921  17.055 -0.8899  1.5499 -0.1032
 7259TIP3    H243269   3.326   5.039  16.995  0.2668 -0.0403 -1.8841
 7260TIP3   OH243270   5.861   0.389  15.786  0.7135 -0.2716 -0.4299
 7260TIP3    H143271   5.905   0.304  15.790  1.5238  0.1884  0.9367
 7260TIP3    H243272   5.797   0.385  15.857 -0.3744 -0.3491 -1.4159
 7261TIP3   OH243273   3.634   4.639  14.595 -0.2060 -0.1551  0.9488
 7261TIP3    H143274   3.700   4.708  14.593 -0.0527 -0.2815  1.6755
 7261TIP3    H243275   3.639   4.599  14.508  2.3039 -1.6899  1.7221
 7262TIP3   OH243276   4.540   5.796   2.597 -0.0659  0.1285  0.3218
 7262TIP3    H143277   4.522   5.854   2.671 -3.9769 -0.2521 -0.1921
 7262TIP3    H243278   4.544   5.709   2.635 -0.9361  0.0581  0.2712
 7263TIP3   OH243279   1.586   5.430   1.401 -0.3497 -0.3801  0.1822
 7263TIP3    H143280   1.492   5.442   1.413 -0.2780  1.4314 -0.8376
 7263TIP3    H243281   1.610   5.492   1.332  1.4263 -1.5152 -0.2836
 7264TIP3   OH243282   0.987   6.735   1.772 -0.9032  0.1736  0.4762
 7264TIP3    H143283   0.936   6.673   1.824 -1.9816 -0.1525 -0.9587
 7264TIP3    H243284   1.000   6.691   1.688 -0.4085  1.2787 -0.0311
 7265TIP3   OH243285   6.199   1.772  12.198  0.6313  0.6925  0.4829
 7265TIP3    H143286   6.118   1.721  12.204  0.9056  0.3545  1.3033
 7265TIP3    H243287   6.237   1.769  12.285  2.1910 -0.2326 -0.2066
 7266TIP3   OH243288   1.625   1.112   6.258  0.2874 -0.6811  0.8524
 7266TIP3    H143289   1.533   1.092   6.243  0.7889 -3.2848  1.0703
 7266TIP3    H243290   1.668   1.027   6.265  2.8577  0.4735 -0.0587
 7267TIP3   OH243291   5.736   3.176   3.277 -0.7845 -0.2258  0.1747
 7267TIP3    H143292   5.653   3.208   3.241 -1.1633 -1.8056 -0.3931
 7267TIP3    H243293   5.734   3.081   3.262  0.8384 -0.3683  0.7495
 7268TIP3   OH243294   3.133   2.415   1.238  0.5294 -0.3546 -0.0958
 7268TIP3    H143295   3.218   2.454   1.220  1.1531 -0.3373  2.6171
 7268TIP3    H243296   3.074   2.489   1.250  0.1670 -0.3638 -1.7453
 7269TIP3   OH243297   5.362   1.931  13.437 -0.1853 -0.5084  0.0627
 7269TIP3    H143298   5.346   1.974  13.353  0.0788 -0.4142  0.0604
 7269TIP3    H243299   5.444   1.884  13.425  0.0443 -0.1897  0.3901
 7270TIP3   OH243300   4.235   0.305  13.853 -0.0735 -0.3232  0.0461
 7270TIP3    H143301   4.253   0.395  13.878  0.9104 -0.1402 -1.2597
 7270TIP3    H243302   4.139   0.299  13.851 -0.1631  1.1167 -1.2759
 7271TIP3   OH243303   3.718   1.895  15.555  0.3952 -0.2981 -0.5879
 7271TIP3    H143304   3.787   1.899  15.489  2.1700  0.5082  1.2824
 7271TIP3    H243305   3.734   1.970  15.612 -0.4846 -1.5683  1.3895
 7272TIP3   OH243306   0.748   1.512   0.511 -0.0713 -0.3544  0.1480
 7272TIP3    H143307   0.740   1.607   0.510  0.2609 -0.3245 -0.3156
 7272TIP3    H243308   0.658   1.480   0.504 -0.1832 -0.0749  0.2997
 7273TIP3   OH243309   5.339   4.861  14.961  0.2166 -0.1500  0.0530
 7273TIP3    H143310   5.338   4.948  14.921 -0.1743  0.4314  1.2719
 7273TIP3    H243311   5.297   4.804  14.897 -1.4025  0.9624  0.1037
 7274TIP3   OH243312   3.862   6.064  11.611 -0.2028 -0.1398 -0.3956
 7274TIP3    H143313   3.824   6.085  11.526  0.3022 -0.6723 -0.7609
 7274TIP3    H243314   3.860   5.968  11.615 -1.1185 -0.0878  0.6077
 7275TIP3   OH243315   4.533   1.787   2.653  0.2521 -0.0872  0.1404
 7275TIP3    H143316   4.458   1.760   2.600 -0.1444 -0.6256  0.9665
 7275TIP3    H243317   4.609   1.770   2.597 -0.0976 -1.4457  0.0451
 7276TIP3   OH243318   6.361   4.618  12.637 -0.0499 -0.3712 -0.5735
 7276TIP3    H143319   6.446   4.583  12.663  0.3651  1.4936  0.6437
 7276TIP3    H243320   6.302   4.591  12.707 -0.1024 -0.1277 -0.5259
 7277TIP3   OH243321   0.120   3.699   3.459 -0.3448 -0.6467  0.2103
 7277TIP3    H143322   0.063   3.773   3.481  0.0751 -0.5307  0.9380
 7277TIP3    H243323   0.150   3.667   3.544  3.0113  1.1227 -0.2374
 7278TIP3   OH243324   4.945   0.429  12.311 -0.8561 -0.4160 -0.7741
 7278TIP3    H143325   4.862   0.459  12.275 -0.8369 -1.7821 -1.9984
 7278TIP3    H243326   4.946   0.335  12.293  0.1140 -0.7456  0.9063
 7279TIP3   OH243327   1.798   5.442   2.705 -0.2066 -0.6665 -0.7713
 7279TIP3    H143328   1.815   5.446   2.611  0.4074  0.4251 -0.6265
 7279TIP3    H243329   1.881   5.464   2.745 -0.9702  0.9153 -0.0055
 7280TIP3   OH243330   3.239   0.876   3.620 -0.0687 -0.1016  0.3760
 7280TIP3    H143331   3.248   0.941   3.550  2.2687 -0.8701 -0.0831
 7280TIP3    H243332   3.145   0.861   3.627 -0.3499  0.1708 -2.4466
 7281TIP3   OH243333   0.994   5.251   4.035  0.1015  0.0908 -0.6921
 7281TIP3    H143334   0.996   5.305   4.114 -0.0048  0.7203 -1.1188
 7281TIP3    H243335   1.026   5.308   3.965 -2.6876  0.5166 -1.6774
 7282TIP3   OH243336   3.822   2.031   1.230  0.5241 -0.8133  0.1260
 7282TIP3    H143337   3.797   1.994   1.315 -0.2946 -0.4115  0.0620
 7282TIP3    H243338   3.740   2.036   1.181  0.6948  0.6838 -0.0227
 7283TIP3   OH243339   1.017   3.884  13.682  0.0393  0.3731 -0.8735
 7283TIP3    H143340   1.059   3.809  13.724  0.3090 -0.3210 -2.3216
 7283TIP3    H243341   0.936   3.898  13.730  0.6491  0.0225  0.2661
 7284TIP3   OH243342   6.510   5.860  11.185 -0.4696  0.3418 -0.3233
 7284TIP3    H143343   6.566   5.911  11.243 -0.6543  0.7004 -0.4653
 7284TIP3    H243344   6.548   5.772  11.187 -0.9854  0.1345  1.0316
 7285TIP3   OH243345   3.031   0.192   2.681  0.4466  0.4274 -0.0856
 7285TIP3    H143346   2.967   0.197   2.751 -0.3605  1.7414 -0.8929
 7285TIP3    H243347   3.085   0.271   2.691  1.3081 -0.1597 -0.0175
 7286TIP3   OH243348   2.305   6.144  14.144  0.6675 -0.5128 -0.0223
 7286TIP3    H143349   2.263   6.064  14.111 -0.1588  0.8953 -2.5867
 7286TIP3    H243350   2.374   6.163  14.080 -0.0001  1.4946 -0.2003
 7287TIP3   OH243351   5.218   2.127   5.100 -0.5565  0.0366 -0.4257
 7287TIP3    H143352   5.157   2.124   5.027 -0.1538 -0.9743 -0.7340
 7287TIP3    H243353   5.246   2.219   5.105 -1.8618  0.4433 -0.4677
 7288TIP3   OH243354   4.788   3.051  12.091 -0.4763 -0.0559 -0.1650
 7288TIP3    H143355   4.871   3.008  12.071 -0.0042  0.1584  1.3061
 7288TIP3    H243356   4.812   3.131  12.136 -1.4864 -0.1275  0.5151
 7289TIP3   OH243357   3.136   5.597  14.230 -0.3601 -0.3766 -0.4521
 7289TIP3    H143358   3.216   5.559  14.195 -0.5905 -1.6469  0.3445
 7289TIP3    H243359   3.085   5.521  14.261 -0.2883  0.6337  2.2919
 7290TIP3   OH243360   5.698   0.597  17.043 -0.1529  0.3839  0.2387
 7290TIP3    H143361   5.686   0.590  17.138 -0.5039 -1.0230  0.1003
 7290TIP3    H243362   5.609   0.596  17.008  0.0468 -1.3077 -0.2404
 7291TIP3   OH243363   3.821   0.702   4.489  0.1924  0.4941  0.6678
 7291TIP3    H143364   3.816   0.745   4.574 -1.0582 -2.7966  2.3381
 7291TIP3    H243365   3.902   0.652   4.492 -1.1775 -1.7807  1.0515
 7292TIP3   OH243366   0.637   1.199  12.446 -0.2281  0.8774 -0.0492
 7292TIP3    H143367   0.599   1.240  12.368 -2.3842  0.6126  0.8499
 7292TIP3    H243368   0.631   1.266  12.514 -1.2980  0.0186  0.7226
 7293TIP3   OH243369   3.660   6.534   2.351 -0.4759 -0.2182  0.1527
 7293TIP3    H143370   3.653   6.630   2.359 -1.2349 -0.3331  0.8629
 7293TIP3    H243371   3.633   6.501   2.436  1.4822 -0.9969  0.5048
 7294TIP3   OH243372   2.220   0.735  14.714  0.4588  0.3702 -0.1434
 7294TIP3    H143373   2.220   0.642  14.694  1.2940  0.6499 -1.4611
 7294TIP3    H243374   2.179   0.740  14.800 -0.2381 -1.1437 -0.3609
 7295TIP3   OH243375   6.761   5.950   5.069  0.6173 -0.3258 -0.3246
 7295TIP3    H143376   6.807   5.928   5.150 -0.2317  1.2350  0.5999
 7295TIP3    H243377   6.831   5.974   5.008  1.0932  1.3898  0.8713
 7296TIP3   OH243378   0.698   0.693  12.864 -0.0797 -0.2172 -0.9481
 7296TIP3    H143379   0.762   0.624  12.884  1.1151  0.5074 -2.2459
 7296TIP3    H243380   0.741   0.749  12.800 -1.1584  1.5776 -0.1644
 7297TIP3   OH243381   2.216   0.194  14.684 -0.7139  0.2512 -0.1044
 7297TIP3    H143382   2.277   0.233  14.747 -0.3695  1.4065 -1.1386
 7297TIP3    H243383   2.168   0.129  14.735  0.7352 -0.0318  0.9603
 7298TIP3   OH243384   6.059   5.747   3.870 -1.0556 -0.2634 -0.4575
 7298TIP3    H143385   5.990   5.805   3.901 -0.8553 -0.2804  0.0324
 7298TIP3    H243386   6.043   5.737   3.776 -2.0400 -0.7231 -0.2375
 7299TIP3   OH243387   4.598   4.771  15.907  0.1338  0.1732  0.1944
 7299TIP3    H143388   4.544   4.766  15.986  0.6224  1.5852  0.6493
 7299TIP3    H243389   4.688   4.773  15.940  0.3697  0.0404 -0.4346
 7300TIP3   OH243390   6.412   2.233   4.818  0.3004 -0.1088  0.1021
 7300TIP3    H143391   6.481   2.230   4.885  0.6027  1.8479 -0.1003
 7300TIP3    H243392   6.440   2.302   4.758  0.0549 -1.9014 -2.1047
 7301TIP3   OH243393   5.230   4.944   2.200 -0.0885  0.0153 -0.0139
 7301TIP3    H143394   5.240   4.868   2.142 -1.6875 -0.1219 -0.1157
 7301TIP3    H243395   5.136   4.959   2.204  0.0574  0.5183  1.9186
 7302TIP3   OH243396   4.963   5.978  15.098  0.2483  0.0321 -0.6283
 7302TIP3    H143397   4.999   5.919  15.031 -0.8253 -0.0784 -1.1215
 7302TIP3    H243398   4.891   6.023  15.053 -0.9359 -0.5429  0.6523
 7303TIP3   OH243399   6.585   6.388   5.216 -0.0208  0.5347 -0.1852
 7303TIP3    H143400   6.559   6.297   5.232  0.5772  0.1097 -1.5755
 7303TIP3    H243401   6.533   6.439   5.279 -1.3779 -0.6430 -0.3281
 7304TIP3   OH243402   0.859   2.880  12.242 -0.2310  0.1897 -0.6567
 7304TIP3    H143403   0.770   2.882  12.208 -0.4049  0.6527 -0.1844
 7304TIP3    H243404   0.851   2.913  12.332  0.6673  1.8004 -1.1548
 7305TIP3   OH243405   4.224   6.757  16.317  0.3752 -0.2412  0.3068
 7305TIP3    H143406   4.276   6.821  16.269 -0.2198 -0.5284 -0.7532
 7305TIP3    H243407   4.237   6.779  16.409  1.5235  0.3407  0.0195
 7306TIP3   OH243408   1.355   4.627  11.852  0.3000 -0.0894  0.2590
 7306TIP3    H143409   1.356   4.540  11.890 -0.3503  0.4806  1.6239
 7306TIP3    H243410   1.439   4.665  11.877  0.1035  0.0843  0.6651
 7307TIP3   OH243411   1.821   3.097   0.800 -0.1443  0.3821  0.5516
 7307TIP3    H143412   1.854   3.172   0.750 -0.7883 -0.2116 -0.7796
 7307TIP3    H243413   1.727   3.098   0.785 -0.4144  0.4833  2.1712
 7308TIP3   OH243414   0.436   3.677   3.151 -0.0909  0.2822  0.0933
 7308TIP3    H143415   0.531   3.684   3.144 -0.2927  0.4737 -3.6480
 7308TIP3    H243416   0.407   3.763   3.181  0.8975  0.3309  0.9190
 7309TIP3   OH243417   0.058   6.088   4.518 -0.2658  0.3114  0.1941
 7309TIP3    H143418   0.076   6.018   4.580 -0.0943  0.2696  0.0979
 7309TIP3    H243419   0.015   6.044   4.444  0.6805  0.1516 -0.2775
 7310TIP3   OH243420   5.972   6.487   2.814  0.3639 -0.2310 -0.0429
 7310TIP3    H143421   6.024   6.536   2.878 -0.3181 -1.3834  1.4169
 7310TIP3    H243422   5.918   6.553   2.771  0.2554  0.4546  1.1304
 7311TIP3   OH243423   3.056   3.593  16.356 -0.2119 -1.1145  0.4001
 7311TIP3    H143424   3.011   3.514  16.326  0.5220 -0.5675 -2.2987
 7311TIP3    H243425   2.987   3.659  16.364 -0.4172 -1.2538 -0.1979
 7312TIP3   OH243426   4.878   5.859  11.417 -0.0910 -0.2637  0.7250
 7312TIP3    H143427   4.938   5.931  11.436 -0.0553 -0.5264  1.6395
 7312TIP3    H243428   4.868   5.860  11.322  3.1592 -1.6432  0.2965
 7313TIP3   OH243429   0.825   3.452  13.664  0.1145  0.5904 -0.5946
 7313TIP3    H143430   0.853   3.491  13.581  1.4061 -1.5165 -1.2002
 7313TIP3    H243431   0.878   3.496  13.730 -0.3075  1.6836 -0.9749
 7314TIP3   OH243432   3.341   3.915   3.994 -0.3068  0.1955 -0.8031
 7314TIP3    H143433   3.418   3.972   3.993  0.5077 -0.8415  0.5195
 7314TIP3    H243434   3.352   3.860   3.917  0.3489 -0.0167 -0.5678
 7315TIP3   OH243435   5.256   0.710  14.055  0.5165  0.3004  0.2798
 7315TIP3    H143436   5.163   0.696  14.037 -0.4046  2.0798  3.2720
 7315TIP3    H243437   5.299   0.699  13.970 -2.5338  0.3476 -1.3434
 7316TIP3   OH243438   6.683   3.680   4.845  0.1262 -0.3675 -0.0060
 7316TIP3    H143439   6.631   3.756   4.818  0.1163 -0.0067  1.0352
 7316TIP3    H243440   6.712   3.641   4.762 -0.4509  0.3614 -0.5585
 7317TIP3   OH243441   3.118   5.121  11.394 -0.0008 -0.2934  0.2418
 7317TIP3    H143442   3.056   5.183  11.357 -1.0696 -1.4351  0.0952
 7317TIP3    H243443   3.204   5.157  11.371 -0.5456  2.3664  2.2336
 7318TIP3   OH243444   6.737   0.283  13.030 -0.3223  0.2795  0.2714
 7318TIP3    H143445   6.721   0.372  13.060 -3.0240 -0.3612  0.7988
 7318TIP3    H243446   6.667   0.265  12.968  2.4476 -0.1304 -2.9092
 7319TIP3   OH243447   1.729   6.275   1.306 -0.1875 -0.5171 -0.0853
 7319TIP3    H143448   1.726   6.328   1.226 -0.2233 -1.6710 -0.8601
 7319TIP3    H243449   1.818   6.288   1.339  0.1053 -0.7146 -0.7840
 7320TIP3   OH243450   3.429   3.551   6.368 -0.1569  0.8237  0.4276
 7320TIP3    H143451   3.368   3.586   6.433  1.2429  1.9919  1.1567
 7320TIP3    H243452   3.376   3.535   6.290 -1.9498 -0.8907  1.9239
 7321TIP3   OH243453   4.613   5.822   0.333 -0.2797  0.9130 -0.0695
 7321TIP3    H143454   4.646   5.853   0.418  0.2957  0.4579 -0.1223
 7321TIP3    H243455   4.639   5.890   0.271 -0.3438  1.0475  0.0492
 7322TIP3   OH243456   5.683   4.304  14.098  0.1802 -0.3773  0.0182
 7322TIP3    H143457   5.609   4.243  14.094 -0.5456  0.4142  0.9163
 7322TIP3    H243458   5.761   4.248  14.098 -0.4611 -1.2822  0.3392
 7323TIP3   OH243459   5.033   2.754   2.625  0.2388  0.0785  0.0988
 7323TIP3    H143460   5.057   2.669   2.662  1.5453 -0.2738 -1.5143
 7323TIP3    H243461   5.055   2.817   2.693  1.1213 -0.6963  0.5384
 7324TIP3   OH243462   3.174   4.427  15.476 -0.4964  0.1811  0.6309
 7324TIP3    H143463   3.139   4.411  15.388  0.0635  3.6283 -0.2795
 7324TIP3    H243464   3.097   4.447  15.529 -0.7310 -0.9475  0.7432
 7325TIP3   OH243465   6.518   2.781  13.949 -0.3745  0.2562  0.1552
 7325TIP3    H143466   6.570   2.861  13.948 -3.6975  2.5507  0.8736
 7325TIP3    H243467   6.497   2.764  13.857  1.1493 -0.4039 -0.0895
 7326TIP3   OH243468   3.201   4.935   5.311 -0.4180  0.2154 -0.6574
 7326TIP3    H143469   3.263   4.965   5.244 -0.9101  0.1371 -1.1513
 7326TIP3    H243470   3.116   4.936   5.267 -0.2787 -3.1995 -1.1052
 7327TIP3   OH243471   2.134   1.681   2.243  0.4102 -0.8668 -0.4792
 7327TIP3    H143472   2.195   1.657   2.313  1.1485  0.9971 -0.4409
 7327TIP3    H243473   2.069   1.737   2.286 -0.6256 -1.8000 -0.7849
 7328TIP3   OH243474   6.067   2.268   3.808 -0.1534  0.5034 -0.0651
 7328TIP3    H143475   6.014   2.192   3.828  0.6170  0.2859  1.1546
 7328TIP3    H243476   6.013   2.319   3.747 -0.9034 -0.7107 -0.4358
 7329TIP3   OH243477   3.567   4.372  16.887  0.1418 -0.5157 -0.1953
 7329TIP3    H143478   3.630   4.307  16.857  1.7961  0.8052  0.3407
 7329TIP3    H243479   3.514   4.327  16.953  0.4870 -1.6524 -0.6962
 7330TIP3   OH243480   1.266   1.999   0.407 -0.1198  0.1667 -0.0162
 7330TIP3    H143481   1.224   1.934   0.351 -1.1490  0.3503  0.5312
 7330TIP3    H243482   1.206   2.010   0.480 -1.4145  3.8317 -1.5067
 7331TIP3   OH243483   6.339   0.894   4.805 -1.0333  0.9472 -0.5398
 7331TIP3    H143484   6.341   0.975   4.754 -1.7651  2.2808  1.4912
 7331TIP3    H243485   6.372   0.919   4.891 -1.4697 -0.8827  0.1843
 7332TIP3   OH243486   5.870   0.889   2.951 -0.4939 -0.3514 -0.6750
 7332TIP3    H143487   5.954   0.929   2.929 -0.3994  0.8183  1.6428
 7332TIP3    H243488   5.892   0.813   3.005 -0.9103  0.6769  1.0080
 7333TIP3   OH243489   3.424   3.613  15.793  0.0938 -0.3262  0.1228
 7333TIP3    H143490   3.482   3.677  15.834  2.0481 -0.4156 -2.4080
 7333TIP3    H243491   3.341   3.624  15.839  0.8300  2.9067  0.8071
 7334TIP3   OH243492   4.772   5.809  12.582 -0.2304 -0.2799  0.0458
 7334TIP3    H143493   4.868   5.811  12.587 -0.2917 -0.3711  1.5955
 7334TIP3    H243494   4.749   5.882  12.526  0.7015  0.5922  0.7861
 7335TIP3   OH243495   1.878   5.127  14.059 -0.5522  0.3875 -0.3617
 7335TIP3    H143496   1.950   5.079  14.019 -0.3203  1.9282 -1.8624
 7335TIP3    H243497   1.805   5.066  14.059  0.3238 -0.6734 -0.2360
 7336TIP3   OH243498   1.388   3.515   6.268 -0.0982  0.2115  0.3096
 7336TIP3    H143499   1.372   3.608   6.283  0.0034  0.1540  0.8030
 7336TIP3    H243500   1.470   3.497   6.313  0.0760 -0.0345 -0.1065
 7337TIP3   OH243501   6.524   2.429  11.856 -0.2974 -0.3086 -0.3027
 7337TIP3    H143502   6.590   2.428  11.925  0.6899 -0.4403 -1.2272
 7337TIP3    H243503   6.470   2.352  11.873 -0.9023  0.4027  1.0945
 7338TIP3   OH243504   5.043   3.071   1.407 -0.4991 -0.0698  0.0191
 7338TIP3    H143505   5.025   3.015   1.332 -0.2378  0.3889 -0.3857
 7338TIP3    H243506   5.060   3.010   1.479 -1.3231 -0.5058 -0.1574
 7339TIP3   OH243507   6.327   6.295   0.122 -0.0511 -0.2128 -0.1559
 7339TIP3    H143508   6.281   6.348   0.057  2.0447  1.0079 -0.6987
 7339TIP3    H243509   6.310   6.205   0.096 -0.2360  0.2483 -1.6935
 7340TIP3   OH243510   2.769   0.643  16.268  0.4115 -0.4409 -0.2101
 7340TIP3    H143511   2.713   0.568  16.284  0.5058 -0.6473 -0.8514
 7340TIP3    H243512   2.783   0.644  16.174 -0.4585  1.0020 -0.3528
 7341TIP3   OH243513   0.542   4.242   1.407  0.4066  0.7731 -0.6540
 7341TIP3    H143514   0.573   4.326   1.371  0.4885  0.9079 -0.2731
 7341TIP3    H243515   0.616   4.210   1.458 -0.6099  1.8241  1.5127
 7342TIP3   OH243516   3.402   0.573  14.143  0.2636  0.3198 -0.1746
 7342TIP3    H143517   3.454   0.534  14.213  3.1385 -0.0294 -2.3708
 7342TIP3    H243518   3.398   0.666  14.164 -1.0863 -0.1707  1.7603
 7343TIP3   OH243519   3.589   1.127  15.340 -0.3477 -0.6686 -0.3165
 7343TIP3    H143520   3.562   1.157  15.427  1.6522 -0.8659  0.4118
 7343TIP3    H243521   3.665   1.072  15.357 -0.7796 -1.8382 -2.0967
 7344TIP3   OH243522   6.603   1.419   6.558  0.3937 -0.9283  0.0988
 7344TIP3    H143523   6.668   1.485   6.580  1.1524 -1.4852 -0.4388
 7344TIP3    H243524   6.528   1.439   6.614  0.2016  1.0234 -0.8083
 7345TIP3   OH243525   0.222   2.447  11.979  0.7407 -0.0250  0.0117
 7345TIP3    H143526   0.279   2.515  12.014 -1.5014  0.5787  2.6937
 7345TIP3    H243527   0.199   2.478  11.891  1.4069  1.6686  0.4157
 7346TIP3   OH243528   4.482   6.320  17.044  0.1289  0.2726  0.3376
 7346TIP3    H143529   4.525   6.255  17.100 -0.8636 -1.7799 -1.1836
 7346TIP3    H243530   4.502   6.291  16.955 -0.6319  1.8800 -0.3678
 7347TIP3   OH243531   4.810   3.465  16.019 -0.2521 -0.1978  0.5228
 7347TIP3    H143532   4.770   3.384  15.986  0.5869  0.3951 -2.0024
 7347TIP3    H243533   4.863   3.436  16.094  1.5267 -2.3159 -1.4828
 7348TIP3   OH243534   4.703   6.586   6.504  0.1519  0.5164  0.4530
 7348TIP3    H143535   4.782   6.542   6.475  0.2850  0.6518  0.6115
 7348TIP3    H243536   4.678   6.541   6.585 -0.9598 -0.7287 -0.5604
 7349TIP3   OH243537   4.619   0.218   3.665 -0.6575  0.3670 -0.3622
 7349TIP3    H143538   4.703   0.264   3.674 -0.1118 -0.6114 -0.3251
 7349TIP3    H243539   4.587   0.209   3.755  0.8680 -2.2732 -0.0543
 7350TIP3   OH243540   0.804   2.469   6.823  0.0065 -0.1419 -0.1283
 7350TIP3    H143541   0.762   2.387   6.797  0.3914 -0.3169 -0.2047
 7350TIP3    H243542   0.868   2.486   6.754  1.4780 -0.9369  1.0115
 7351TIP3   OH243543   6.261   5.199   1.393  0.3830  0.5622 -0.1714
 7351TIP3    H143544   6.311   5.118   1.393 -1.0625 -0.3536 -0.0906
 7351TIP3    H243545   6.309   5.258   1.451  0.3846 -0.9149  1.3467
 7352TIP3   OH243546   1.755   6.529   3.556  0.1035 -0.7815 -0.3050
 7352TIP3    H143547   1.702   6.541   3.635 -0.0559 -0.6406 -0.4339
 7352TIP3    H243548   1.697   6.485   3.494  0.5950 -1.9882  0.0718
 7353TIP3   OH243549   3.010   2.997  12.540  0.0813 -0.3850 -0.2387
 7353TIP3    H143550   3.050   2.985  12.454 -0.0232  1.3014 -0.5508
 7353TIP3    H243551   3.062   3.066  12.581  0.3025 -1.3669  1.1757
 7354TIP3   OH243552   6.081   4.247  15.666  0.3092  0.2111  0.1896
 7354TIP3    H143553   6.065   4.152  15.661  0.9413  0.1075  0.0004
 7354TIP3    H243554   6.177   4.254  15.672  0.1847  0.7508  2.1608
 7355TIP3   OH243555   0.449   4.206   6.357 -0.4688  0.4682  0.1338
 7355TIP3    H143556   0.523   4.259   6.327  0.0934 -0.3792  0.0083
 7355TIP3    H243557   0.485   4.118   6.368 -1.7602 -0.2617 -1.2402
 7356TIP3   OH243558   3.280   2.208   5.507  0.1316  0.1780  0.7182
 7356TIP3    H143559   3.222   2.265   5.557 -1.9136 -1.1395 -0.0784
 7356TIP3    H243560   3.233   2.191   5.425  1.7847 -0.6738 -0.1013
 7357TIP3   OH243561   5.566   0.157  15.403 -0.1932  0.0778  0.3575
 7357TIP3    H143562   5.616   0.237  15.416 -2.0634  1.4845 -0.9100
 7357TIP3    H243563   5.626   0.087  15.430  1.6691  1.8386  0.9201
 7358TIP3   OH243564   3.451   0.753   4.941  0.3272 -0.1252 -0.2289
 7358TIP3    H143565   3.396   0.740   5.018  1.0509  0.0534  0.3184
 7358TIP3    H243566   3.512   0.821   4.967  1.5283 -1.1084 -0.4596
 7359TIP3   OH243567   1.161   2.467   5.164 -0.2727 -0.5118 -0.2405
 7359TIP3    H143568   1.238   2.520   5.142  0.3143 -1.9604 -1.7440
 7359TIP3    H243569   1.087   2.524   5.144  0.3814  0.6674  0.6045
 7360TIP3   OH243570   1.823   4.900  14.566  0.4548 -0.0516 -0.3508
 7360TIP3    H143571   1.842   4.942  14.650  0.5320 -0.3817 -0.2045
 7360TIP3    H243572   1.727   4.901  14.560  0.4332 -0.3965 -0.0714
 7361TIP3   OH243573   2.129   6.431  11.878 -0.3672  0.8158  0.1993
 7361TIP3    H143574   2.186   6.433  11.801  0.5603  0.6845  0.8833
 7361TIP3    H243575   2.057   6.491  11.856 -0.1623  0.7033 -0.8093
 7362TIP3   OH243576   4.224   1.244  15.471 -0.3956 -0.1659  0.0956
 7362TIP3    H143577   4.184   1.330  15.459 -0.3435  0.2753  2.7645
 7362TIP3    H243578   4.273   1.252  15.553  1.8091 -1.9307 -1.0106
 7363TIP3   OH243579   0.131   5.490   2.312  0.4655  0.3745  0.0987
 7363TIP3    H143580   0.136   5.586   2.317 -0.9411  0.5770 -1.7247
 7363TIP3    H243581   0.053   5.473   2.260  0.7862 -1.7846  0.2780
 7364TIP3   OH243582   4.587   0.172   4.796  0.4927  0.6850 -0.2260
 7364TIP3    H143583   4.514   0.195   4.739  1.2406  1.7848 -0.7555
 7364TIP3    H243584   4.663   0.216   4.758  2.0411 -2.7517 -1.3556
 7365TIP3   OH243585   3.665   1.911  12.981  0.5170 -0.3027  0.1646
 7365TIP3    H143586   3.743   1.908  13.037 -0.0016  0.8610  0.9614
 7365TIP3    H243587   3.595   1.936  13.040 -0.2981 -0.4245 -0.7496
 7366TIP3   OH243588   2.877   0.187   4.439 -0.1170  0.3762 -0.1561
 7366TIP3    H143589   2.871   0.274   4.400 -1.7602  1.4119  2.2438
 7366TIP3    H243590   2.954   0.192   4.496  0.2637  0.0070 -0.6439
 7367TIP3   OH243591   0.938   5.978   2.008 -0.1591  0.3686 -0.2355
 7367TIP3    H143592   1.003   5.916   2.041 -1.4738  0.1465  2.0215
 7367TIP3    H243593   0.954   6.058   2.057 -3.3622 -0.5442  2.4582
 7368TIP3   OH243594   6.389   6.326  14.201  0.1091  0.5432  0.7561
 7368TIP3    H143595   6.380   6.324  14.106 -0.9924 -2.4352  0.8711
 7368TIP3    H243596   6.300   6.315  14.234  0.6017  0.5690  2.1208
 7369TIP3   OH243597   5.167   0.859  14.269 -0.0705 -0.0754  0.2599
 7369TIP3    H143598   5.205   0.810  14.342  0.0201 -0.1502  0.1618
 7369TIP3    H243599   5.205   0.820  14.191 -2.6386 -2.1639  0.0007
 7370TIP3   OH243600   6.484   3.742   5.032 -0.6367 -0.1065  0.3213
 7370TIP3    H143601   6.393   3.715   5.020 -0.5202 -1.4927  2.4157
 7370TIP3    H243602   6.534   3.680   4.979 -0.8399  0.2509 -0.3037
 7371TIP3   OH243603   6.682   2.029  11.395  0.6102 -0.3730  0.2070
 7371TIP3    H143604   6.593   2.047  11.365  0.7418  1.0643  0.6492
 7371TIP3    H243605   6.715   1.963  11.334 -1.6747 -2.9267  1.6160
 7372TIP3   OH243606   4.839   1.193   5.305 -0.3610  0.4260  0.0968
 7372TIP3    H143607   4.891   1.237   5.238  0.0490 -1.6434 -0.9868
 7372TIP3    H243608   4.903   1.150   5.362 -0.7921  0.1892  0.4132
 7373TIP3   OH243609   6.210   5.434   4.974  0.8417  0.4286  0.1275
 7373TIP3    H143610   6.176   5.488   5.045  0.4396  0.8230 -0.3511
 7373TIP3    H243611   6.221   5.496   4.901 -1.2281 -0.4228 -0.9551
 7374TIP3   OH243612   1.633   4.355  17.247 -0.0519 -0.1484  0.3399
 7374TIP3    H143613   1.632   4.417  17.174 -1.4754 -0.2851  0.2184
 7374TIP3    H243614   1.586   4.400  17.317 -3.5373 -2.0853 -0.6455
 7375TIP3   OH243615   5.486   0.013   1.975 -0.0225  0.0117 -0.1549
 7375TIP3    H143616   5.579   0.026   1.952 -0.3149  0.0551 -1.3361
 7375TIP3    H243617   5.479   0.047   2.064  1.3772 -1.1742  0.4221
 7376TIP3   OH243618   2.937   3.334  12.041  0.2454 -0.0538  0.3954
 7376TIP3    H143619   2.981   3.329  11.956 -2.0809  0.3011 -0.8709
 7376TIP3    H243620   2.940   3.427  12.064 -0.4869  0.0797 -0.0458
 7377TIP3   OH243621   1.426   4.006  11.785 -0.4802 -0.6042  0.4967
 7377TIP3    H143622   1.521   4.000  11.782 -0.3712  1.3939 -1.3049
 7377TIP3    H243623   1.395   3.917  11.771  1.1101 -1.2766  1.1700
 7378TIP3   OH243624   5.477   3.722  14.091  0.6725 -0.3683  0.3818
 7378TIP3    H143625   5.556   3.772  14.112  0.6746  0.5480 -1.7783
 7378TIP3    H243626   5.501   3.631  14.109  1.3738  0.1487  2.1943
 7379TIP3   OH243627   3.912   4.413  15.858  0.2159  0.1839  0.0622
 7379TIP3    H143628   4.004   4.426  15.835  0.7477  0.5410  2.2480
 7379TIP3    H243629   3.880   4.502  15.878 -0.6548  0.0842 -0.8441
 7380TIP3   OH243630   5.089   5.389   3.067 -0.1132  0.2227  0.3334
 7380TIP3    H143631   5.003   5.427   3.085  0.6103  2.3245 -0.5101
 7380TIP3    H243632   5.099   5.320   3.132 -1.6733  1.1639  1.5900
 7381TIP3   OH243633   1.702   3.649  16.395  0.0008 -0.0873  0.0146
 7381TIP3    H143634   1.634   3.716  16.384 -0.4372 -0.4268  0.6027
 7381TIP3    H243635   1.781   3.698  16.416 -0.2025  0.2805 -0.0636
 7382TIP3   OH243636   5.026   1.054  15.307 -0.3148  0.7142  0.5128
 7382TIP3    H143637   5.116   1.038  15.279 -1.1651 -1.4825 -1.1551
 7382TIP3    H243638   5.034   1.089  15.395  2.2222  1.7204 -0.0573
 7383TIP3   OH243639   1.641   0.600  12.330  0.4292 -0.3804  0.2485
 7383TIP3    H143640   1.644   0.638  12.418  1.1869  0.7688 -0.2802
 7383TIP3    H243641   1.689   0.661  12.275  1.0028 -1.7106 -0.7486
 7384TIP3   OH243642   6.198   3.270   3.077 -0.6882  0.5352  0.1840
 7384TIP3    H143643   6.215   3.359   3.047 -0.1977  0.8248  1.2878
 7384TIP3    H243644   6.108   3.273   3.110 -0.1132  1.0511  1.7409
 7385TIP3   OH243645   5.997   2.713  11.439  0.3727  0.2684  0.3276
 7385TIP3    H143646   6.027   2.622  11.443  1.5732  0.6890  0.8163
 7385TIP3    H243647   6.069   2.761  11.399 -1.2818  0.5831 -2.4646
 7386TIP3   OH243648   4.721   5.279   5.433 -0.3521 -0.6250 -0.7304
 7386TIP3    H143649   4.662   5.349   5.463 -0.1521  0.4407 -2.7632
 7386TIP3    H243650   4.663   5.206   5.411 -0.7521 -0.2843 -0.8117
 7387TIP3   OH243651   1.824   1.927   4.091  0.0212 -0.3834  0.2151
 7387TIP3    H143652   1.867   1.954   4.172 -1.5663  1.3808  0.5071
 7387TIP3    H243653   1.864   1.982   4.024 -0.5709  0.0780  0.2334
 7388TIP3   OH243654   3.914   3.624  12.380  0.2422 -0.1769  0.1065
 7388TIP3    H143655   3.843   3.641  12.318  0.1002 -0.8369  0.0829
 7388TIP3    H243656   3.881   3.660  12.463 -0.3894 -1.0481  0.2403
 7389TIP3   OH243657   4.801   1.338   3.876 -0.4627  0.2433 -0.1157
 7389TIP3    H143658   4.740   1.344   3.803 -2.1539 -4.4038  0.7747
 7389TIP3    H243659   4.871   1.281   3.844  0.7714  1.2989  0.6484
 7390TIP3   OH243660   0.596   1.379  15.507 -0.0139 -0.4528 -0.2000
 7390TIP3    H143661   0.642   1.432  15.572 -0.6182  0.3346 -0.4131
 7390TIP3    H243662   0.663   1.357  15.442  0.7372 -1.7437  0.9770
 7391TIP3   OH243663   4.496   2.147  16.434  0.1461 -0.2089 -0.0708
 7391TIP3    H143664   4.451   2.168  16.516 -0.3060 -0.4040 -0.2661
 7391TIP3    H243665   4.538   2.229  16.407 -1.0036  0.2575 -0.4547
 7392TIP3   OH243666   5.764   2.037  15.347 -0.2780  0.4802  0.3366
 7392TIP3    H143667   5.821   2.048  15.424 -1.4644 -0.4112  1.3726
 7392TIP3    H243668   5.817   2.066  15.273  1.7496 -0.9522  1.1945
 7393TIP3   OH243669   6.079   4.892  14.128 -0.9109  0.2498  0.2299
 7393TIP3    H143670   6.170   4.865  14.133 -1.6820 -2.7218 -0.7213
 7393TIP3    H243671   6.075   4.947  14.049 -0.0731 -0.2004 -0.1367
 7394TIP3   OH243672   1.559   0.294   0.628  0.2171 -0.5530 -0.3922
 7394TIP3    H143673   1.604   0.325   0.549 -1.0878 -0.3677 -1.0772
 7394TIP3    H243674   1.561   0.199   0.620 -0.6780 -0.5200 -1.0976
 7395TIP3   OH243675   1.282   1.541   4.952  0.3300  0.1791  0.4530
 7395TIP3    H143676   1.330   1.507   5.028  1.5296 -1.5768 -1.0328
 7395TIP3    H243677   1.265   1.632   4.973  1.4834 -0.0320  2.4254
 7396TIP3   OH243678   6.290   1.554  10.435  0.0773 -0.2539  0.4316
 7396TIP3    H143679   6.354   1.613  10.394  0.7013 -1.9556 -1.1132
 7396TIP3    H243680   6.322   1.543  10.524  1.1374  0.0756  0.1064
 7397TIP3   OH243681   1.424   2.647   1.255  0.1441  0.3514  0.2164
 7397TIP3    H143682   1.488   2.717   1.247 -0.6180  1.0966  0.4784
 7397TIP3    H243683   1.351   2.675   1.200 -0.1967 -0.2013  0.3819
 7398TIP3   OH243684   4.751   0.174  11.021  0.6002  0.1709 -0.2639
 7398TIP3    H143685   4.744   0.114  10.947  1.1060  1.0841 -1.0679
 7398TIP3    H243686   4.662   0.178  11.057  0.7561 -1.7966  0.4105
 7399TIP3   OH243687   0.072   4.583  12.753 -0.0347 -0.5891 -0.0054
 7399TIP3    H143688   0.137   4.554  12.817  0.5092  0.8770  0.1331
 7399TIP3    H243689  -0.003   4.611  12.806 -0.5013 -1.6078 -0.1296
 7400TIP3   OH243690   2.721   5.803  14.677  0.4546 -0.4086 -0.9637
 7400TIP3    H143691   2.777   5.832  14.606  0.7766  0.0745 -0.5145
 7400TIP3    H243692   2.658   5.873  14.689  1.0468 -0.0110 -0.0819
 7401TIP3   OH243693   3.338   1.781   3.432 -0.1268 -0.3802  0.0263
 7401TIP3    H143694   3.387   1.704   3.458  1.0050  1.1084  2.4560
 7401TIP3    H243695   3.400   1.835   3.384  0.0978  0.5857  1.3623
 7402TIP3   OH243696   3.144   1.023   4.582 -0.2113 -0.0464  0.6869
 7402TIP3    H143697   3.176   1.108   4.612 -0.4284  0.4227 -0.3529
 7402TIP3    H243698   3.142   0.968   4.660  0.2445  0.8127  1.3080
 7403TIP3   OH243699   5.554   5.643   3.671  0.1840 -0.0757  0.2309
 7403TIP3    H143700   5.578   5.551   3.679  1.5165  0.2486  0.1151
 7403TIP3    H243701   5.571   5.665   3.580 -2.7522 -0.4043 -0.4532
 7404TIP3   OH243702   0.513   0.215   2.289 -0.2502  0.0308 -0.5047
 7404TIP3    H143703   0.553   0.217   2.203 -1.0114 -1.3855 -0.9054
 7404TIP3    H243704   0.433   0.164   2.277 -0.6119  0.2410  0.9310
 7405TIP3   OH243705   6.410   0.580  16.604 -0.3833 -0.6788  0.2685
 7405TIP3    H143706   6.334   0.601  16.550  0.0873 -1.4797 -0.7206
 7405TIP3    H243707   6.424   0.486  16.589 -0.4474 -0.9991  2.0364
 7406TIP3   OH243708   1.864   3.336   3.193 -0.2098  0.1268  0.0947
 7406TIP3    H143709   1.935   3.393   3.162 -0.3205  1.2502  1.7871
 7406TIP3    H243710   1.793   3.350   3.131  1.0945 -1.1698 -1.7440
 7407TIP3   OH243711   0.486   6.015   4.576  0.2032  0.1428  0.4164
 7407TIP3    H143712   0.487   5.939   4.519 -2.0452  0.0066  0.5254
 7407TIP3    H243713   0.578   6.044   4.579  0.4082  0.0619 -3.0791
 7408TIP3   OH243714   6.050   3.616   1.238 -0.3281 -0.1815  0.2379
 7408TIP3    H143715   6.060   3.684   1.305 -0.3090 -0.0668  0.1184
 7408TIP3    H243716   5.959   3.623   1.209 -0.4955 -0.5972  0.6440
 7409TIP3   OH243717   5.346   5.796  12.067 -0.6044 -0.2819  0.3337
 7409TIP3    H143718   5.297   5.718  12.040  1.1300 -0.7222 -1.6699
 7409TIP3    H243719   5.381   5.773  12.153 -3.2646 -0.2288  1.4725
 7410TIP3   OH243720   6.169   6.191  16.475  0.5811  0.1516 -0.2098
 7410TIP3    H143721   6.133   6.213  16.389  0.9444  3.1791  0.3620
 7410TIP3    H243722   6.228   6.263  16.495  2.2230 -1.6497  1.6215
 7411TIP3   OH243723   3.202   4.584  12.401  0.2900 -0.1049  0.0166
 7411TIP3    H143724   3.222   4.559  12.311 -0.0027 -0.3276  0.0125
 7411TIP3    H243725   3.244   4.516  12.454 -1.9924 -1.6292 -0.0494
 7412TIP3   OH243726   2.016   3.581  12.463 -0.1363 -0.4402  0.4694
 7412TIP3    H143727   2.046   3.493  12.439  1.3943 -0.6492  2.9092
 7412TIP3    H243728   2.096   3.633  12.467 -0.8904  0.7419  0.3143
 7413TIP3   OH243729   6.021   5.070   1.097  0.3400  0.3976  0.2139
 7413TIP3    H143730   5.943   5.122   1.112  0.5089  0.6919  0.0764
 7413TIP3    H243731   6.020   5.003   1.166 -1.3847 -1.2084 -1.3217
 7414TIP3   OH243732   3.611   3.245  17.283 -0.0208  0.2736 -0.5397
 7414TIP3    H143733   3.666   3.183  17.333  2.3139  1.8054 -1.1166
 7414TIP3    H243734   3.568   3.297  17.350  3.2686  2.4678 -0.0088
 7415TIP3   OH243735   4.950   3.271  11.304 -0.1530 -0.0682 -0.6130
 7415TIP3    H143736   4.921   3.227  11.224  0.2518 -0.1358 -0.7263
 7415TIP3    H243737   4.999   3.347  11.274 -0.4130  0.1766 -0.4214
 7416TIP3   OH243738   0.518   1.385  11.677 -0.0597 -0.1700  0.1187
 7416TIP3    H143739   0.477   1.345  11.599  0.0142 -1.0019  0.4963
 7416TIP3    H243740   0.606   1.347  11.679 -0.1958 -0.4485  0.8235
 7417TIP3   OH243741   0.072   0.584  13.607  0.4989 -0.1859  0.4009
 7417TIP3    H143742   0.152   0.578  13.555 -0.2856 -3.7186 -0.4704
 7417TIP3    H243743   0.020   0.651  13.563  2.4578  1.3766  0.3551
 7418TIP3   OH243744   4.242   5.548  10.933 -0.5895 -0.1083  0.0755
 7418TIP3    H143745   4.231   5.617  10.868 -1.6675 -0.1022  0.2551
 7418TIP3    H243746   4.178   5.482  10.909  0.6801 -1.2194 -0.3055
 7419TIP3   OH243747   0.061   6.287  15.985  0.0525 -0.2775 -0.5744
 7419TIP3    H143748   0.028   6.230  16.054  0.5112 -1.3801 -1.2577
 7419TIP3    H243749   0.029   6.374  16.009 -1.4921 -0.9634 -0.0538
 7420TIP3   OH243750   6.012   0.948  16.906 -0.5233  0.2589  0.4340
 7420TIP3    H143751   5.934   0.972  16.956 -0.7557  0.0941  0.1466
 7420TIP3    H243752   6.083   0.994  16.951 -0.3894 -1.6932  2.3027
 7421TIP3   OH243753   3.747   0.406  15.778 -0.3617  0.3196 -0.1937
 7421TIP3    H143754   3.842   0.394  15.770 -0.4658  0.4929 -1.8942
 7421TIP3    H243755   3.735   0.448  15.863  1.0710  0.0443  0.1531
 7422TIP3   OH243756   6.570   5.383  17.132  0.4648  0.3398 -0.3075
 7422TIP3    H143757   6.572   5.478  17.116  0.7809  0.5304  0.7949
 7422TIP3    H243758   6.656   5.364  17.168  1.0498 -0.6911 -2.1797
 7423TIP3   OH243759   0.512   1.626  14.906 -0.2044  0.3783 -0.0649
 7423TIP3    H143760   0.533   1.707  14.860 -1.3376 -1.2628 -3.6363
 7423TIP3    H243761   0.582   1.565  14.881 -0.9430 -0.5950  0.2216
 7424TIP3   OH243762   0.277   4.710  16.333  0.0473 -0.3731  0.5492
 7424TIP3    H143763   0.293   4.621  16.302 -1.8376 -0.4587 -0.2595
 7424TIP3    H243764   0.328   4.766  16.274 -0.7636 -0.7660 -0.5400
 7425TIP3   OH243765   3.108   5.965  15.022 -0.1060 -0.5159 -0.1346
 7425TIP3    H143766   3.039   5.899  15.029  0.1703 -0.8704 -0.7453
 7425TIP3    H243767   3.119   5.998  15.112 -2.0310  0.5297 -0.2697
 7426TIP3   OH243768   4.504   1.369   1.284 -0.2905  0.0016 -0.1524
 7426TIP3    H143769   4.487   1.458   1.315 -0.7551  0.4643 -1.6803
 7426TIP3    H243770   4.451   1.361   1.205  1.9801 -0.6385 -1.6466
 7427TIP3   OH243771   6.611   3.053  14.059 -0.0637 -0.3041 -0.4403
 7427TIP3    H143772   6.584   3.096  14.140 -2.0162 -2.7638  0.2470
 7427TIP3    H243773   6.704   3.032  14.073 -0.9353 -2.7510  2.1253
 7428TIP3   OH243774   2.416   5.274   1.488  0.2351 -0.2828  0.4970
 7428TIP3    H143775   2.465   5.245   1.565  1.3311 -1.1756 -0.5247
 7428TIP3    H243776   2.327   5.290   1.521  1.0183  0.6364  2.2137
 7429TIP3   OH243777   2.386   4.472  15.859 -0.1772 -0.2112 -0.5649
 7429TIP3    H143778   2.330   4.542  15.824 -0.8836  0.5086  1.9606
 7429TIP3    H243779   2.418   4.506  15.942  1.8587 -1.7401 -0.6858
 7430TIP3   OH243780   0.720   5.360  17.198  0.3323  0.2623  0.4098
 7430TIP3    H143781   0.713   5.422  17.271 -1.4662  2.3177 -1.4406
 7430TIP3    H243782   0.635   5.364  17.154  1.0935 -1.5606 -1.3204
 7431TIP3   OH243783   1.561   5.219   4.012  0.3264 -0.5686 -0.3199
 7431TIP3    H143784   1.490   5.229   3.949  1.3765  1.5284 -1.2193
 7431TIP3    H243785   1.587   5.127   4.006 -0.0541 -0.5508 -2.4418
 7432TIP3   OH243786   4.018   2.298   4.000 -0.3056  0.1152 -0.1142
 7432TIP3    H143787   4.068   2.339   3.930  2.4783  0.1263  1.7997
 7432TIP3    H243788   3.977   2.372   4.046  2.8120  0.6893  1.9049
 7433TIP3   OH243789   3.666   6.230  17.270  0.6120 -0.2141 -0.1596
 7433TIP3    H143790   3.612   6.170  17.321 -0.2038 -0.5705 -1.4300
 7433TIP3    H243791   3.695   6.178  17.195  1.7025  0.3390 -0.1232
 7434TIP3   OH243792   0.631   0.564  16.791 -0.2800 -0.1176  0.1755
 7434TIP3    H143793   0.611   0.567  16.698 -0.5574 -1.4741  0.1836
 7434TIP3    H243794   0.725   0.580  16.797 -0.7082  2.8073 -0.1195
 7435TIP3   OH243795   5.619   1.458   5.278  0.0342 -0.0889 -0.2986
 7435TIP3    H143796   5.569   1.534   5.247  1.4137  1.3361  0.8768
 7435TIP3    H243797   5.578   1.436   5.362 -1.3276 -1.6319 -1.3237
 7436TIP3   OH243798   5.438   2.546   4.825 -0.1865  0.4705  0.7822
 7436TIP3    H143799   5.464   2.499   4.746  0.2526 -0.7275  1.6366
 7436TIP3    H243800   5.501   2.619   4.832 -1.9215  2.2623 -1.4904
 7437TIP3   OH243801   3.830   5.783  15.143 -0.1920  0.1977  0.2933
 7437TIP3    H143802   3.898   5.726  15.180 -0.0453  1.4711  2.0634
 7437TIP3    H243803   3.878   5.848  15.092 -0.2705 -0.4795 -0.6486
 7438TIP3   OH243804   3.993   5.791   0.231 -0.5753  0.3292  0.2125
 7438TIP3    H143805   3.927   5.816   0.295 -2.2693 -0.2522 -1.2593
 7438TIP3    H243806   4.022   5.874   0.193  0.4830  0.6811  1.7404
 7439TIP3   OH243807   5.758   5.248  15.653 -0.0103  0.2296 -0.5221
 7439TIP3    H143808   5.779   5.179  15.716 -0.0138  0.3340 -0.4088
 7439TIP3    H243809   5.835   5.251  15.596  0.6625  1.2042  0.4188
 7440TIP3   OH243810   6.598   1.343   2.932 -0.1820 -0.3471 -0.5739
 7440TIP3    H143811   6.566   1.256   2.909 -1.6438 -0.0039  0.0780
 7440TIP3    H243812   6.648   1.373   2.856 -1.4464 -0.8949 -1.6165
 7441TIP3   OH243813   3.669   6.523   3.754 -0.1567 -0.2562  0.4502
 7441TIP3    H143814   3.675   6.440   3.801 -0.7292 -0.0944  0.8184
 7441TIP3    H243815   3.576   6.546   3.757  0.0573  0.6023  0.7178
 7442TIP3   OH243816   4.358   3.086  15.300  0.0699 -0.1610 -0.0126
 7442TIP3    H143817   4.411   3.068  15.378  0.9095  0.2730 -0.4712
 7442TIP3    H243818   4.268   3.089  15.332  0.4443  0.4237  1.0145
 7443TIP3   OH243819   4.184   6.785   5.711 -0.1224 -0.5742  0.1984
 7443TIP3    H143820   4.152   6.816   5.796 -2.3219 -0.8498 -0.4759
 7443TIP3    H243821   4.151   6.695   5.705 -0.8041 -0.2479 -1.3150
 7444TIP3   OH243822   0.474   3.961   2.845  0.0818  0.5037 -0.1915
 7444TIP3    H143823   0.545   3.952   2.909  0.1645 -1.7018 -0.5366
 7444TIP3    H243824   0.507   4.025   2.782  1.1375  0.6626  0.4998
 7445TIP3   OH243825   1.291   4.177   2.645  0.1946 -0.4863 -0.4688
 7445TIP3    H143826   1.334   4.248   2.598  1.1575  0.6702  2.0508
 7445TIP3    H243827   1.270   4.214   2.731 -2.3057 -2.2361 -0.2434
 7446TIP3   OH243828   1.855   6.035   0.085  0.6102 -0.6224 -1.2273
 7446TIP3    H143829   1.795   6.004   0.153  1.3111 -0.0292 -0.3298
 7446TIP3    H243830   1.916   5.962   0.072  0.4020 -0.7819 -1.3126
 7447TIP3   OH243831   2.336   0.983   4.270  0.2523 -0.3056  0.4568
 7447TIP3    H143832   2.423   0.954   4.240  0.8563  1.4602  0.4520
 7447TIP3    H243833   2.327   0.944   4.357  1.0028 -0.5863  0.4167
 7448TIP3   OH243834   6.799   2.558   5.097 -0.1667  0.2809  0.2248
 7448TIP3    H143835   6.792   2.512   5.014 -1.7614  0.0729  0.4661
 7448TIP3    H243836   6.800   2.489   5.163 -0.0188  0.4902  0.4434
 7449TIP3   OH243837   4.056   3.413   6.206  0.3220 -0.0045 -0.6399
 7449TIP3    H143838   4.090   3.498   6.234  0.7328 -0.0098 -1.1073
 7449TIP3    H243839   3.965   3.430   6.183 -0.0299 -0.0117  0.7173
 7450TIP3   OH243840   2.126   3.550  15.513  0.1190  0.5102 -0.0859
 7450TIP3    H143841   2.218   3.528  15.503 -0.4139 -1.3274 -1.2719
 7450TIP3    H243842   2.103   3.518  15.600  0.7854  1.6971  0.5322
 7451TIP3   OH243843   0.137   1.698   3.435  0.6597 -0.0729 -0.0852
 7451TIP3    H143844   0.061   1.739   3.474  0.8496  0.7029 -0.5361
 7451TIP3    H243845   0.181   1.655   3.509  0.1298  0.0046  0.2779
 7452TIP3   OH243846   4.021   0.898  15.598 -0.1999  0.0876  0.0200
 7452TIP3    H143847   4.034   0.820  15.653 -3.9626 -0.8742 -0.2756
 7452TIP3    H243848   4.023   0.971  15.660  1.8505 -0.3802  0.5306
 7453TIP3   OH243849   1.077   0.285   6.625 -0.0263 -0.0565 -0.4260
 7453TIP3    H143850   1.050   0.233   6.701  1.2156 -0.2543 -0.1116
 7453TIP3    H243851   1.123   0.223   6.569 -1.2412  0.0090 -1.5209
 7454TIP3   OH243852   6.072   6.554   5.869  0.1526  0.2640 -0.7023
 7454TIP3    H143853   6.111   6.526   5.786  1.9468 -0.5348  0.3595
 7454TIP3    H243854   6.100   6.487   5.932  1.2315  2.3418  1.1132
 7455TIP3   OH243855   3.091   4.489   1.944 -0.6961 -0.1263  0.2830
 7455TIP3    H143856   3.001   4.458   1.949 -0.6199 -0.6534 -1.3005
 7455TIP3    H243857   3.113   4.513   2.034 -1.8222 -1.6623  1.0022
 7456TIP3   OH243858   4.977   3.585   6.260 -0.0770 -0.2075  0.7498
 7456TIP3    H143859   4.886   3.567   6.284 -0.3051 -0.9978 -0.6147
 7456TIP3    H243860   5.029   3.541   6.328 -0.6936 -2.6018 -0.2707
 7457TIP3   OH243861   2.405   2.356  13.306  0.5236  0.2839  0.1542
 7457TIP3    H143862   2.330   2.298  13.321  0.1144  0.7833  0.0771
 7457TIP3    H243863   2.365   2.441  13.287  1.1213  0.6137  0.3716
 7458TIP3   OH243864   2.710   5.871   1.772 -0.3611 -0.8093  0.3645
 7458TIP3    H143865   2.626   5.834   1.796 -1.0119  0.5197  0.1834
 7458TIP3    H243866   2.738   5.922   1.849 -0.0278 -0.7409  0.2014
 7459TIP3   OH243867   1.847   0.133   3.816  0.1348  0.4219 -0.3915
 7459TIP3    H143868   1.903   0.201   3.855 -0.2327  0.0124  0.8811
 7459TIP3    H243869   1.794   0.180   3.752 -2.3696  1.9869  2.6860
 7460TIP3   OH243870   6.331   5.895   5.296  0.2907  0.4107 -0.1194
 7460TIP3    H143871   6.411   5.911   5.346 -1.1752  1.2510  2.0201
 7460TIP3    H243872   6.347   5.812   5.251  2.2974  0.5073  0.3642
 7461TIP3   OH243873   2.424   0.578  17.158  0.6258  0.0903  0.4803
 7461TIP3    H143874   2.427   0.670  17.131  1.9493  0.0913  0.5932
 7461TIP3    H243875   2.488   0.573  17.229 -0.2217 -0.6938  1.2038
 7462TIP3   OH243876   2.496   4.618  12.795  0.5336 -0.6198  0.0117
 7462TIP3    H143877   2.463   4.532  12.768  0.1002 -0.2288 -0.7296
 7462TIP3    H243878   2.418   4.669  12.816  0.6519  0.2152 -1.4622
 7463TIP3   OH243879   1.059   5.205  10.852 -0.5017  0.2096 -0.2881
 7463TIP3    H143880   1.118   5.183  10.924  0.0167  0.5722 -0.5989
 7463TIP3    H243881   1.050   5.300  10.856 -0.7504  0.1970 -0.4879
 7464TIP3   OH243882   4.729   2.571   5.887 -0.0636  0.0908 -0.6875
 7464TIP3    H143883   4.727   2.558   5.793 -1.1262 -1.6233 -0.4393
 7464TIP3    H243884   4.638   2.586   5.912 -0.0119 -1.1725  0.3010
 7465TIP3   OH243885   4.717   5.693   1.321  0.0286  0.1403 -0.6590
 7465TIP3    H143886   4.809   5.690   1.297  0.1034 -0.8667 -0.2707
 7465TIP3    H243887   4.671   5.715   1.240  0.4578 -1.1356 -1.2601
 7466TIP3   OH243888   6.315   4.067  13.477 -0.0200 -0.5979 -0.2942
 7466TIP3    H143889   6.279   4.049  13.390  1.4788 -0.4022 -0.9720
 7466TIP3    H243890   6.350   4.156  13.471  0.6617 -0.8150  0.3175
 7467TIP3   OH243891   3.435   0.408   2.445 -0.1369 -0.2373 -0.2415
 7467TIP3    H143892   3.526   0.436   2.432 -0.4061  0.5147 -0.5134
 7467TIP3    H243893   3.433   0.317   2.414  1.0605 -1.0307  1.8832
 7468TIP3   OH243894   0.885   5.116   2.274  0.2284 -0.0160 -0.4926
 7468TIP3    H143895   0.902   5.153   2.361  0.1694  0.3740 -0.6440
 7468TIP3    H243896   0.971   5.089   2.242  0.0823 -1.2910  0.1954
 7469TIP3   OH243897   0.818   2.585   2.416 -0.1408  0.1702  0.0712
 7469TIP3    H143898   0.830   2.603   2.509 -0.3377  1.5613 -0.1504
 7469TIP3    H243899   0.843   2.494   2.405 -1.3047 -0.3731  1.7151
 7470TIP3   OH243900   5.933   3.161   2.193  0.3510 -0.0310  0.1175
 7470TIP3    H143901   5.927   3.171   2.288  0.5900  2.2978 -0.0781
 7470TIP3    H243902   5.954   3.069   2.179  0.0164 -0.4488  2.3092
 7471TIP3   OH243903   0.099   0.112   2.522 -0.1547  0.1315  0.4153
 7471TIP3    H143904   0.107   0.067   2.607 -1.8128 -0.0510  0.4929
 7471TIP3    H243905   0.007   0.137   2.517 -0.2596 -0.6080 -1.7128
 7472TIP3   OH243906   1.663   2.261  11.387  0.1919 -0.0188  0.3694
 7472TIP3    H143907   1.609   2.330  11.426 -0.1896  0.0925 -0.3515
 7472TIP3    H243908   1.641   2.263  11.294 -0.3089 -1.5494  0.4428
 7473TIP3   OH243909   2.978   1.159  12.408  0.0969 -0.3428  0.7832
 7473TIP3    H143910   2.912   1.199  12.465 -1.5765 -1.2394 -0.4908
 7473TIP3    H243911   2.951   1.182  12.319  2.1373  0.2040  0.2582
 7474TIP3   OH243912   6.393   4.993   3.016 -0.3559  0.1211  0.2537
 7474TIP3    H143913   6.432   4.944   2.944 -1.5229  2.6090 -2.1400
 7474TIP3    H243914   6.465   5.008   3.077  0.8473 -1.2354 -0.7964
 7475TIP3   OH243915   0.230   0.938   6.577  0.0308  0.5037  0.7655
 7475TIP3    H143916   0.295   0.964   6.643  0.3411 -0.1128  0.7062
 7475TIP3    H243917   0.160   1.002   6.586  0.7451  1.3057  0.6819
 7476TIP3   OH243918   6.736   3.020   3.987 -0.1195 -0.0464 -0.2157
 7476TIP3    H143919   6.821   2.984   3.963 -0.2812 -0.2466 -0.4974
 7476TIP3    H243920   6.673   2.960   3.947 -0.3913 -0.2324  0.4916
 7477TIP3   OH243921   4.788   5.613   0.983 -0.7430  0.8236  0.4124
 7477TIP3    H143922   4.729   5.685   1.007 -0.2010  1.5400 -0.3793
 7477TIP3    H243923   4.862   5.657   0.940 -0.7532 -0.2758 -0.7359
 7478TIP3   OH243924   0.774   6.491  13.023  0.3909  0.1888 -0.2481
 7478TIP3    H143925   0.827   6.564  13.057  1.4588 -0.7425  0.1002
 7478TIP3    H243926   0.838   6.426  12.994 -0.5581 -0.5211 -0.7747
 7479TIP3   OH243927   3.450   4.351  14.492  0.6140  0.8092  0.3195
 7479TIP3    H143928   3.495   4.358  14.408  0.0380 -0.5664 -0.1213
 7479TIP3    H243929   3.472   4.264  14.525 -1.7626  0.0514  0.0369
 7480TIP3   OH243930   5.597   6.430   0.086  0.0229 -0.9937  0.0294
 7480TIP3    H143931   5.552   6.508   0.119  0.1053 -0.0742 -1.9665
 7480TIP3    H243932   5.690   6.450   0.098  0.0040 -1.4177  0.9003
 7481TIP3   OH243933   1.803   1.569   6.005 -0.0998  1.0298 -0.3178
 7481TIP3    H143934   1.769   1.484   6.032  1.0755  0.5665 -0.2631
 7481TIP3    H243935   1.765   1.631   6.068 -1.3864  0.6227 -0.6870
 7482TIP3   OH243936   0.490   6.081   5.133 -0.6722 -0.0583 -0.0202
 7482TIP3    H143937   0.495   6.053   5.224 -2.5678  1.1267  0.4848
 7482TIP3    H243938   0.454   6.006   5.086 -0.1981 -0.4888  0.3093
 7483TIP3   OH243939   6.694   5.735  13.890 -0.1858 -0.1196 -0.4597
 7483TIP3    H143940   6.628   5.791  13.931  0.6272  0.0360  0.6518
 7483TIP3    H243941   6.696   5.764  13.798 -1.5816 -0.0603 -0.4843
 7484TIP3   OH243942   3.014   6.642   5.899  0.1996  0.0728  0.2851
 7484TIP3    H143943   3.080   6.573   5.902  0.9212  0.7701  0.6545
 7484TIP3    H243944   3.022   6.686   5.984  0.3027  1.1269 -0.2646
 7485TIP3   OH243945   2.030   3.108   4.978  0.2105  0.3832  0.7663
 7485TIP3    H143946   2.071   3.188   4.946  0.6153 -0.1349 -0.0075
 7485TIP3    H243947   2.073   3.037   4.930 -0.9537 -0.2271  0.6016
 7486TIP3   OH243948   4.819   4.306  16.927  0.0758 -0.1507  0.2157
 7486TIP3    H143949   4.861   4.284  16.843 -0.6416 -0.1237 -0.1518
 7486TIP3    H243950   4.736   4.346  16.902 -0.7674 -1.4023  0.9504
 7487TIP3   OH243951   6.553   2.347   5.871 -0.0764  0.2187 -0.0143
 7487TIP3    H143952   6.604   2.423   5.901 -0.1323  0.2952 -0.1110
 7487TIP3    H243953   6.538   2.296   5.950  0.3245  0.0905 -0.0196
 7488TIP3   OH243954   2.658   4.553  15.076 -0.1391  0.0699  0.3535
 7488TIP3    H143955   2.691   4.628  15.025  1.8294  0.7802  2.5868
 7488TIP3    H243956   2.675   4.576  15.167 -0.8350 -2.5028  1.1848
 7489TIP3   OH243957   0.952   0.868  12.935 -0.5770  0.2725 -0.4525
 7489TIP3    H143958   0.987   0.922  13.006 -0.6706  0.8339 -0.8350
 7489TIP3    H243959   1.002   0.893  12.858 -0.3627 -0.4559 -0.5588
 7490TIP3   OH243960   2.356   2.542  12.955  0.3189  0.8351 -0.1354
 7490TIP3    H143961   2.437   2.492  12.963 -0.9756 -1.0700  1.4777
 7490TIP3    H243962   2.314   2.534  13.040 -1.2997  2.2928 -0.7596
 7491TIP3   OH243963   1.725   2.586  17.233 -0.2490  0.0905  0.5780
 7491TIP3    H143964   1.674   2.540  17.300  0.0902  0.9636  1.4405
 7491TIP3    H243965   1.789   2.637  17.283  1.9759 -1.5631 -0.4798
 7492TIP3   OH243966   0.023   0.838  10.328  0.1007 -0.4921  0.2907
 7492TIP3    H143967  -0.064   0.847  10.366 -0.3139  0.4332 -0.8319
 7492TIP3    H243968   0.018   0.758  10.274 -0.6029  0.4960 -1.1516
 7493TIP3   OH243969   4.772   4.138   3.214 -0.1547  0.1707 -0.3688
 7493TIP3    H143970   4.777   4.233   3.222  0.1251  0.0310  1.3884
 7493TIP3    H243971   4.730   4.123   3.129 -0.0548  1.8521 -0.7327
 7494TIP3   OH243972   5.646   5.765   3.135 -0.3349  0.3308 -0.3086
 7494TIP3    H143973   5.593   5.698   3.091  0.8328 -1.2751  0.6767
 7494TIP3    H243974   5.587   5.839   3.145 -1.3304 -0.1221 -2.4449
 7495TIP3   OH243975   5.693   2.684   3.400  0.0548  0.2146 -0.9234
 7495TIP3    H143976   5.714   2.692   3.493  0.3135  2.5649 -1.1760
 7495TIP3    H243977   5.682   2.589   3.387 -0.8547 -0.0817  1.6599
 7496TIP3   OH243978   0.653   1.594   6.490  0.0911 -0.6686 -0.6662
 7496TIP3    H143979   0.595   1.661   6.453 -0.3624 -0.4278  0.4543
 7496TIP3    H243980   0.624   1.512   6.449 -0.2057 -0.3681 -1.0668
 7497TIP3   OH243981   2.451   2.917  12.159  0.1245  0.1483 -0.0461
 7497TIP3    H143982   2.511   2.956  12.222 -1.0389  0.5289  0.8334
 7497TIP3    H243983   2.503   2.910  12.078  2.2096 -2.1024  1.4181
 7498TIP3   OH243984   6.261   0.009  11.129  0.3688  0.6391 -0.4237
 7498TIP3    H143985   6.330  -0.049  11.162 -0.0559  0.7873  0.7339
 7498TIP3    H243986   6.227   0.053  11.207 -2.2838 -0.7691 -0.7560
 7499TIP3   OH243987   5.715   6.270  15.386 -0.3564 -0.1057  0.4851
 7499TIP3    H143988   5.630   6.307  15.362 -0.8119  0.0053  2.1749
 7499TIP3    H243989   5.703   6.175  15.377  0.4999  0.0645 -2.8651
 7500TIP3   OH243990   1.708   2.764   2.791 -0.5028 -0.3268 -0.4568
 7500TIP3    H143991   1.650   2.714   2.848 -1.0154 -0.3166 -0.9582
 7500TIP3    H243992   1.727   2.704   2.718  1.3176 -0.8580  0.4368
 7501TIP3   OH243993   2.232   0.908   4.772  0.0091  0.5138  0.6321
 7501TIP3    H143994   2.287   0.912   4.850  0.4115  0.5464  0.3492
 7501TIP3    H243995   2.200   0.997   4.760  1.2642  0.8642 -0.1781
 7502TIP3   OH243996   2.109   5.703   3.781 -0.3519 -0.2174 -0.4342
 7502TIP3    H143997   2.187   5.723   3.833  0.0980  0.0190 -1.1938
 7502TIP3    H243998   2.143   5.663   3.701 -1.1088 -1.7238 -0.0125
 7503TIP3   OH243999   4.231   6.095  15.010  0.3955 -0.6346  0.2170
 7503TIP3    H144000   4.245   6.159  14.940 -0.8076 -0.1251  0.4239
 7503TIP3    H244001   4.312   6.097  15.060  0.0838  1.3857  0.7223
 7504TIP3   OH244002   0.168   0.103   6.210  0.1219 -0.1939  0.1731
 7504TIP3    H144003   0.229   0.161   6.256  1.6901  0.3712 -2.5218
 7504TIP3    H244004   0.173   0.020   6.259 -0.0509  1.0563  2.3920
 7505TIP3   OH244005   4.564   1.754   0.197  0.1506  0.2702  0.6576
 7505TIP3    H144006   4.485   1.792   0.157  0.5680  1.6476  1.1105
 7505TIP3    H244007   4.530   1.701   0.269 -0.4833 -0.8011 -0.3920
 7506TIP3   OH244008   5.027   4.595   3.721 -0.3564 -0.4893  0.6526
 7506TIP3    H144009   5.046   4.689   3.717 -0.0073 -0.5904 -0.1609
 7506TIP3    H244010   4.932   4.590   3.724 -0.3726 -0.1058  0.8027
 7507TIP3   OH244011   2.547   3.675   2.902 -0.4045  0.1158  0.1130
 7507TIP3    H144012   2.465   3.691   2.949  0.4346 -1.2725  2.1020
 7507TIP3    H244013   2.535   3.589   2.861 -0.2760  0.2980 -0.3071
 7508TIP3   OH244014   6.391   3.573  13.334 -0.0138 -0.4480  0.2218
 7508TIP3    H144015   6.440   3.596  13.255 -1.5063 -2.4127 -1.3353
 7508TIP3    H244016   6.454   3.526  13.389  0.3501 -1.4132 -0.9950
 7509TIP3   OH244017   3.244   5.196  14.486  0.2791  0.5445  0.0059
 7509TIP3    H144018   3.285   5.256  14.548  1.0552  0.0740 -0.0442
 7509TIP3    H244019   3.197   5.253  14.425  0.9291  1.0964  0.0143
 7510TIP3   OH244020   1.685   4.532  12.685 -0.1873  0.2794  0.5800
 7510TIP3    H144021   1.656   4.457  12.634  3.1359 -0.7372  0.0647
 7510TIP3    H244022   1.693   4.603  12.621  3.1625 -0.7708 -0.2627
 7511TIP3   OH244023   5.255   3.821  13.975  0.4271 -0.5177  0.3679
 7511TIP3    H144024   5.322   3.785  14.033 -1.4724 -2.8497  1.2111
 7511TIP3    H244025   5.294   3.900  13.939  2.8855 -0.7834  2.3215
 7512TIP3   OH244026   1.695   0.843  15.842  0.2410 -0.2283 -0.0640
 7512TIP3    H144027   1.756   0.909  15.809  0.1185 -0.0607  0.0430
 7512TIP3    H244028   1.750   0.766  15.860  0.3292 -0.2758 -0.5244
 7513TIP3   OH244029   5.649   2.029   2.295  0.1057 -0.4061 -0.2384
 7513TIP3    H144030   5.607   2.115   2.293 -0.2897 -0.5891  0.1135
 7513TIP3    H244031   5.627   1.993   2.381 -0.1903 -1.0801 -0.5899
 7514TIP3   OH244032   5.854   0.122   0.010 -0.0362 -0.3436 -0.5540
 7514TIP3    H144033   5.841   0.192  -0.054  2.9938 -1.9533 -3.0480
 7514TIP3    H244034   5.872   0.167   0.092  1.4789  1.8057 -2.0324
 7515TIP3   OH244035   3.458   0.144   0.420  0.6108  0.7979 -0.6642
 7515TIP3    H144036   3.518   0.070   0.422 -0.3651  0.0216  0.9155
 7515TIP3    H244037   3.381   0.112   0.374 -0.8676 -0.0497  2.2589
 7516TIP3   OH244038   2.420   0.879  12.558  0.4779 -0.3125 -0.4701
 7516TIP3    H144039   2.427   0.833  12.474 -2.4824 -2.1101  0.1958
 7516TIP3    H244040   2.468   0.824  12.620  1.2065  0.1279 -0.6383
 7517TIP3   OH244041   4.070   3.928  15.687  0.3333  0.1273 -0.2598
 7517TIP3    H144042   4.096   4.019  15.699  1.9778 -0.6199  2.1924
 7517TIP3    H244043   4.026   3.904  15.769 -1.6234 -0.8020 -1.5411
 7518TIP3   OH244044   2.172   5.708   5.855  0.0881  0.6949 -0.5025
 7518TIP3    H144045   2.129   5.711   5.940 -1.4696  0.8528 -1.2907
 7518TIP3    H244046   2.117   5.652   5.801  1.6469 -0.2911 -1.0954
 7519TIP3   OH244047   2.852   6.306   5.538  0.0799 -0.1946  0.5573
 7519TIP3    H144048   2.909   6.245   5.489  0.7977  0.1380  0.9735
 7519TIP3    H244049   2.911   6.374   5.569 -0.6972  0.6323  0.2451
 7520TIP3   OH244050   0.156   6.283   4.679  0.0504 -0.2443 -0.4308
 7520TIP3    H144051   0.244   6.265   4.645  0.5091 -2.3629  1.7489
 7520TIP3    H244052   0.099   6.224   4.630  0.3484 -1.4336  0.6463
 7521TIP3   OH244053   6.587   3.938  15.239  0.2654 -0.1858  0.1376
 7521TIP3    H144054   6.538   3.993  15.178  0.8913  0.0171 -0.1940
 7521TIP3    H244055   6.663   3.909  15.189  1.7685  1.4767  1.3366
 7522TIP3   OH244056   3.942   0.810   1.842  0.1323 -0.5593  0.6302
 7522TIP3    H144057   3.914   0.720   1.826  0.7879 -0.9476  1.6277
 7522TIP3    H244058   3.860   0.859   1.853 -0.2098 -1.1507  0.7184
 7523TIP3   OH244059   4.112   5.313  11.297 -0.0601  0.0340  0.3199
 7523TIP3    H144060   4.064   5.236  11.267 -0.8347 -1.0173  3.9812
 7523TIP3    H244061   4.055   5.387  11.277 -0.8884 -0.6869 -0.0095
 7524TIP3   OH244062   3.393   1.808   5.109  0.3961 -0.2607 -0.8059
 7524TIP3    H144063   3.487   1.820   5.099  0.5116 -1.0818 -0.7628
 7524TIP3    H244064   3.366   1.877   5.169  0.8883  0.2834 -1.2066
 7525TIP3   OH244065   1.788   1.042  10.670  0.0763 -0.0982  0.0458
 7525TIP3    H144066   1.801   0.947  10.673 -0.4575 -0.1554  0.5126
 7525TIP3    H244067   1.826   1.068  10.587  2.2655 -0.4254  0.9049
 7526TIP3   OH244068   0.214   6.013  15.045  0.9603  0.8745 -0.1407
 7526TIP3    H144069   0.201   5.932  14.996 -0.6771 -0.2465  2.0433
 7526TIP3    H244070   0.282   5.991  15.109  1.3235  1.5737 -0.2861
 7527TIP3   OH244071   0.682   1.407   0.842 -0.3888 -0.2553  0.1699
 7527TIP3    H144072   0.753   1.398   0.778 -0.8442  1.3400 -0.5706
 7527TIP3    H244073   0.727   1.416   0.926  0.2802  0.6261 -0.2782
 7528TIP3   OH244074   5.063   1.767  13.192  0.2010  0.2126 -0.0416
 7528TIP3    H144075   5.103   1.746  13.107  0.1560  1.3339 -0.3427
 7528TIP3    H244076   5.010   1.845  13.176 -1.2136 -0.5916  0.6280
 7529TIP3   OH244077   2.967   3.722   0.533 -0.2059  0.0286 -0.6131
 7529TIP3    H144078   2.880   3.753   0.559 -0.0139 -0.5250  0.7182
 7529TIP3    H244079   2.950   3.640   0.486 -0.4247 -0.0202 -0.4514
 7530TIP3   OH244080   5.567   0.478  15.690 -0.3987 -0.3665  0.8462
 7530TIP3    H144081   5.527   0.549  15.740 -0.9032 -1.3234  1.8238
 7530TIP3    H244082   5.566   0.403  15.750 -0.1793 -1.2870 -0.2847
 7531TIP3   OH244083   1.382   5.566   3.815 -0.0905 -0.0684  0.3288
 7531TIP3    H144084   1.294   5.566   3.778 -0.1536 -1.4483  0.4517
 7531TIP3    H244085   1.388   5.484   3.864  1.6621 -0.5701 -0.6732
 7532TIP3   OH244086   4.048   0.242   5.399  0.6660 -0.7177  0.5458
 7532TIP3    H144087   4.106   0.318   5.402  0.1083 -0.3021  0.9808
 7532TIP3    H244088   3.969   0.270   5.447  0.6505 -1.7287  1.1276
 7533TIP3   OH244089   0.926   6.316  12.852  0.0994 -0.3186 -0.1917
 7533TIP3    H144090   0.836   6.301  12.825  0.4396  0.4541 -1.8113
 7533TIP3    H244091   0.957   6.230  12.879 -0.2086 -1.1986 -2.4704
 7534TIP3   OH244092   5.377   2.885  14.518 -0.8048  0.3793  0.1047
 7534TIP3    H144093   5.413   2.967  14.551 -0.9124 -0.1616  1.6272
 7534TIP3    H244094   5.310   2.911  14.455 -1.2648  1.4801  1.0415
 7535TIP3   OH244095   4.334   5.380   0.251  0.1675 -0.3477 -0.5667
 7535TIP3    H144096   4.329   5.475   0.257  0.1185 -0.3795 -0.0776
 7535TIP3    H244097   4.278   5.357   0.176 -1.7236 -0.1743  0.7625
 7536TIP3   OH244098   0.149   5.941  15.411 -0.4698 -0.3293  0.1497
 7536TIP3    H144099   0.207   5.882  15.459  2.5681  1.7102 -0.8739
 7536TIP3    H244100   0.187   5.947  15.324 -1.7331  1.6950 -0.3102
 7537TIP3   OH244101   0.746   5.717   4.713  0.0968 -0.3183  0.7377
 7537TIP3    H144102   0.687   5.740   4.784 -1.1681 -2.3763  0.4031
 7537TIP3    H244103   0.697   5.739   4.633  1.0391  0.8762  0.4716
 7538TIP3   OH244104   5.561   2.076   3.393  0.3468  0.1479  0.3268
 7538TIP3    H144105   5.616   2.061   3.316  1.0773 -1.0324  1.0477
 7538TIP3    H244106   5.490   2.012   3.384  0.4297  0.0136  0.6225
 7539TIP3   OH244107   0.478   4.569  15.170 -0.0604 -0.3659  0.5243
 7539TIP3    H144108   0.503   4.656  15.138  0.8470 -1.0256 -0.5677
 7539TIP3    H244109   0.439   4.586  15.256 -0.7613  1.2216 -0.0825
 7540TIP3   OH244110   3.314   2.379   4.053  0.2332  0.2799  0.0180
 7540TIP3    H144111   3.263   2.372   4.134  1.5650 -0.3043  0.8221
 7540TIP3    H244112   3.398   2.339   4.074  0.3212 -0.5933 -1.9141
 7541TIP3   OH244113   4.677   5.823   0.617  0.0397  0.6780  0.3632
 7541TIP3    H144114   4.594   5.777   0.604  0.8587 -0.8327  0.3569
 7541TIP3    H244115   4.666   5.868   0.701 -0.3346 -0.5464  0.9873
 7542TIP3   OH244116   4.650   3.818  12.585  0.0537  0.6333 -0.2243
 7542TIP3    H144117   4.648   3.875  12.662  0.4973  0.5632 -0.1614
 7542TIP3    H244118   4.593   3.745  12.609  1.3263 -0.1026  0.5941
 7543TIP3   OH244119   4.091   5.263   3.897 -0.9819 -0.3774 -0.4186
 7543TIP3    H144120   4.128   5.197   3.956 -0.4784 -0.6395 -1.0371
 7543TIP3    H244121   4.158   5.278   3.831 -0.8938  1.1086 -0.0112
 7544TIP3   OH244122   0.643   2.119   4.610 -0.6836 -0.6274 -0.0531
 7544TIP3    H144123   0.737   2.106   4.597 -0.3364  1.6806 -0.1003
 7544TIP3    H244124   0.629   2.109   4.704  0.1168  1.7364  0.3556
 7545TIP3   OH244125   2.380   5.679   2.206 -0.0352 -0.2290 -0.3950
 7545TIP3    H144126   2.304   5.623   2.223 -0.5965  0.4750 -0.5439
 7545TIP3    H244127   2.354   5.766   2.237  0.8513 -0.0586 -0.1018
 7546TIP3   OH244128   1.756   1.014   4.672  0.0213  0.5807 -0.5978
 7546TIP3    H144129   1.833   1.071   4.667  2.3050 -2.4002 -0.7220
 7546TIP3    H244130   1.738   0.991   4.581  0.2614 -0.3619 -0.4109
 7547TIP3   OH244131   1.576   6.110  12.843 -0.4768  0.2427 -0.1590
 7547TIP3    H144132   1.608   6.118  12.933  0.8792  1.2811 -0.7036
 7547TIP3    H244133   1.532   6.194  12.826 -1.5705 -0.3216 -0.1535
 7548TIP3   OH244134   0.376   0.169   5.267 -0.2050  0.0028  0.2603
 7548TIP3    H144135   0.328   0.220   5.201 -0.2965  0.2950  0.5539
 7548TIP3    H244136   0.314   0.102   5.295  0.0077 -0.4370 -0.3229
 7549TIP3   OH244137   3.063   3.636  13.847 -0.0036 -0.2423  0.2504
 7549TIP3    H144138   3.105   3.708  13.801  1.4663 -1.0658  0.2702
 7549TIP3    H244139   3.044   3.572  13.778  2.0028 -1.3811  0.7082
 7550TIP3   OH244140   2.972   4.994   0.688 -0.0599  0.2241  0.0222
 7550TIP3    H144141   2.906   5.034   0.631  0.0393 -0.7980 -0.8130
 7550TIP3    H244142   2.924   4.927   0.736  0.5184 -1.0365 -1.1316
 7551TIP3   OH244143   5.043   3.522   2.133 -0.4567 -0.3203  0.3989
 7551TIP3    H144144   5.041   3.529   2.228  1.8571 -0.2523  0.4812
 7551TIP3    H244145   5.038   3.428   2.116 -0.5966 -0.3503  0.6046
 7552TIP3   OH244146   0.365   4.412  11.451 -0.1944  0.2608  0.2471
 7552TIP3    H144147   0.433   4.353  11.482 -0.1896 -0.3575 -0.9112
 7552TIP3    H244148   0.285   4.384  11.495 -0.2317 -0.7456 -0.4516
 7553TIP3   OH244149   6.640   1.676  11.353 -0.1395  0.6602  0.1614
 7553TIP3    H144150   6.677   1.590  11.333  0.0646  1.2008 -1.8865
 7553TIP3    H244151   6.696   1.738  11.307 -3.1512  1.5285 -2.5317
 7554TIP3   OH244152   1.643   5.687  13.133 -0.1134 -0.2289 -0.1800
 7554TIP3    H144153   1.691   5.768  13.116  1.2668 -1.4707 -2.3769
 7554TIP3    H244154   1.701   5.637  13.190 -0.2559 -0.3802 -0.1694
 7555TIP3   OH244155   4.138   0.534   4.739  0.2849 -0.2695  0.3828
 7555TIP3    H144156   4.202   0.486   4.793 -0.2868 -1.0669  0.3641
 7555TIP3    H244157   4.151   0.626   4.762  3.4955 -0.0969 -1.7744
 7556TIP3   OH244158   0.122   3.597   0.120 -0.0566 -0.5684  0.2206
 7556TIP3    H144159   0.067   3.600   0.199  0.5032 -2.2554  0.6841
 7556TIP3    H244160   0.060   3.582   0.049 -0.4929  0.3228  0.3983
 7557TIP3   OH244161   2.852   0.708   4.275 -0.6613  0.1623  0.1712
 7557TIP3    H144162   2.928   0.692   4.330 -1.7359 -1.6166  1.1860
 7557TIP3    H244163   2.784   0.739   4.336 -1.1504  0.4816 -0.5195
 7558TIP3   OH244164   5.270   0.037   0.823 -0.3405 -0.5479 -0.2202
 7558TIP3    H144165   5.211  -0.037   0.835  0.2194 -0.7372  1.5367
 7558TIP3    H244166   5.257   0.091   0.900 -2.1063  2.1988 -2.3660
 7559TIP3   OH244167   0.033   2.750   1.464  0.3689 -0.3584  0.7531
 7559TIP3    H144168  -0.003   2.727   1.549  0.1916  1.4555  1.1767
 7559TIP3    H244169   0.013   2.843   1.453  2.3172 -0.0285 -0.3006
 7560TIP3   OH244170   4.062   3.293  11.908  0.2810 -0.0285 -0.0456
 7560TIP3    H144171   4.034   3.298  11.817  0.6172 -0.8570 -0.2034
 7560TIP3    H244172   3.998   3.346  11.956 -0.2409 -0.0745 -0.6836
 7561TIP3   OH244173   2.199   4.458   1.433  0.4252  0.2931 -0.3466
 7561TIP3    H144174   2.242   4.373   1.435  0.3081  0.2052 -1.1803
 7561TIP3    H244175   2.150   4.458   1.350 -0.2391  0.8401  0.0401
 7562TIP3   OH244176   2.339   2.373  14.766 -0.5908 -0.1106  0.2163
 7562TIP3    H144177   2.355   2.467  14.770  0.0426 -0.1752 -0.5861
 7562TIP3    H244178   2.353   2.350  14.674  0.1764 -1.1382  0.5774
 7563TIP3   OH244179   6.409   0.235  15.568 -0.4721 -0.3608 -0.0705
 7563TIP3    H144180   6.379   0.152  15.531 -0.9299 -0.1548 -0.1634
 7563TIP3    H244181   6.501   0.239  15.545 -0.6031 -0.5375 -0.6315
 7564TIP3   OH244182   2.169   1.638  15.852  0.8350  0.2805  0.2677
 7564TIP3    H144183   2.130   1.689  15.922  1.5390  1.9523 -0.5432
 7564TIP3    H244184   2.131   1.550  15.862 -1.0650  1.1783  1.1118
 7565TIP3   OH244185   0.983   3.239   3.505  0.2891  0.4743  0.2488
 7565TIP3    H144186   1.054   3.224   3.443  0.6675  2.2113  0.2257
 7565TIP3    H244187   0.936   3.314   3.469 -0.1176  0.8414  1.5240
 7566TIP3   OH244188   4.651   6.651   0.622  0.6844 -0.4021 -0.3978
 7566TIP3    H144189   4.574   6.598   0.640  1.1238 -0.9662 -0.1735
 7566TIP3    H244190   4.664   6.703   0.702 -0.8456  1.4383 -1.2964
 7567TIP3   OH244191   5.314   3.263  13.789 -0.2054 -0.4846 -0.0429
 7567TIP3    H144192   5.347   3.352  13.794  2.1249 -1.3195 -0.2191
 7567TIP3    H244193   5.223   3.273  13.761  0.5941  1.7415 -1.9773
 7568TIP3   OH244194   0.085   3.958   2.536 -0.0111  0.1964  0.7302
 7568TIP3    H144195   0.020   3.890   2.549  0.2463  0.1745  2.0167
 7568TIP3    H244196   0.136   3.929   2.461 -0.1046 -0.8739  1.0718
 7569TIP3   OH244197   2.017   0.022   3.136  0.0885 -0.1110 -0.3501
 7569TIP3    H144198   1.946   0.023   3.199 -0.1606 -3.2871 -0.4953
 7569TIP3    H244199   2.097   0.015   3.189 -0.0309 -1.2700 -0.3036
 7570TIP3   OH244200   4.931   4.174   1.638  0.3308 -0.2340 -0.9786
 7570TIP3    H144201   4.902   4.120   1.712 -0.2064  0.0395 -0.9857
 7570TIP3    H244202   5.025   4.156   1.631  0.3681 -0.3293 -0.2872
 7571TIP3   OH244203   4.405   3.805   5.189 -0.6653  0.2589  0.1889
 7571TIP3    H144204   4.329   3.858   5.212  0.4612  2.1938 -0.3965
 7571TIP3    H244205   4.385   3.718   5.223 -3.1209  0.7278  0.0659
 7572TIP3   OH244206   3.248   6.164  16.038  0.0380 -0.2720 -0.0533
 7572TIP3    H144207   3.179   6.145  15.974 -0.9769  2.3510  0.2087
 7572TIP3    H244208   3.243   6.093  16.101 -0.7763 -1.4212 -1.3766
 7573TIP3   OH244209   4.412   3.836  12.145 -0.1736  0.4031  0.1490
 7573TIP3    H144210   4.501   3.835  12.181  0.1109 -0.9693 -0.5439
 7573TIP3    H244211   4.359   3.795  12.213  0.0030 -0.2253 -0.0825
 7574TIP3   OH244212   4.108   3.660   5.923  0.7217  0.0552 -0.5926
 7574TIP3    H144213   4.056   3.713   5.983  0.2911 -1.7206  0.6480
 7574TIP3    H244214   4.185   3.635   5.975  1.4842  0.4291 -1.5382
 7575TIP3   OH244215   0.837   1.124  16.410  0.1200 -0.1074 -0.6353
 7575TIP3    H144216   0.750   1.109  16.446 -1.0255  3.3045 -1.8074
 7575TIP3    H244217   0.877   1.188  16.469  0.5393  0.8963 -1.9861
 7576TIP3   OH244218   4.778   4.770  15.388 -0.2429 -0.3387 -0.1350
 7576TIP3    H144219   4.868   4.800  15.399  0.6702 -3.5243  1.8405
 7576TIP3    H244220   4.736   4.787  15.473 -1.3589  0.5803 -0.8495
 7577TIP3   OH244221   0.552   0.057  14.469  0.2111 -0.0547 -0.6440
 7577TIP3    H144222   0.601   0.130  14.431  2.4657 -1.3279 -0.2868
 7577TIP3    H244223   0.483   0.099  14.520  0.9577  1.8024 -1.1122
 7578TIP3   OH244224   3.815   2.724  11.784 -0.2212  0.2788  0.0706
 7578TIP3    H144225   3.725   2.751  11.766 -0.4471 -0.0686  0.7021
 7578TIP3    H244226   3.826   2.643  11.735 -0.6770 -0.3931  1.0614
 7579TIP3   OH244227   2.869   6.638  13.066  0.2784 -0.2153 -0.3492
 7579TIP3    H144228   2.928   6.667  12.997  1.3277 -0.4850  0.4291
 7579TIP3    H244229   2.786   6.620  13.021  1.1993 -1.2032 -1.6590
 7580TIP3   OH244230   4.696   2.036   1.951 -0.1631  0.3397 -0.1660
 7580TIP3    H144231   4.681   2.085   2.032  0.2556  0.5659 -0.2248
 7580TIP3    H244232   4.646   1.955   1.963 -0.1598  0.4016  0.2891
 7581TIP3   OH244233   1.417   3.919  12.864 -0.2089  0.2252 -0.4605
 7581TIP3    H144234   1.460   3.960  12.789  2.0659 -0.0585  0.6117
 7581TIP3    H244235   1.466   3.838  12.877 -1.9020 -0.7357  0.0736
 7582TIP3   OH244236   1.534   5.128  16.933  0.3457  0.3214 -0.5490
 7582TIP3    H144237   1.608   5.178  16.900  0.5453  0.7923  0.5976
 7582TIP3    H244238   1.533   5.049  16.880  1.0238  0.7921 -1.2768
 7583TIP3   OH244239   5.246   1.743  16.698 -0.0071 -0.1110  0.6352
 7583TIP3    H144240   5.273   1.812  16.758 -0.6308  1.4572 -0.8444
 7583TIP3    H244241   5.151   1.755  16.688  0.0136 -0.6428 -0.2834
 7584TIP3   OH244242   4.722   3.466   4.795 -0.3073  0.0864  0.0575
 7584TIP3    H144243   4.768   3.448   4.877  4.0350 -0.0592 -2.2749
 7584TIP3    H244244   4.717   3.561   4.790  1.5941  0.1770 -0.5765
 7585TIP3   OH244245   5.548   2.267   5.151  0.3293  0.5006  0.3005
 7585TIP3    H144246   5.614   2.236   5.213  1.3825  0.1964 -0.9529
 7585TIP3    H244247   5.534   2.193   5.092  1.6874  1.8215 -1.7476
 7586TIP3   OH244248   2.184   5.728  14.629  0.5955  0.9408 -0.4825
 7586TIP3    H144249   2.171   5.635  14.644  2.2252  0.7182 -0.4128
 7586TIP3    H244250   2.261   5.733  14.572  0.0613  2.2076 -1.1106
 7587TIP3   OH244251   1.612   5.314  15.299  0.4446 -0.1111 -0.0342
 7587TIP3    H144252   1.648   5.393  15.338  2.2128 -1.0891  0.3608
 7587TIP3    H244253   1.683   5.279  15.245 -0.7220 -0.7925 -1.1518
 7588TIP3   OH244254   6.096   3.998   6.106  0.1270  0.3109 -0.7117
 7588TIP3    H144255   6.003   3.976   6.100  0.4466 -1.3019  0.0842
 7588TIP3    H244256   6.131   3.976   6.020  0.2149 -1.2242 -0.2896
 7589TIP3   OH244257   2.270   3.312  16.957 -0.0033  0.8181  0.1446
 7589TIP3    H144258   2.242   3.308  17.049  0.0094  1.4554  0.1762
 7589TIP3    H244259   2.229   3.235  16.917 -0.0031  0.5337  0.6870
 7590TIP3   OH244260   1.984   0.625   0.423 -0.1622  0.4254 -0.5610
 7590TIP3    H144261   2.076   0.604   0.404 -0.2374 -0.0867 -0.3473
 7590TIP3    H244262   1.989   0.681   0.501 -0.0295  0.4247 -0.5678
 7591TIP3   OH244263   0.984   3.630  16.425 -0.2475  0.5836  0.1441
 7591TIP3    H144264   1.073   3.595  16.422  0.4200  2.3298 -1.5021
 7591TIP3    H244265   0.989   3.704  16.485 -1.5876 -1.8079  3.3689
 7592TIP3   OH244266   3.758   3.174  11.633 -0.2253  0.3698 -0.2093
 7592TIP3    H144267   3.673   3.193  11.594  0.1102  1.1416 -0.5893
 7592TIP3    H244268   3.744   3.182  11.727  0.0368  3.1807 -0.3731
 7593TIP3   OH244269   6.439   2.777  10.923 -0.7650 -0.4540 -0.3026
 7593TIP3    H144270   6.391   2.713  10.870  0.0063 -1.0397 -0.2904
 7593TIP3    H244271   6.436   2.857  10.872 -1.4119 -0.5908 -0.4929
 7594TIP3   OH244272   4.649   1.401   0.370  0.1362  0.1192  0.1315
 7594TIP3    H144273   4.743   1.417   0.358  0.1654  0.4903  0.8733
 7594TIP3    H244274   4.619   1.372   0.283  0.9278  0.0133 -0.1128
 7595TIP3   OH244275   4.717   4.197  12.318  0.3990  0.2257 -0.0174
 7595TIP3    H144276   4.641   4.239  12.358 -0.7274 -0.8224 -1.0281
 7595TIP3    H244277   4.747   4.134  12.384 -0.4654 -0.3444 -0.1603
 7596TIP3   OH244278   4.163   0.395  11.703  0.3800  0.4249 -0.3713
 7596TIP3    H144279   4.159   0.479  11.749 -0.8862  0.2078 -0.0602
 7596TIP3    H244280   4.112   0.335  11.759  0.5805 -0.3460 -1.0099
 7597TIP3   OH244281   2.636   3.004  12.323 -0.2677  0.7209 -0.5235
 7597TIP3    H144282   2.719   3.037  12.289  1.9978 -2.3803  1.6350
 7597TIP3    H244283   2.639   3.025  12.417 -0.9499 -1.1995 -0.0472
 7598TIP3   OH244284   2.072   2.041  13.932 -0.6765 -0.1537 -0.2910
 7598TIP3    H144285   2.018   2.011  14.005  0.1544 -0.8133  0.0609
 7598TIP3    H244286   2.134   2.102  13.972  1.6660 -2.6913  0.1030
 7599TIP3   OH244287   2.307   5.263  16.063 -0.6163  0.0201  0.1075
 7599TIP3    H144288   2.253   5.213  16.002  0.6193  0.2935 -1.2587
 7599TIP3    H244289   2.373   5.200  16.092  0.5649  0.6541 -1.1336
 7600TIP3   OH244290   3.349   5.380   5.464  0.1101  0.3562 -0.1063
 7600TIP3    H144291   3.348   5.293   5.504  2.9980  0.2126 -0.2301
 7600TIP3    H244292   3.400   5.369   5.384  1.8376  2.4630  0.6447
 7601TIP3   OH244293   0.620   6.380   0.610  0.4590  0.4028  0.2379
 7601TIP3    H144294   0.704   6.424   0.624  0.5152  0.2164  0.4885
 7601TIP3    H244295   0.565   6.411   0.682  0.5670 -0.1091  0.5367
 7602TIP3   OH244296   0.424   2.192   5.095 -0.5318  0.0455  0.1754
 7602TIP3    H144297   0.503   2.231   5.057 -0.4960 -1.3568 -1.2764
 7602TIP3    H244298   0.454   2.108   5.132 -0.9547  0.4771  1.5114
 7603TIP3   OH244299   2.594   1.263   1.889  0.5141  0.4149  0.1811
 7603TIP3    H144300   2.656   1.334   1.902 -1.1799  1.9343  0.0539
 7603TIP3    H244301   2.608   1.205   1.964  2.7714  0.1888 -0.3653
 7604TIP3   OH244302   1.213   1.538  11.924 -0.4548 -0.4062 -0.6627
 7604TIP3    H144303   1.290   1.512  11.874  0.8837  1.7339  0.1756
 7604TIP3    H244304   1.213   1.634  11.919 -1.9377 -0.2921  0.9870
 7605TIP3   OH244305   2.029   5.683  13.189 -0.3781  0.0850 -0.4747
 7605TIP3    H144306   1.975   5.609  13.216  0.8085 -0.6398 -0.0282
 7605TIP3    H244307   2.098   5.643  13.134 -1.1474  1.1732 -2.2789
 7606TIP3   OH244308   1.969   6.429  13.377  0.0669 -0.2001  0.2046
 7606TIP3    H144309   1.876   6.413  13.366 -0.0388  1.2443 -1.1885
 7606TIP3    H244310   1.986   6.412  13.470 -1.1437 -2.5059  0.0268
 7607TIP3   OH244311   0.763   5.580   2.403  0.0623 -0.3378  0.2906
 7607TIP3    H144312   0.723   5.610   2.321 -2.9332 -2.3670  0.9384
 7607TIP3    H244313   0.717   5.628   2.472  0.7293 -0.5771  0.9069
 7608TIP3   OH244314   5.971   1.368  14.964  0.0522 -0.4707 -0.1305
 7608TIP3    H144315   6.021   1.313  15.024  2.4097  0.8395 -0.8324
 7608TIP3    H244316   6.001   1.342  14.877  3.2667  3.6445 -0.4300
 7609TIP3   OH244317   2.208   0.222   0.478 -0.3060  0.1900 -0.2111
 7609TIP3    H144318   2.172   0.150   0.531 -1.2378  0.0909 -0.9714
 7609TIP3    H244319   2.209   0.297   0.537 -0.6388 -0.1001  0.1642
 7610TIP3   OH244320   2.005   5.215  12.444 -0.3821  0.1858 -1.0556
 7610TIP3    H144321   1.998   5.149  12.513  1.3063  0.8014 -0.2759
 7610TIP3    H244322   1.936   5.278  12.465 -0.4171 -0.0614 -0.3900
 7611TIP3   OH244323   5.936   2.301  13.368 -0.2457 -0.3471 -0.9032
 7611TIP3    H144324   6.023   2.340  13.358 -0.4310 -0.0077 -1.2409
 7611TIP3    H244325   5.876   2.375  13.358 -0.4927 -0.0642  2.2854
 7612TIP3   OH244326   6.594   2.529  14.899  0.2709  0.2583 -0.3785
 7612TIP3    H144327   6.584   2.542  14.805  0.4890  0.7854 -0.3342
 7612TIP3    H244328   6.546   2.603  14.939  1.1034  0.6568 -0.1006
 7613TIP3   OH244329   0.689   2.124  13.429 -0.0579 -0.0018  0.2680
 7613TIP3    H144330   0.764   2.181  13.447  0.4625  0.1546 -2.1613
 7613TIP3    H244331   0.614   2.183  13.430  0.0691  0.1479  1.0202
 7614TIP3   OH244332   4.527   5.457   6.176  0.3443  0.1268 -0.5638
 7614TIP3    H144333   4.552   5.512   6.102 -0.2126 -0.7432 -1.4053
 7614TIP3    H244334   4.568   5.372   6.157 -1.5574 -0.7215 -0.9406
 7615TIP3   OH244335   2.754   3.520  13.811 -0.1872 -0.2834  0.0357
 7615TIP3    H144336   2.744   3.558  13.724  1.3692  2.9990  1.2189
 7615TIP3    H244337   2.836   3.472  13.807  0.3944  0.6981 -0.0499
 7616TIP3   OH244338   0.905   3.272  12.497 -0.5058 -0.5751  0.3796
 7616TIP3    H144339   0.947   3.241  12.578 -0.8351  0.0114  0.7836
 7616TIP3    H244340   0.889   3.192  12.446 -2.8843 -1.2956  2.1436
 7617TIP3   OH244341   5.690   2.440  13.874 -0.3906  0.2750  0.0912
 7617TIP3    H144342   5.687   2.429  13.779  3.6007 -2.7623  0.1658
 7617TIP3    H244343   5.737   2.522  13.887 -0.5083  0.4489 -0.5793
 7618TIP3   OH244344   0.920   5.565  13.089  0.0834  0.3207  0.1536
 7618TIP3    H144345   0.966   5.640  13.052 -0.0258  0.4657  0.3092
 7618TIP3    H244346   0.989   5.505  13.117  0.1462 -0.6315 -1.9926
 7619TIP3   OH244347   6.613   4.887   0.106  0.0139 -0.4092  0.0074
 7619TIP3    H144348   6.569   4.949   0.049  0.6082 -1.2553 -1.4289
 7619TIP3    H244349   6.682   4.938   0.149  1.4967 -0.3353 -2.3106
 7620TIP3   OH244350   4.316   3.681   4.721 -0.6798 -0.2369 -0.2740
 7620TIP3    H144351   4.268   3.623   4.779  1.4250 -1.6473  0.1173
 7620TIP3    H244352   4.376   3.729   4.779 -0.6699  0.5341 -0.9076
 7621TIP3   OH244353   5.946   1.089   4.251  0.4509 -0.3039  0.4094
 7621TIP3    H144354   5.928   1.048   4.167 -2.8650 -1.7698  1.7498
 7621TIP3    H244355   6.033   1.058   4.275  0.9947 -0.6994 -1.9675
 7622TIP3   OH244356   6.258   0.281   2.152  0.3729 -0.1627 -0.4652
 7622TIP3    H144357   6.352   0.270   2.168  0.2022 -1.0989 -0.0401
 7622TIP3    H244358   6.226   0.329   2.228  0.5680  0.4755 -0.7833
 7623TIP3   OH244359   6.524   1.986  15.547 -0.0758  0.4714  0.2278
 7623TIP3    H144360   6.616   2.011  15.537  0.1081 -0.1770  0.2474
 7623TIP3    H244361   6.501   2.016  15.635  0.1532  0.5330  0.2689
 7624TIP3   OH244362   4.178   1.116   6.441 -0.0478  0.6621  0.4201
 7624TIP3    H144363   4.192   1.098   6.348  1.1426 -0.3185  0.7778
 7624TIP3    H244364   4.260   1.090   6.483 -0.4260  1.4834  1.6970
 7625TIP3   OH244365   1.212   0.531   1.162  0.1036  0.5468  1.0409
 7625TIP3    H144366   1.127   0.561   1.129  0.8204  0.8967 -0.5326
 7625TIP3    H244367   1.230   0.588   1.237 -0.3100  1.5403  0.3943
 7626TIP3   OH244368   2.786   6.814  14.432 -0.4413 -0.2469  0.2985
 7626TIP3    H144369   2.727   6.739  14.427  1.1609 -1.5821  0.9296
 7626TIP3    H244370   2.838   6.809  14.352 -1.7980  1.4999 -0.7394
 7627TIP3   OH244371   2.261   4.665  14.258  0.7565  0.1403 -0.2907
 7627TIP3    H144372   2.196   4.694  14.194 -0.6012 -1.0495  0.5276
 7627TIP3    H244373   2.250   4.571  14.264  0.7388  0.2408  1.8237
 7628TIP3   OH244374   6.808   1.734  12.106  0.2282  0.5114  0.1605
 7628TIP3    H144375   6.713   1.743  12.094  0.1815  0.9557  0.8247
 7628TIP3    H244376   6.822   1.640  12.116 -0.3462  0.5778  1.6765
 7629TIP3   OH244377   1.091   0.891   0.566  1.5097  0.2073  0.0027
 7629TIP3    H144378   1.118   0.801   0.547  0.9816 -0.0025  0.2450
 7629TIP3    H244379   1.105   0.938   0.483 -0.2954 -0.5862 -0.7622
 7630TIP3   OH244380   3.736   2.296   2.049  0.6126  0.0048 -0.1501
 7630TIP3    H144381   3.764   2.270   2.137 -0.9922  0.9708  0.6730
 7630TIP3    H244382   3.653   2.341   2.063  0.2674  0.0412 -2.1916
 7631TIP3   OH244383   1.336   4.772  12.914  0.3519  0.3154  0.3539
 7631TIP3    H144384   1.314   4.803  12.826  1.7023  0.8755  0.1984
 7631TIP3    H244385   1.408   4.829  12.942 -2.0009  2.1457  3.0103
 7632TIP3   OH244386   1.934   1.390  12.017 -0.1248  0.6521  0.1394
 7632TIP3    H144387   1.911   1.405  11.925  1.3227  0.7795 -0.2224
 7632TIP3    H244388   1.974   1.472  12.045 -1.1470  0.8364  1.0896
 7633TIP3   OH244389   5.270   5.388   5.533 -1.3490  0.2342  0.1574
 7633TIP3    H144390   5.284   5.293   5.538  2.6029  0.7001  0.0943
 7633TIP3    H244391   5.310   5.422   5.614  2.5424  2.2332 -2.4102
 7634TIP3   OH244392   4.280   5.343  15.299 -0.0025 -0.9226 -0.2495
 7634TIP3    H144393   4.366   5.339  15.258 -0.3561 -0.2507 -1.0899
 7634TIP3    H244394   4.297   5.341  15.393  0.9656 -0.1796 -0.4068
 7635TIP3   OH244395   6.786   3.186   2.021  0.2401 -0.2600 -0.1542
 7635TIP3    H144396   6.703   3.152   1.987  0.5847 -0.6181 -0.6378
 7635TIP3    H244397   6.788   3.278   1.993 -0.0589 -0.2153 -0.0238
 7636TIP3   OH244398   0.822   6.466   3.375  0.5247  0.3977  0.0180
 7636TIP3    H144399   0.829   6.554   3.412  2.1415  1.0178 -1.7272
 7636TIP3    H244400   0.913   6.437   3.363  0.0288 -0.4129 -1.9686
 7637TIP3   OH244401   3.957   2.556  15.025 -0.4427  0.1642  0.1944
 7637TIP3    H144402   4.025   2.561  14.958  1.3426  0.4846  1.9759
 7637TIP3    H244403   3.880   2.522  14.979  0.5767  0.8850 -2.1096
 7638TIP3   OH244404   1.741   3.147   5.474 -0.2035  0.4975  0.0839
 7638TIP3    H144405   1.770   3.229   5.515 -1.3479  0.8482  0.2037
 7638TIP3    H244406   1.782   3.078   5.526  0.5397  0.9920  0.1524
 7639TIP3   OH244407   2.188   2.372  11.765 -0.1190 -0.5388 -0.1727
 7639TIP3    H144408   2.189   2.456  11.718 -1.1490 -0.0026  0.7539
 7639TIP3    H244409   2.202   2.395  11.857  0.5123 -1.4730 -0.0218
 7640TIP3   OH244410   5.970   0.686   5.663 -0.1613  0.6515 -0.6081
 7640TIP3    H144411   5.946   0.778   5.656 -0.7865  0.3978 -1.8202
 7640TIP3    H244412   6.062   0.683   5.636 -0.5605  0.7056 -1.9893
 7641TIP3   OH244413   3.993   1.260   2.811 -0.3137 -0.1687  0.1058
 7641TIP3    H144414   3.905   1.274   2.776 -0.0899 -0.2076 -0.4803
 7641TIP3    H244415   4.049   1.319   2.761 -0.1086  0.3970  0.9766
 7642TIP3   OH244416   0.063   6.703   4.297 -0.1629 -0.0211  0.4519
 7642TIP3    H144417  -0.007   6.715   4.360  1.3252  0.7136  1.9879
 7642TIP3    H244418   0.109   6.624   4.327  1.2319  0.9636  0.9692
 7643TIP3   OH244419   3.764   3.189  11.929  0.4690 -0.2104 -0.5617
 7643TIP3    H144420   3.747   3.235  12.011  0.0886 -0.7680 -0.3267
 7643TIP3    H244421   3.848   3.145  11.943 -0.2966 -1.4774  0.0411
 7644TIP3   OH244422   5.433   6.207  14.412  0.3793  0.8662 -0.2268
 7644TIP3    H144423   5.345   6.233  14.438  0.3569 -0.4846  1.0870
 7644TIP3    H244424   5.485   6.216  14.492  1.5658  2.1715 -1.1144
 7645TIP3   OH244425   6.813   2.041  12.885  0.2198 -0.0119  0.5477
 7645TIP3    H144426   6.894   2.057  12.836 -0.4275 -1.9001 -1.2129
 7645TIP3    H244427   6.829   1.960  12.933 -0.3532  0.0241  0.8095
 7646TIP3   OH244428   5.795   2.080   0.471  0.2736 -0.7911  0.4733
 7646TIP3    H144429   5.757   2.030   0.398  0.6764  1.0017 -1.0092
 7646TIP3    H244430   5.855   2.141   0.429  1.3049 -0.4285  2.4237
 7647TIP3   OH244431   4.380   5.589  14.804  0.2274  0.4632  0.5284
 7647TIP3    H144432   4.387   5.679  14.772  0.6353  0.0606 -0.5769
 7647TIP3    H244433   4.286   5.575  14.817 -0.1261  0.2002 -1.9418
 7648TIP3   OH244434   5.441   2.039  11.618 -0.8465  0.7743  0.1326
 7648TIP3    H144435   5.377   2.109  11.617  0.3045  1.8424  0.2894
 7648TIP3    H244436   5.521   2.079  11.650  0.0074 -0.4498 -0.3903
 7649TIP3   OH244437   2.593   4.918  15.278 -0.1288 -0.1174 -0.0786
 7649TIP3    H144438   2.574   4.861  15.352 -1.7692 -0.3602 -0.6647
 7649TIP3    H244439   2.593   5.006  15.314 -3.0251 -0.0552 -0.1416
 7650TIP3   OH244440   2.493   2.033   1.138 -0.3547 -0.4092  0.2601
 7650TIP3    H144441   2.414   1.992   1.105 -0.0803  0.8051 -1.9487
 7650TIP3    H244442   2.562   2.005   1.078  0.0680  2.1476 -0.5247
 7651TIP3   OH244443   6.133   1.096   4.488 -0.6231 -0.6915 -0.0762
 7651TIP3    H144444   6.160   1.170   4.434 -0.4879 -0.6778  0.0084
 7651TIP3    H244445   6.061   1.130   4.541  0.3310 -0.2018  0.9536
 7652TIP3   OH244446   6.533   3.297   4.589  0.3254 -0.1285 -0.0475
 7652TIP3    H144447   6.558   3.266   4.676  0.4484 -1.4786 -0.5559
 7652TIP3    H244448   6.464   3.237   4.562  1.1578 -0.4808 -1.4043
 7653TIP3   OH244449   3.468   6.085  15.362 -0.0120  0.5944 -0.2623
 7653TIP3    H144450   3.506   6.004  15.328  2.5322  1.4714  0.3421
 7653TIP3    H244451   3.480   6.079  15.457 -1.0564  1.0760 -0.0988
 7654TIP3   OH244452   1.789   3.667   3.312  0.4101  0.4565 -0.3138
 7654TIP3    H144453   1.852   3.693   3.245  1.1771 -0.1198  0.1719
 7654TIP3    H244454   1.755   3.749   3.347  0.8911  0.7686 -0.5737
 7655TIP3   OH244455   6.338   6.112  16.935  0.2604 -0.1279 -0.0440
 7655TIP3    H144456   6.417   6.068  16.967 -0.3405 -2.2359 -1.3111
 7655TIP3    H244457   6.274   6.099  17.005  0.2938 -0.6821 -0.1081
 7656TIP3   OH244458   3.163   6.056  14.496  0.3036 -0.2422 -0.2195
 7656TIP3    H144459   3.102   5.993  14.535  0.5216 -0.2529  0.1160
 7656TIP3    H244460   3.214   6.004  14.433 -1.8926  0.3596 -2.5473
 7657TIP3   OH244461   2.678   0.380   4.236  0.2911 -0.2021 -0.5241
 7657TIP3    H144462   2.760   0.413   4.271 -0.6983  3.3189 -1.4008
 7657TIP3    H244463   2.623   0.365   4.313  0.2670  1.5715 -0.1901
 7658TIP3   OH244464   4.411   5.816  15.638 -0.1502 -0.1738 -0.2620
 7658TIP3    H144465   4.400   5.885  15.573  1.7173  1.0591  0.6744
 7658TIP3    H244466   4.382   5.736  15.595  1.5406  0.5298 -2.7811
 7659TIP3   OH244467   0.701   1.318   5.042  0.1301  0.4957  0.1377
 7659TIP3    H144468   0.684   1.264   5.120 -0.2022  0.6994  0.2085
 7659TIP3    H244469   0.632   1.294   4.981  0.5576  0.1313 -0.2052
 7660TIP3   OH244470   3.916   4.648   3.827 -0.3996 -0.6393  0.4912
 7660TIP3    H144471   3.888   4.652   3.736 -0.4623 -0.1051  0.5335
 7660TIP3    H244472   4.011   4.639   3.823 -0.5072 -1.9097  0.3578
 7661TIP3   OH244473   0.513   2.996   4.059  0.0678 -0.3073  0.1434
 7661TIP3    H144474   0.490   3.077   4.104  1.5949  0.7394 -0.9344
 7661TIP3    H244475   0.581   3.021   3.997  0.7826 -2.4720  0.0096
 7662TIP3   OH244476   2.634   2.310  16.379  0.5141 -0.1087  0.1571
 7662TIP3    H144477   2.623   2.372  16.307 -0.2120 -0.3445  0.0638
 7662TIP3    H244478   2.666   2.230  16.337  0.3780 -0.1495  0.1288
 7663TIP3   OH244479   5.843   2.085   5.113  0.4911 -0.0367 -0.1482
 7663TIP3    H144480   5.869   2.083   5.205  0.0104  2.5612  0.0845
 7663TIP3    H244481   5.905   2.144   5.071  2.1317 -2.9734 -2.0251
 7664TIP3   OH244482   4.402   1.324   2.587 -0.7593 -0.0228 -0.3313
 7664TIP3    H144483   4.315   1.340   2.551 -0.1190  0.0547 -1.8824
 7664TIP3    H244484   4.416   1.395   2.650 -2.7460 -1.3527  1.7169
 7665TIP3   OH244485   3.639   0.745   6.205  0.1506 -0.3326 -0.0418
 7665TIP3    H144486   3.693   0.776   6.133 -0.2979  0.5272 -0.0108
 7665TIP3    H244487   3.608   0.824   6.249  0.3077 -0.8454  1.0181
 7666TIP3   OH244488   4.383   2.444   3.629 -0.0095  0.4071 -0.2962
 7666TIP3    H144489   4.356   2.536   3.633  2.1614  1.1407 -1.3893
 7666TIP3    H244490   4.470   2.447   3.589  0.6499 -2.0205  0.8499
 7667TIP3   OH244491   1.479   3.751   6.018  0.2907  0.5895  0.1383
 7667TIP3    H144492   1.468   3.793   6.103 -2.2887  0.2635  0.0244
 7667TIP3    H244493   1.440   3.664   6.029 -2.0337  1.3038 -1.9263
 7668TIP3   OH244494   6.119   2.501  14.642 -0.0799  0.3380 -0.5487
 7668TIP3    H144495   6.164   2.582  14.664 -1.3053  0.9788 -0.3904
 7668TIP3    H244496   6.189   2.435  14.638  1.1553  1.7053 -2.2957
 7669TIP3   OH244497   2.827   1.699  15.766  0.0632 -0.4927  0.3821
 7669TIP3    H144498   2.845   1.687  15.673 -1.9482  2.0609 -0.4131
 7669TIP3    H244499   2.791   1.615  15.795 -2.3805 -0.3082 -1.9745
 7670TIP3   OH244500   3.836   3.304   4.818  0.1523 -0.0647 -0.1171
 7670TIP3    H144501   3.833   3.301   4.914  0.3749 -0.7319 -0.1252
 7670TIP3    H244502   3.744   3.303   4.791  0.0741  0.9858  0.1090
 7671TIP3   OH244503   0.260   1.494  13.711  0.3793  0.2705 -0.6424
 7671TIP3    H144504   0.250   1.519  13.619 -1.5354  0.1350 -0.4897
 7671TIP3    H244505   0.172   1.498  13.747  1.2937  1.8044  1.5885
 7672TIP3   OH244506   4.535   3.475   2.380  0.2190  0.1547 -0.2019
 7672TIP3    H144507   4.498   3.478   2.292  2.9864 -0.5054 -1.4733
 7672TIP3    H244508   4.559   3.565   2.399 -1.1598  0.4324  0.2318
 7673TIP3   OH244509   4.768   6.437  16.407 -0.2141 -0.2532 -0.0368
 7673TIP3    H144510   4.842   6.451  16.347 -1.9138 -1.8068 -2.6105
 7673TIP3    H244511   4.714   6.515  16.397  0.1016  0.0099  0.3382
 7674TIP3   OH244512   2.096   2.498  16.277  0.1207 -0.4816 -0.1355
 7674TIP3    H144513   2.156   2.534  16.212  0.5502 -1.1879 -0.1462
 7674TIP3    H244514   2.154   2.456  16.342 -0.3220 -0.2562  0.4065
 7675TIP3   OH244515   4.116   0.822  14.381  0.1390 -0.4325 -0.2881
 7675TIP3    H144516   4.182   0.867  14.329  1.9908 -0.6055  1.8359
 7675TIP3    H244517   4.096   0.882  14.452 -0.5067 -1.2061  0.1906
 7676TIP3   OH244518   5.244   4.438  12.811  0.0392 -1.0836  0.0348
 7676TIP3    H144519   5.325   4.465  12.853  0.4516 -2.2911  0.0423
 7676TIP3    H244520   5.251   4.471  12.722 -0.8012  1.4207  0.8524
 7677TIP3   OH244521   3.356   0.866   1.041  0.2808  0.6301 -0.2576
 7677TIP3    H144522   3.396   0.884   0.956  0.5457  1.4967  0.0478
 7677TIP3    H244523   3.282   0.809   1.021  0.6431  0.4232 -1.0145
 7678TIP3   OH244524   4.875   4.233   6.019 -0.0884  0.1406  0.3390
 7678TIP3    H144525   4.924   4.193   6.091 -1.7516  0.9484  1.9385
 7678TIP3    H244526   4.878   4.327   6.037 -1.3303  0.2777 -0.1133
 7679TIP3   OH244527   0.586   1.850   4.527  0.0880 -0.1962  0.0604
 7679TIP3    H144528   0.491   1.847   4.516  0.1078  0.0581 -0.1900
 7679TIP3    H244529   0.603   1.940   4.557 -0.1731 -1.3659  4.0007
 7680TIP3   OH244530   2.493   5.727  12.939  0.3812  0.3105 -0.4372
 7680TIP3    H144531   2.457   5.769  12.861 -0.7168 -1.5322 -0.9401
 7680TIP3    H244532   2.561   5.668  12.907 -0.4117 -0.8229 -0.0503
 7681TIP3   OH244533   4.703   4.691  10.880  0.0087  0.2157 -0.3202
 7681TIP3    H144534   4.743   4.637  10.812  2.0575  0.5978  0.5295
 7681TIP3    H244535   4.737   4.779  10.865  0.0656  0.4079  0.8794
 7682TIP3   OH244536   3.692   3.886  12.324  0.0734 -0.1731 -0.0494
 7682TIP3    H144537   3.623   3.924  12.378  0.0239 -0.6614  0.2393
 7682TIP3    H244538   3.772   3.932  12.350 -0.1068  0.2499 -0.2389
 7683TIP3   OH244539   6.641   4.990  12.573 -0.5976  0.1542 -0.3088
 7683TIP3    H144540   6.576   4.932  12.532  0.0575 -2.0252  1.6355
 7683TIP3    H244541   6.619   4.987  12.667  0.8078  1.3411  0.0680
 7684TIP3   OH244542   2.955   6.293  16.198 -0.4263 -0.2732  0.4811
 7684TIP3    H144543   3.012   6.221  16.172 -0.6306  0.5844 -2.6661
 7684TIP3    H244544   3.007   6.346  16.258  0.8019 -1.3938  0.4114
 7685TIP3   OH244545   3.403   2.002   4.760 -0.6438 -0.0794 -0.1614
 7685TIP3    H144546   3.449   2.073   4.805  0.1853 -0.2345 -0.7562
 7685TIP3    H244547   3.464   1.929   4.762 -0.8127 -0.2468 -1.0716
 7686TIP3   OH244548   6.336   0.301  11.017  0.2333  0.8436 -0.2237
 7686TIP3    H144549   6.331   0.234  11.085  1.5619 -0.2729 -1.2010
 7686TIP3    H244550   6.425   0.295  10.983 -0.1262  2.0121 -1.4356
 7687TIP3   OH244551   5.025   2.870   3.701  0.4674  0.1493 -0.0634
 7687TIP3    H144552   4.944   2.918   3.683  1.4478  1.6394 -0.6292
 7687TIP3    H244553   4.998   2.796   3.754 -1.6163 -0.7619 -2.3148
 7688TIP3   OH244554   1.938   0.188   6.208 -0.1162 -0.2787  0.1895
 7688TIP3    H144555   2.023   0.145   6.207  1.6581  3.0079  0.2660
 7688TIP3    H244556   1.903   0.171   6.296  0.9556 -0.7967  0.5174
 7689TIP3   OH244557   2.538   4.065  15.151  0.2081  0.8615 -0.1402
 7689TIP3    H144558   2.457   4.115  15.156  1.2606  2.7148 -0.9559
 7689TIP3    H244559   2.575   4.088  15.066  0.8462 -1.1455 -0.4296
 7690TIP3   OH244560   3.743   6.234   4.190 -0.0418 -0.6042  0.1218
 7690TIP3    H144561   3.789   6.276   4.262  1.2909  1.5678 -1.9153
 7690TIP3    H244562   3.790   6.153   4.175  1.8900  0.6042 -0.5537
 7691TIP3   OH244563   6.398   6.373  16.357  0.3072  0.2553 -0.1535
 7691TIP3    H144564   6.312   6.410  16.377  0.2399  1.5039 -2.4991
 7691TIP3    H244565   6.445   6.445  16.315  2.2850 -0.6142  0.5463
 7692TIP3   OH244566   3.462   1.535   3.436  0.0190  0.2701 -0.2350
 7692TIP3    H144567   3.398   1.517   3.367 -0.4532  1.0713 -0.0129
 7692TIP3    H244568   3.449   1.464   3.498 -2.0641  1.4828  0.7960
 7693TIP3   OH244569   5.559   1.507   4.820  0.1412  0.0383  0.3197
 7693TIP3    H144570   5.574   1.601   4.812 -3.4439  0.4899 -1.9996
 7693TIP3    H244571   5.488   1.499   4.884 -2.1500 -0.8088 -2.2579
 7694TIP3   OH244572   4.433   5.356  16.822 -0.0041 -0.0110  0.2537
 7694TIP3    H144573   4.501   5.419  16.845  0.6743 -0.3022 -0.9476
 7694TIP3    H244574   4.471   5.271  16.839  0.4107 -0.2190 -1.6786
 7695TIP3   OH244575   0.806   3.358   5.719  0.7263 -0.0901  0.5442
 7695TIP3    H144576   0.878   3.332   5.663  0.8688  2.0175 -0.3145
 7695TIP3    H244577   0.751   3.414   5.663 -0.0925  0.5568  1.9674
 7696TIP3   OH244578   1.330   2.246   2.524 -0.5445 -0.1881 -0.2572
 7696TIP3    H144579   1.358   2.203   2.605  0.9025  0.5882 -0.3285
 7696TIP3    H244580   1.352   2.338   2.538 -1.9859  0.2550 -0.8124
 7697TIP3   OH244581   2.435   1.766  17.136  0.6090 -0.1883  0.1552
 7697TIP3    H144582   2.377   1.691  17.117 -0.2055  0.5525 -0.3621
 7697TIP3    H244583   2.432   1.818  17.055  1.0085  0.4981  0.5876
 7698TIP3   OH244584   2.281   4.528  16.375  0.3470 -0.2911 -0.1107
 7698TIP3    H144585   2.373   4.522  16.347  0.5295  0.2329  0.3851
 7698TIP3    H244586   2.247   4.439  16.362  1.5342 -1.0572  1.8760
 7699TIP3   OH244587   6.151   4.354   3.279 -0.5106 -0.6228 -0.0738
 7699TIP3    H144588   6.075   4.345   3.221  0.1100 -1.6029 -0.7601
 7699TIP3    H244589   6.120   4.322   3.364 -0.6700 -1.7374 -0.5366
 7700TIP3   OH244590   5.331   2.466  16.994  0.8135 -0.5936 -0.2160
 7700TIP3    H144591   5.375   2.454  17.077  0.9807  0.4155 -0.1532
 7700TIP3    H244592   5.299   2.556  16.996 -0.1549 -0.9141 -0.7784
 7701TIP3   OH244593   2.099   6.063  11.473 -0.0475  0.1928  0.3873
 7701TIP3    H144594   2.096   5.968  11.459 -1.1256  0.3236 -0.3397
 7701TIP3    H244595   2.013   6.085  11.508  0.6568  0.7179  1.7998
 7702TIP3   OH244596   4.903   0.041   2.631 -1.0952  0.3425 -0.0282
 7702TIP3    H144597   4.851  -0.039   2.621  0.5207 -0.7271 -0.0837
 7702TIP3    H244598   4.842   0.105   2.669 -3.1912 -0.0717 -2.5081
 7703TIP3   OH244599   1.099   2.104   4.737  0.1041 -0.2213 -0.2159
 7703TIP3    H144600   1.056   2.143   4.813 -0.5660  0.8537 -1.1110
 7703TIP3    H244601   1.135   2.179   4.689  0.2953 -0.8540 -1.0821
 7704TIP3   OH244602   6.268   3.549  12.767  0.6232  0.0828 -0.5177
 7704TIP3    H144603   6.262   3.533  12.673 -0.2554 -0.3840 -0.3860
 7704TIP3    H244604   6.270   3.462  12.807  0.9411  0.2779 -0.0986
 7705TIP3   OH244605   2.710   6.450   3.494  0.6442  0.3393 -0.0692
 7705TIP3    H144606   2.695   6.543   3.510  0.0071  0.3738 -0.8157
 7705TIP3    H244607   2.801   6.435   3.517  1.0667  1.3958 -1.0563
 7706TIP3   OH244608   2.005   4.030   5.767  0.2093 -0.0100  0.5577
 7706TIP3    H144609   2.006   3.942   5.802 -1.8556 -0.2987 -0.0226
 7706TIP3    H244610   2.016   4.018   5.672  1.7047  0.4846  0.6575
 7707TIP3   OH244611   3.707   0.677  16.505  0.5389  0.2050  0.1215
 7707TIP3    H144612   3.762   0.621  16.451  1.1281 -1.9161  2.8006
 7707TIP3    H244613   3.624   0.629  16.513  0.4124  0.5536  0.9797
 7708TIP3   OH244614   5.110   3.882  15.480  0.4241 -0.4930  0.6590
 7708TIP3    H144615   5.130   3.953  15.420 -0.4958 -0.7310  0.0562
 7708TIP3    H244616   5.048   3.827  15.432  1.0637 -1.6606  1.1366
 7709TIP3   OH244617   2.723   1.943   0.254  0.2827 -0.4558  0.1931
 7709TIP3    H144618   2.710   1.850   0.271 -1.1782 -0.5724 -1.4067
 7709TIP3    H244619   2.684   1.987   0.329 -0.9787 -1.0974 -0.0598
 7710TIP3   OH244620   4.740   4.594   5.442  0.4271 -0.8091 -0.7110
 7710TIP3    H144621   4.696   4.634   5.367  2.0339 -0.2141 -1.3564
 7710TIP3    H244622   4.819   4.647   5.455  0.4530 -1.2533  1.0432
 7711TIP3   OH244623   4.463   1.135  14.844  0.3264  0.2990  0.4205
 7711TIP3    H144624   4.369   1.145  14.860  0.1961  1.8923 -1.1892
 7711TIP3    H244625   4.504   1.198  14.904  0.3191  0.3833  0.3350
 7712TIP3   OH244626   6.161   0.810   4.555 -0.0663  0.3159  0.2714
 7712TIP3    H144627   6.147   0.904   4.562 -0.7091  0.4179 -1.8572
 7712TIP3    H244628   6.192   0.797   4.465 -0.9213 -1.6102  0.2268
 7713TIP3   OH244629   0.674   4.433  11.301  0.0909 -0.0930 -0.1648
 7713TIP3    H144630   0.584   4.426  11.270  0.1649  0.1680 -0.4394
 7713TIP3    H244631   0.683   4.362  11.364 -0.7043  0.6879  0.8498
 7714TIP3   OH244632   5.596   2.549  12.303 -0.2676 -0.0507  0.0691
 7714TIP3    H144633   5.669   2.490  12.283 -0.0490  0.4585 -0.6741
 7714TIP3    H244634   5.638   2.634  12.319 -0.5397 -0.1890  1.6082
 7715TIP3   OH244635   2.859   6.723  15.784  0.1236  0.4642  0.7103
 7715TIP3    H144636   2.777   6.676  15.793 -0.0239  1.1556  3.4989
 7715TIP3    H244637   2.834   6.810  15.751  0.1274 -0.4556 -1.8013
 7716TIP3   OH244638   1.165   0.899  14.984  0.2459  0.5766 -0.1679
 7716TIP3    H144639   1.234   0.958  14.953 -0.3385  1.3539 -0.0033
 7716TIP3    H244640   1.146   0.843  14.908  0.9391  0.4638 -0.2642
 7717TIP3   OH244641   2.961   2.858   5.324 -0.0743 -0.5408 -0.0271
 7717TIP3    H144642   2.962   2.797   5.250  2.6938  1.4452 -1.7203
 7717TIP3    H244643   2.869   2.880   5.335 -0.5882 -1.1469 -2.6809
 7718TIP3   OH244644   4.231   2.647  15.465  0.0113 -0.3561  0.3825
 7718TIP3    H144645   4.305   2.604  15.421  0.2783 -0.8168  1.2691
 7718TIP3    H244646   4.265   2.732  15.492  0.1002 -0.4183  0.4632
 7719TIP3   OH244647   0.275   6.433   2.197  0.3324 -0.1457 -0.1237
 7719TIP3    H144648   0.252   6.368   2.131  1.6392 -1.1649  0.4060
 7719TIP3    H244649   0.248   6.394   2.280 -1.0961  1.0328 -0.0064
 7720TIP3   OH244650   0.699   5.160  13.365 -0.4271  0.2996 -0.3081
 7720TIP3    H144651   0.743   5.140  13.282 -2.1205 -0.0611 -1.1272
 7720TIP3    H244652   0.640   5.086  13.380 -2.8470  2.1029 -0.6736
 7721TIP3   OH244653   4.779   4.687   0.722  0.1572  0.2110  0.2966
 7721TIP3    H144654   4.786   4.608   0.669 -0.4480 -0.2787  0.9444
 7721TIP3    H244655   4.700   4.675   0.774  0.4603  0.9203  0.9319
 7722TIP3   OH244656   1.589   0.235  14.749 -0.1419 -0.1561 -0.1379
 7722TIP3    H144657   1.610   0.142  14.759  2.6871  0.4940  0.4387
 7722TIP3    H244658   1.674   0.279  14.754 -1.2667  2.3405 -2.1129
 7723TIP3   OH244659   1.167   2.642   0.700  0.2441 -0.0713 -0.6257
 7723TIP3    H144660   1.249   2.660   0.747  1.2714 -1.0182 -2.0400
 7723TIP3    H244661   1.129   2.728   0.684  0.4884  0.3274  0.8562
 7724TIP3   OH244662   4.129   6.559  11.996  0.6495 -0.3420  0.6321
 7724TIP3    H144663   4.079   6.542  11.916  0.4023  2.1716  0.2308
 7724TIP3    H244664   4.094   6.497  12.060 -0.1976 -1.3295 -0.7741
 7725TIP3   OH244665   2.796   3.243  11.654  0.3041  0.0932  0.1283
 7725TIP3    H144666   2.744   3.163  11.665  0.7736 -0.2680 -0.1841
 7725TIP3    H244667   2.854   3.222  11.580 -1.3129  1.6505 -1.6167
 7726TIP3   OH244668   5.136   3.447  16.043 -0.4068 -0.0520  0.8034
 7726TIP3    H144669   5.133   3.543  16.041  0.0744 -0.0314  1.1525
 7726TIP3    H244670   5.163   3.422  15.955 -1.6303  0.0951  0.3761
 7727TIP3   OH244671   4.361   1.001  13.473 -0.2531 -0.0555  0.1189
 7727TIP3    H144672   4.265   0.997  13.479 -0.4505  0.7290 -2.2237
 7727TIP3    H244673   4.391   0.942  13.542 -2.3181  3.1381  3.9822
 7728TIP3   OH244674   4.660   1.703  15.574  0.3564 -0.4286  0.3822
 7728TIP3    H144675   4.725   1.634  15.562  0.5661 -0.1040 -0.3323
 7728TIP3    H244676   4.664   1.755  15.494  0.5325  0.7025  1.1065
 7729TIP3   OH244677   2.751   2.629   1.221  0.2139 -0.0699  0.0732
 7729TIP3    H144678   2.785   2.578   1.147  0.8624 -0.5537  0.6957
 7729TIP3    H244679   2.673   2.672   1.187  0.3839 -0.4656 -0.8313
 7730TIP3   OH244680   2.831   0.285  16.303 -0.4673  0.0248  0.1979
 7730TIP3    H144681   2.922   0.301  16.278 -0.5889 -1.1733 -1.1007
 7730TIP3    H244682   2.780   0.308  16.225 -1.2562  0.4292  0.8259
 7731TIP3   OH244683   5.015   3.400   0.632  0.5553 -0.2838 -0.4980
 7731TIP3    H144684   5.091   3.342   0.628 -0.1661 -1.3837  1.1116
 7731TIP3    H244685   4.958   3.361   0.699 -0.4822  1.6557 -0.1964
 7732TIP3   OH244686   5.418   4.204   3.015 -0.1530 -0.1738  0.3194
 7732TIP3    H144687   5.420   4.239   3.104 -0.0805 -0.9580  0.6255
 7732TIP3    H244688   5.475   4.263   2.965 -0.3824  0.4097  0.7319
 7733TIP3   OH244689   5.783   4.976  13.399  0.2478 -0.1248  0.4022
 7733TIP3    H144690   5.863   4.989  13.347  0.8498  0.3623  1.4397
 7733TIP3    H244691   5.794   4.890  13.439  0.0788 -0.2246  0.2332
 7734TIP3   OH244692   2.083   0.101  12.252 -0.4206  0.8072 -1.0490
 7734TIP3    H144693   2.033   0.151  12.317  0.2648  0.9058 -0.5978
 7734TIP3    H244694   2.053   0.011  12.263  1.7870  0.3256  1.4147
 7735TIP3   OH244695   1.117   3.079   4.800  0.1406  0.3092  0.4386
 7735TIP3    H144696   1.039   3.025   4.806  0.5767 -0.2874  0.7489
 7735TIP3    H244697   1.099   3.139   4.728  0.4388 -1.4968 -1.1602
 7736TIP3   OH244698   5.758   4.118  17.008 -0.2483  0.6989  0.1198
 7736TIP3    H144699   5.667   4.108  16.981 -0.1870  1.5352 -0.4045
 7736TIP3    H244700   5.757   4.098  17.102 -0.7569 -0.4950 -0.1360
 7737TIP3   OH244701   6.811   4.428  16.569  0.2102  0.0634 -0.7577
 7737TIP3    H144702   6.877   4.386  16.624  0.1774 -0.1243 -0.8633
 7737TIP3    H244703   6.829   4.397  16.481 -0.1507 -0.1533 -0.7567
 7738TIP3   OH244704   4.025   4.940  10.994 -0.0826  0.4685  0.1404
 7738TIP3    H144705   4.027   5.003  11.065 -1.4115  1.0681 -0.3413
 7738TIP3    H244706   3.988   4.988  10.920 -0.6910 -0.7491 -0.3623
 7739TIP3   OH244707   3.344   3.561   4.538 -0.0217 -0.2114  0.2986
 7739TIP3    H144708   3.353   3.571   4.632 -0.4170  3.6219 -0.0091
 7739TIP3    H244709   3.433   3.575   4.503 -0.1427 -0.2278 -0.0213
 7740TIP3   OH244710   6.365   5.322  14.975  0.0712 -0.2642  0.2733
 7740TIP3    H144711   6.283   5.327  14.926 -0.0544 -1.0728  0.3876
 7740TIP3    H244712   6.361   5.396  15.036 -1.4934 -1.4283  1.6466
 7741TIP3   OH244713   5.540   2.183  10.776 -0.6412 -0.1411 -0.0424
 7741TIP3    H144714   5.451   2.213  10.794 -0.5680  0.6751 -0.9891
 7741TIP3    H244715   5.539   2.090  10.799 -1.6816 -0.0908  0.1452
 7742TIP3   OH244716   3.797   5.762  14.453 -0.0901 -0.9704  0.3497
 7742TIP3    H144717   3.717   5.733  14.497 -0.1624 -0.8238  0.3150
 7742TIP3    H244718   3.839   5.821  14.517 -2.0426  2.1958 -1.1774
 7743TIP3   OH244719   4.281   1.322   4.858  0.9904  0.1051  0.7580
 7743TIP3    H144720   4.223   1.397   4.867  1.6811  0.6760  0.4364
 7743TIP3    H244721   4.226   1.253   4.821  0.1184  0.1559  1.9168
 7744TIP3   OH244722   6.581   0.857  10.408 -0.1779  0.0046 -0.0886
 7744TIP3    H144723   6.513   0.860  10.476  0.0732  2.1760  0.1093
 7744TIP3    H244724   6.537   0.820  10.332 -0.6644 -1.7868  1.0075
 7745TIP3   OH244725   0.534   0.521  15.366 -0.1421 -0.1068  0.2447
 7745TIP3    H144726   0.594   0.594  15.356  0.4972 -0.4701  1.2970
 7745TIP3    H244727   0.488   0.515  15.282 -0.1203  1.4137  0.1195
 7746TIP3   OH244728   4.134   0.719  16.979  0.3396 -0.7572 -0.1684
 7746TIP3    H144729   4.074   0.667  16.926 -0.4067 -0.0804  0.0029
 7746TIP3    H244730   4.133   0.676  17.064 -1.0294  0.0707  0.2639
 7747TIP3   OH244731   0.718   4.631  16.674 -0.5007  0.3921 -0.4441
 7747TIP3    H144732   0.724   4.723  16.698  1.5760 -0.1123  0.9869
 7747TIP3    H244733   0.808   4.600  16.670 -1.2482 -2.3691  2.1587
 7748TIP3   OH244734   0.407   4.536   0.742  0.1753 -0.3314  0.1477
 7748TIP3    H144735   0.412   4.498   0.654 -1.8400 -1.4361  0.4838
 7748TIP3    H244736   0.412   4.461   0.801  1.5794  0.4143  0.9855
 7749TIP3   OH244737   4.241   2.972   3.070  0.5599 -0.1788 -0.0441
 7749TIP3    H144738   4.306   3.028   3.113  0.5244 -1.5100  1.8103
 7749TIP3    H244739   4.293   2.910   3.019  0.6628  0.2184 -0.4259
 7750TIP3   OH244740   1.331   1.290  11.350  0.1087 -0.2165 -0.3435
 7750TIP3    H144741   1.365   1.348  11.282  1.5461 -0.2337  0.3427
 7750TIP3    H244742   1.238   1.310  11.354  0.3225  1.0017 -1.1317
 7751TIP3   OH244743   6.002   0.764   1.630  0.1082  0.0833  0.7601
 7751TIP3    H144744   6.011   0.766   1.535  2.7318  0.8357  0.9747
 7751TIP3    H244745   6.013   0.672   1.654  1.6522  0.1956  0.5047
 7752TIP3   OH244746   1.982   6.479   2.724  0.1316 -0.4927  0.1813
 7752TIP3    H144747   1.952   6.489   2.814 -2.3285  0.4874 -0.6893
 7752TIP3    H244748   2.062   6.531   2.720  0.2167 -0.4669  1.7682
 7753TIP3   OH244749   4.565   6.568   2.555  0.2987  0.0402  0.7871
 7753TIP3    H144750   4.573   6.663   2.545 -0.2786  0.0283  0.1217
 7753TIP3    H244751   4.503   6.542   2.486 -0.2989 -0.6921  1.5864
 7754TIP3   OH244752   1.564   3.040  14.154 -0.2979  0.3363  0.2618
 7754TIP3    H144753   1.536   3.081  14.236 -1.8876 -0.2304  0.0191
 7754TIP3    H244754   1.572   3.113  14.092  0.6169  0.7276  0.8169
 7755TIP3   OH244755   0.870   6.627  14.372 -0.4940 -0.2976  0.5085
 7755TIP3    H144756   0.783   6.605  14.340 -0.5765 -0.5179  0.8816
 7755TIP3    H244757   0.885   6.567  14.446  0.0657 -0.4247  0.2987
 7756TIP3   OH244758   5.181   3.069   4.651 -0.2681 -0.8161  0.1216
 7756TIP3    H144759   5.100   3.052   4.602  0.6381  0.3549 -1.8133
 7756TIP3    H244760   5.218   2.982   4.666 -1.4390 -1.2995  0.2703
 7757TIP3   OH244761   3.748   2.184  15.143 -0.1817 -0.2026 -0.1454
 7757TIP3    H144762   3.798   2.242  15.086 -0.0821 -1.4367 -1.3530
 7757TIP3    H244763   3.769   2.213  15.231 -0.8918  2.2108 -0.7260
 7758TIP3   OH244764   5.619   4.885   1.517 -0.3168  0.6122 -0.4538
 7758TIP3    H144765   5.686   4.839   1.568  1.8504  0.5714 -3.1674
 7758TIP3    H244766   5.614   4.972   1.558  1.1233  0.4817  0.0403
 7759TIP3   OH244767   3.517   5.874   2.475 -0.2466  0.1306 -0.0592
 7759TIP3    H144768   3.579   5.868   2.403  1.7484  1.1979  1.5146
 7759TIP3    H244769   3.535   5.797   2.529 -0.6401  0.1670  0.1300
 7760TIP3   OH244770   0.354   4.502   4.013  0.4612 -0.3592  0.0072
 7760TIP3    H144771   0.291   4.573   4.026  1.7197  0.8214 -0.3021
 7760TIP3    H244772   0.440   4.543   4.022  1.2319 -1.6083 -1.3331
 7761TIP3   OH244773   4.548   2.815  15.356  0.0176 -0.1825 -0.0386
 7761TIP3    H144774   4.558   2.908  15.373 -0.7119 -0.4122  1.6979
 7761TIP3    H244775   4.578   2.772  15.436 -0.6671 -1.4067 -0.4165
 7762TIP3   OH244776   1.023   3.233  11.190 -0.4530  0.3100  0.4668
 7762TIP3    H144777   1.061   3.270  11.111 -0.6495 -0.8907 -0.2017
 7762TIP3    H244778   1.047   3.141  11.187 -3.6433 -0.5642 -0.1222
 7763TIP3   OH244779   3.641   0.184   6.753  0.1982  0.6795  0.0224
 7763TIP3    H144780   3.550   0.158   6.739 -0.6133  2.3029  2.0671
 7763TIP3    H244781   3.640   0.279   6.738  2.0059  0.4148 -2.0027
 7764TIP3   OH244782   2.085   5.416  16.526  0.1359  0.0702  0.1679
 7764TIP3    H144783   2.137   5.462  16.460 -0.7198  2.5288  1.1633
 7764TIP3    H244784   2.024   5.363  16.476  0.6257  0.6158 -1.0255
 7765TIP3   OH244785   1.485   3.481   3.533 -0.6040  0.0484  0.2392
 7765TIP3    H144786   1.478   3.571   3.565  0.7850  0.5373 -0.7776
 7765TIP3    H244787   1.543   3.437   3.596  2.8409  1.2429 -2.0065
 7766TIP3   OH244788   2.180   0.154  16.616 -0.2535 -0.2820  0.6245
 7766TIP3    H144789   2.256   0.122  16.569 -0.2908  2.2813 -1.2705
 7766TIP3    H244790   2.216   0.190  16.698  0.6429  1.0702 -0.3307
 7767TIP3   OH244791   6.606   4.373   4.164  0.7339 -0.0165 -0.0114
 7767TIP3    H144792   6.590   4.467   4.173 -0.7098 -0.3560  1.1104
 7767TIP3    H244793   6.689   4.358   4.209  0.6462  0.6187  0.3711
 7768TIP3   OH244794   2.216   2.116   5.019 -0.5805 -0.0760  0.0465
 7768TIP3    H144795   2.142   2.177   5.012  0.4560  1.0541 -1.4540
 7768TIP3    H244796   2.293   2.171   5.006  0.5273 -1.2838  1.3541
 7769TIP3   OH244797   5.988   3.937  11.100  0.2724 -0.6522  0.0025
 7769TIP3    H144798   5.990   3.845  11.072 -0.8585 -0.6628 -0.0655
 7769TIP3    H244799   5.923   3.978  11.043 -0.0339 -0.0627  0.7660
 7770TIP3   OH244800   2.455   6.770  16.005 -0.2540 -0.1787 -0.2149
 7770TIP3    H144801   2.378   6.813  15.969 -1.4383 -1.5148  0.6458
 7770TIP3    H244802   2.476   6.820  16.085 -1.4894 -1.0280  0.6638
 7771TIP3   OH244803   3.636   0.356   0.011  0.6177 -0.3702 -0.2447
 7771TIP3    H144804   3.582   0.400  -0.054 -0.5256  0.2078  1.0465
 7771TIP3    H244805   3.605   0.266   0.011  0.2861 -0.2583 -0.1798
 7772TIP3   OH244806   0.150   0.660  12.095 -0.0836 -0.8948  0.3852
 7772TIP3    H144807   0.116   0.615  12.017  0.7751 -0.2340 -0.3845
 7772TIP3    H244808   0.078   0.717  12.123  0.4528  0.7687 -1.4493
 7773TIP3   OH244809   5.416   0.707  15.781  0.2741 -0.6419 -0.0004
 7773TIP3    H144810   5.387   0.692  15.690  1.3428  1.4967 -0.7396
 7773TIP3    H244811   5.484   0.773  15.773  1.6771 -1.7806  2.2308
 7774TIP3   OH244812   0.595   5.583   0.383 -0.6856 -0.3911  0.0986
 7774TIP3    H144813   0.621   5.613   0.471 -0.4159  0.6650 -0.3310
 7774TIP3    H244814   0.504   5.609   0.376 -1.1722 -1.9164  0.6741
 7775TIP3   OH244815   0.635   3.503  14.806  0.0515 -0.2342 -0.1558
 7775TIP3    H144816   0.642   3.488  14.900  0.7730 -1.9778 -0.4578
 7775TIP3    H244817   0.580   3.431  14.775 -1.4721  1.2107 -0.8615
 7776TIP3   OH244818   4.818   0.939  13.581  0.2904 -0.4691 -0.3178
 7776TIP3    H144819   4.794   0.846  13.582 -1.8017  0.0621  0.7137
 7776TIP3    H244820   4.851   0.956  13.670  3.2053 -0.8108 -1.2588
 7777TIP3   OH244821   6.799   1.024  11.461 -0.0457  0.1402  0.6963
 7777TIP3    H144822   6.828   1.115  11.449  0.4660  0.0108  0.9192
 7777TIP3    H244823   6.726   1.030  11.522 -1.8881  0.6818 -1.4753
 7778TIP3   OH244824   2.694   3.984   4.197  0.0153  0.6266 -0.6124
 7778TIP3    H144825   2.670   3.962   4.287 -1.6792  0.4343 -1.0970
 7778TIP3    H244826   2.788   3.965   4.192  0.1321  0.6646  1.1131
 7779TIP3   OH244827   4.023   0.447   3.249  0.0106 -0.2351 -0.0065
 7779TIP3    H144828   4.115   0.433   3.269 -0.1218 -2.8123 -0.9102
 7779TIP3    H244829   3.976   0.417   3.327 -0.1295 -0.9347 -0.3547
 7780TIP3   OH244830   6.432   5.091   3.419  0.3325  0.1011  0.3289
 7780TIP3    H144831   6.500   5.088   3.352 -1.0881  1.9724 -1.2381
 7780TIP3    H244832   6.424   5.183   3.441 -0.8794 -0.2387  1.3502
 7781TIP3   OH244833   2.258   4.277   0.890  0.4561  0.0270 -0.1971
 7781TIP3    H144834   2.291   4.189   0.873 -0.0118 -0.3848  0.9567
 7781TIP3    H244835   2.176   4.282   0.841 -0.0819 -0.5790  0.6344
 7782TIP3   OH244836   2.839   1.325  16.205 -1.0737 -0.2331  0.8942
 7782TIP3    H144837   2.837   1.293  16.295 -0.1669  1.4117  1.5128
 7782TIP3    H244838   2.869   1.416  16.212  1.5706 -0.8604 -1.2787
 7783TIP3   OH244839   6.573   2.925  11.148  0.0341  0.0909 -0.4938
 7783TIP3    H144840   6.535   2.929  11.060 -0.3537  0.1040 -0.3263
 7783TIP3    H244841   6.538   2.844  11.186 -0.1292  0.2967 -0.2008
 7784TIP3   OH244842   1.929   2.234   5.799  0.3283 -0.3015  0.3255
 7784TIP3    H144843   1.994   2.270   5.860  0.2304 -0.2522  0.4003
 7784TIP3    H244844   1.854   2.292   5.807  0.6727  0.2785 -0.5683
 7785TIP3   OH244845   3.113   1.084   0.281  0.1908 -0.4460  0.2130
 7785TIP3    H144846   3.068   1.039   0.209  1.7708  1.2326 -1.8816
 7785TIP3    H244847   3.045   1.140   0.320 -0.6531 -1.3089  0.0081
 7786TIP3   OH244848   1.367   2.302  15.287  0.3003 -0.2596  0.0189
 7786TIP3    H144849   1.442   2.362  15.282  0.4006 -0.2980  0.9705
 7786TIP3    H244850   1.368   2.256  15.203  1.1217  0.0022 -0.1237
 7787TIP3   OH244851   1.782   6.655   3.883  0.3666 -0.2337 -0.6956
 7787TIP3    H144852   1.766   6.749   3.882 -0.3660 -0.3467 -0.3495
 7787TIP3    H244853   1.877   6.646   3.886  0.4130  0.5075  0.1739
 7788TIP3   OH244854   2.466   3.366  12.711 -0.6696 -0.6081 -0.3295
 7788TIP3    H144855   2.408   3.305  12.757 -0.8840  0.5591  0.9899
 7788TIP3    H244856   2.490   3.320  12.631 -3.9458 -0.8980 -1.2561
 7789TIP3   OH244857   0.087   3.678   1.338  0.7027  0.1571  0.1292
 7789TIP3    H144858   0.023   3.652   1.272  1.5901  0.4531 -0.8673
 7789TIP3    H244859   0.065   3.769   1.358  0.4843  0.0923  0.1893
 7790TIP3   OH244860   6.734   6.307  14.520 -0.1854  0.2520  0.5799
 7790TIP3    H144861   6.792   6.295  14.444 -0.6537  0.4007  0.1959
 7790TIP3    H244862   6.646   6.291  14.485 -0.6493  2.7584  0.5226
 7791TIP3   OH244863   2.697   6.578   5.630 -0.5041 -0.1937 -0.0118
 7791TIP3    H144864   2.642   6.531   5.567 -0.5643  0.0018 -0.1044
 7791TIP3    H244865   2.641   6.588   5.707 -1.5132  2.3163 -1.0255
 7792TIP3   OH244866   3.056   6.218  16.999  0.6130 -0.0773  0.2697
 7792TIP3    H144867   2.984   6.268  16.962  0.9687  0.2262 -0.0214
 7792TIP3    H244868   3.117   6.205  16.927  1.5771  1.0149  0.8700
 7793TIP3   OH244869   3.855   5.435   3.697  0.3354  0.0995  0.2649
 7793TIP3    H144870   3.938   5.482   3.704  0.8160 -0.7909  0.5974
 7793TIP3    H244871   3.861   5.387   3.614 -0.1149  0.5533 -0.0294
 7794TIP3   OH244872   6.060   3.711  13.040  0.0808  0.0417 -0.0053
 7794TIP3    H144873   6.099   3.624  13.049 -2.5116 -1.1545  0.1752
 7794TIP3    H244874   6.030   3.715  12.949  0.2600  0.8070 -0.0414
 7795TIP3   OH244875   0.912   3.524  14.690 -0.3187 -0.5784 -0.3511
 7795TIP3    H144876   0.836   3.525  14.747  0.4769 -2.3302  0.7617
 7795TIP3    H244877   0.964   3.600  14.718 -1.5127  0.4908 -0.9688
 7796TIP3   OH244878   0.929   3.791   4.782 -0.0822 -0.8452 -0.3030
 7796TIP3    H144879   1.023   3.800   4.768 -0.3396  0.7056 -1.2657
 7796TIP3    H244880   0.891   3.798   4.694 -1.2176  0.6799  0.2798
 7797TIP3   OH244881   6.382   4.626  16.088 -0.3268  0.1975  0.2682
 7797TIP3    H144882   6.372   4.595  15.998  0.3069 -1.3385  0.7266
 7797TIP3    H244883   6.420   4.714  16.079 -1.9551  0.7962 -1.0210
 7798TIP3   OH244884   2.352   1.496  11.011 -0.0173 -0.0355 -0.1833
 7798TIP3    H144885   2.375   1.576  10.964  2.5481  0.1654  1.2969
 7798TIP3    H244886   2.398   1.427  10.964  0.4220 -0.1848  0.4631
 7799TIP3   OH244887   2.205   4.943   5.749 -0.4165 -0.2479 -0.0023
 7799TIP3    H144888   2.129   4.977   5.702  0.1223  0.7603 -0.1595
 7799TIP3    H244889   2.280   4.978   5.701  0.1436 -0.6749  0.5555
 7800TIP3   OH244890   2.688   6.208   1.325 -0.1740 -0.0457  0.5017
 7800TIP3    H144891   2.617   6.239   1.381  0.2580 -1.2106  1.7294
 7800TIP3    H244892   2.767   6.242   1.367  0.0299  0.7422 -0.5247
 7801TIP3   OH244893   2.996   0.476  12.836  0.1855 -0.8051 -0.4792
 7801TIP3    H144894   2.924   0.437  12.786  0.1956 -0.7239 -0.5584
 7801TIP3    H244895   3.065   0.489  12.770 -0.3755  0.7731 -0.7597
 7802TIP3   OH244896   5.842   0.474  14.280 -0.2779  0.0099 -0.2828
 7802TIP3    H144897   5.917   0.435  14.326 -0.9100 -1.6115 -0.5791
 7802TIP3    H244898   5.770   0.466  14.342 -0.4430  0.6054 -0.3977
 7803TIP3   OH244899   1.767   4.142  10.660 -0.2661 -0.5307  0.1449
 7803TIP3    H144900   1.741   4.229  10.631  0.1017 -0.8874 -1.2653
 7803TIP3    H244901   1.831   4.158  10.730 -2.0921  0.3243  1.6383
 7804TIP3   OH244902   0.428   6.747   4.834  0.6426  0.1390  0.1139
 7804TIP3    H144903   0.344   6.789   4.816  0.4309  0.0902  0.9695
 7804TIP3    H244904   0.437   6.751   4.929  0.7851 -1.4676  0.1688
 7805TIP3   OH244905   6.687   5.024   3.612  0.2581  0.2260 -0.5402
 7805TIP3    H144906   6.601   5.046   3.650  0.1610 -0.3053 -0.4447
 7805TIP3    H244907   6.750   5.055   3.677  0.0932 -0.5859  0.0196
 7806TIP3   OH244908   6.724   0.544  13.064 -0.0748 -0.2684 -0.0176
 7806TIP3    H144909   6.670   0.613  13.027 -0.3781 -0.0040  0.9353
 7806TIP3    H244910   6.813   0.567  13.037 -0.4487 -0.8526 -1.8164
 7807TIP3   OH244911   4.815   3.046   1.729 -0.5054  0.0663 -0.4301
 7807TIP3    H144912   4.884   2.980   1.724  0.4638  1.1454 -1.7880
 7807TIP3    H244913   4.754   3.022   1.658 -0.5106  0.2184 -0.4780
 7808TIP3   OH244914   4.577   0.456  15.757  0.3936  0.4617 -0.9005
 7808TIP3    H144915   4.551   0.482  15.669  1.3215 -1.6232 -1.8359
 7808TIP3    H244916   4.611   0.367  15.746  0.5987  0.2066  1.5530
 7809TIP3   OH244917   6.667   2.746  12.446  0.7222  0.3186 -0.0949
 7809TIP3    H144918   6.666   2.733  12.541 -0.6711  2.5304  0.2400
 7809TIP3    H244919   6.647   2.660  12.410  2.1093 -0.7448  1.5705
 7810TIP3   OH244920   2.512   0.685  12.703 -0.1004  0.1713 -0.5470
 7810TIP3    H144921   2.477   0.606  12.663 -0.7920  0.2879 -0.1709
 7810TIP3    H244922   2.528   0.662  12.794  2.8498 -0.5321 -1.1799
 7811TIP3   OH244923   3.799   0.772  13.445  0.2735  0.3794 -0.2561
 7811TIP3    H144924   3.861   0.784  13.373  2.0005 -0.7597  1.0160
 7811TIP3    H244925   3.849   0.796  13.523 -1.0146 -0.1821  0.7493
 7812TIP3   OH244926   6.303   2.840  13.130  0.0176  0.1293  0.1528
 7812TIP3    H144927   6.387   2.799  13.109 -0.6123 -0.7600 -0.7037
 7812TIP3    H244928   6.244   2.809  13.062 -0.9510  0.9419  0.6097
 7813TIP3   OH244929   2.671   4.987   1.729  0.6734 -0.2142 -0.0770
 7813TIP3    H144930   2.664   4.957   1.639 -2.1116 -0.8743  0.3141
 7813TIP3    H244931   2.649   5.080   1.725  2.4017  0.2158 -0.2947
 7814TIP3   OH244932   2.145   6.182  15.075 -0.3769  0.2661  0.2263
 7814TIP3    H144933   2.142   6.088  15.093 -1.2766  0.7648  3.0212
 7814TIP3    H244934   2.055   6.205  15.052 -0.4542  0.6718  0.9165
 7815TIP3   OH244935   0.838   4.953  14.585 -0.2406 -0.4838 -0.3860
 7815TIP3    H144936   0.879   4.983  14.504 -2.2866  0.8665 -0.9441
 7815TIP3    H244937   0.747   4.980  14.578 -0.6770 -1.2205  1.9473
 7816TIP3   OH244938   3.520   2.464  14.974 -0.4561  0.4081  0.6569
 7816TIP3    H144939   3.577   2.433  14.904  1.2527  1.9943  1.2876
 7816TIP3    H244940   3.579   2.483  15.047 -1.9941  0.4749  1.9218
 7817TIP3   OH244941   2.563   0.995  12.091  0.6955 -0.3452  0.0508
 7817TIP3    H144942   2.598   1.026  12.174  1.2893  2.1268 -1.0799
 7817TIP3    H244943   2.530   1.073  12.048 -0.2184 -1.6850 -1.7603
 7818TIP3   OH244944   4.223   3.378  11.431 -0.2353 -0.3570  0.7368
 7818TIP3    H144945   4.165   3.442  11.472  0.7232 -0.6664  2.6109
 7818TIP3    H244946   4.178   3.294  11.441  0.1913 -0.4919  1.5289
 7819TIP3   OH244947   5.296   0.647  13.432  0.5744 -0.0827 -0.2997
 7819TIP3    H144948   5.344   0.719  13.391 -0.4416  0.4292 -0.6051
 7819TIP3    H244949   5.204   0.673  13.426  0.2141 -1.3090 -0.2324
 7820TIP3   OH244950   3.049   0.895  12.345  0.1990  0.3279 -0.3039
 7820TIP3    H144951   3.032   0.896  12.250 -1.5207  0.7950  0.0036
 7820TIP3    H244952   3.011   0.977  12.376  2.2030  0.9567  0.5624
 7821TIP3   OH244953   4.681   5.443   4.227  0.2567  0.1993 -1.0405
 7821TIP3    H144954   4.704   5.451   4.135  0.2699  1.4155 -0.9326
 7821TIP3    H244955   4.698   5.351   4.248  0.8495  0.0657 -2.0837
 7822TIP3   OH244956   4.233   4.868  12.805  0.1659  0.1475  0.3345
 7822TIP3    H144957   4.269   4.952  12.832  2.1921 -0.9916  1.2330
 7822TIP3    H244958   4.236   4.814  12.884 -0.0979 -1.1173 -0.5061
 7823TIP3   OH244959   5.901   1.735  10.897 -0.0597 -0.4253 -0.5705
 7823TIP3    H144960   5.872   1.752  10.986 -0.9037 -0.5687 -0.8091
 7823TIP3    H244961   5.935   1.819  10.866 -0.7304 -0.1162 -0.4679
 7824TIP3   OH244962   5.024   6.062   5.152  0.6938  0.3069 -0.0791
 7824TIP3    H144963   4.980   6.009   5.219  0.2346  1.9039  0.9256
 7824TIP3    H244964   5.117   6.050   5.168  0.6017  2.1514  2.1146
 7825TIP3   OH244965   0.185   4.325   3.742  0.0591 -0.0494 -0.1656
 7825TIP3    H144966   0.237   4.277   3.806  1.9123  0.5504 -1.1608
 7825TIP3    H244967   0.148   4.257   3.685 -0.4712 -0.5032  0.7197
 7826TIP3   OH244968   6.293   6.610  17.000 -0.4819 -0.0682 -0.5191
 7826TIP3    H144969   6.231   6.552  16.955 -0.4614 -1.5785  1.3309
 7826TIP3    H244970   6.374   6.604  16.948 -0.1694 -2.5092  0.1938
 7827TIP3   OH244971   1.326   3.468   4.130 -0.1564  0.0129 -0.6855
 7827TIP3    H144972   1.399   3.407   4.115 -0.0561 -0.5152  1.8567
 7827TIP3    H244973   1.369   3.550   4.154 -0.3651 -0.8963  3.0634
 7828TIP3   OH244974   6.477   4.112  15.054  0.5434  0.2554 -0.0168
 7828TIP3    H144975   6.396   4.148  15.016 -0.2146 -1.4335 -0.0426
 7828TIP3    H244976   6.545   4.133  14.990 -0.2294 -0.0445 -0.9522
 7829TIP3   OH244977   1.716   2.045  11.134  0.0206  0.5839 -0.5176
 7829TIP3    H144978   1.753   2.040  11.222  0.9171  0.8427 -0.8709
 7829TIP3    H244979   1.741   2.132  11.102 -2.4058  1.4803 -0.1202
 7830TIP3   OH244980   3.258   0.561  14.409 -0.1348  0.4785 -0.3161
 7830TIP3    H144981   3.333   0.508  14.434  0.3573  1.6672  0.7402
 7830TIP3    H244982   3.264   0.567  14.313  1.3590  0.9537 -0.1934
 7831TIP3   OH244983   5.607   5.548   1.158  0.5563  0.2721  0.4407
 7831TIP3    H144984   5.672   5.543   1.088  0.1831  2.5572 -0.1248
 7831TIP3    H244985   5.535   5.492   1.129  0.6089  0.8356 -0.7923
 7832TIP3   OH244986   5.142   3.832  12.942 -0.2431 -0.0508 -0.0347
 7832TIP3    H144987   5.073   3.838  13.008 -0.3470  4.8379 -0.3713
 7832TIP3    H244988   5.098   3.800  12.863 -1.1917 -1.0500  0.8932
 7833TIP3   OH244989   2.443   0.296   3.348 -0.1511 -0.4752 -0.0766
 7833TIP3    H144990   2.482   0.287   3.261 -0.6044 -2.2114 -0.1191
 7833TIP3    H244991   2.510   0.339   3.400 -0.8866  3.1634 -1.9514
 7834TIP3   OH244992   1.363   4.075  13.697  0.0987  0.0848  0.0257
 7834TIP3    H144993   1.362   4.152  13.641  0.8153  1.3738  1.7463
 7834TIP3    H244994   1.309   4.010  13.650  0.4907  1.1877 -2.0134
 7835TIP3   OH244995   6.335   0.546   5.891  0.1257  0.5537 -0.1456
 7835TIP3    H144996   6.427   0.520   5.900 -0.1726 -1.5100 -2.3328
 7835TIP3    H244997   6.302   0.549   5.981  2.4882  1.9749  0.7165
 7836TIP3   OH244998   1.508   4.764   2.396 -0.2479 -0.2904 -0.2554
 7836TIP3    H144999   1.478   4.841   2.444 -2.4054 -1.0387 -0.3161
 7836TIP3    H245000   1.503   4.789   2.304 -2.0725 -0.8552 -0.3275
 7837TIP3   OH245001   3.905   1.084   2.562  0.3759  0.0346 -0.5196
 7837TIP3    H145002   3.846   1.148   2.602  0.2776 -0.9690  0.9922
 7837TIP3    H245003   3.952   1.133   2.495 -1.5540  1.0704 -1.1520
 7838TIP3   OH245004   3.492   0.111  16.026 -0.5011  0.1191 -0.3223
 7838TIP3    H145005   3.446   0.029  16.010  0.3154 -0.9615  2.5663
 7838TIP3    H245006   3.426   0.169  16.064 -0.1733 -0.5059  1.2293
 7839TIP3   OH245007   6.273   0.766  15.566  0.2524 -0.0415 -0.6877
 7839TIP3    H145008   6.239   0.762  15.476  1.0369  0.7799 -1.0306
 7839TIP3    H245009   6.296   0.676  15.587  0.1667 -0.2218 -1.3527
 7840TIP3   OH245010   5.161   1.746  16.313  0.0122  0.2466  0.2019
 7840TIP3    H145011   5.104   1.674  16.285 -1.3215  0.5966  1.9395
 7840TIP3    H245012   5.100   1.814  16.344  1.3744  0.2733  2.9783
 7841TIP3   OH245013   6.274   0.337   2.919  0.2197  0.4520  0.2966
 7841TIP3    H145014   6.259   0.339   3.014  0.3487 -0.1742  0.3334
 7841TIP3    H245015   6.365   0.310   2.910 -0.2439 -1.0485 -0.0354
 7842TIP3   OH245016   1.487   0.086   3.355  0.5120  0.3738  0.3550
 7842TIP3    H145017   1.456   0.079   3.265  0.4925  1.1373  0.3050
 7842TIP3    H245018   1.515   0.177   3.365  0.2052  0.3813  1.2171
 7843TIP3   OH245019   4.805   4.339  12.907 -0.4567  0.3328 -0.1469
 7843TIP3    H145020   4.847   4.253  12.912 -1.1709 -0.1116 -1.6264
 7843TIP3    H245021   4.764   4.350  12.993 -2.0489 -1.6868 -0.6246
 7844TIP3   OH245022   1.960   2.200  12.123 -0.3936  0.6258  0.0521
 7844TIP3    H145023   2.043   2.189  12.077 -0.3241 -0.0987  0.3344
 7844TIP3    H245024   1.922   2.279  12.086 -0.7000 -0.3671 -1.8551
 7845TIP3   OH245025   0.964   5.744   2.154 -0.6235  0.1177  0.8011
 7845TIP3    H145026   0.986   5.693   2.232 -0.0537 -0.9538 -0.0459
 7845TIP3    H245027   0.932   5.680   2.092 -0.1056  0.8238 -0.2112
 7846TIP3   OH245028   4.930   3.626   3.334  0.7948  0.0199  0.4346
 7846TIP3    H145029   4.941   3.637   3.239  1.6326 -1.4574  0.3423
 7846TIP3    H245030   4.931   3.715   3.368  2.1215  0.4962 -0.7896
 7847TIP3   OH245031   5.580   6.801  12.879 -0.0085  0.0402  0.1113
 7847TIP3    H145032   5.589   6.707  12.865 -0.2279 -0.1815  1.4183
 7847TIP3    H245033   5.661   6.838  12.844  0.6305 -0.7567  0.7470
 7848TIP3   OH245034   0.507   3.450   3.326  0.6660  0.0951  0.4198
 7848TIP3    H145035   0.495   3.438   3.421 -0.0742 -1.3723  0.1701
 7848TIP3    H245036   0.475   3.538   3.309  0.7357  0.3465  1.5375
 7849TIP3   OH245037   0.945   5.324  14.371 -0.3323  0.4787  0.1754
 7849TIP3    H145038   0.906   5.390  14.314  0.8821  0.5914 -0.5323
 7849TIP3    H245039   0.909   5.344  14.458 -0.0125  2.0614 -0.0282
 7850TIP3   OH245040   2.934   0.859   5.357  0.7105 -0.2511  0.2651
 7850TIP3    H145041   2.877   0.936   5.363 -0.0135 -0.8699  1.2616
 7850TIP3    H245042   2.949   0.832   5.447  0.9040 -1.3341 -0.0850
 7851TIP3   OH245043   5.881   5.193  14.432 -0.6102 -0.4402  0.4633
 7851TIP3    H145044   5.892   5.113  14.380 -2.5170 -0.2459 -0.2848
 7851TIP3    H245045   5.966   5.235  14.431  0.5924 -2.7550  1.3434
 7852TIP3   OH245046   3.667   5.371   5.355 -0.2047 -0.0376 -0.6045
 7852TIP3    H145047   3.709   5.411   5.430 -1.6798  0.1033  0.1622
 7852TIP3    H245048   3.723   5.395   5.280  1.2352 -0.1384  0.4155
 7853TIP3   OH245049   0.173   1.918  12.666 -0.0670  0.0842  0.1258
 7853TIP3    H145050   0.252   1.917  12.721 -0.9465  1.6155  1.4940
 7853TIP3    H245051   0.204   1.943  12.579  1.6657 -4.5815 -0.6929
 7854TIP3   OH245052   4.261   5.182  14.223  0.0877  0.6646 -0.1739
 7854TIP3    H145053   4.173   5.207  14.249 -1.1311 -1.8767 -1.6790
 7854TIP3    H245054   4.283   5.241  14.151 -0.4310  1.1996  0.1008
 7855TIP3   OH245055   5.794   5.311  14.005  0.0436  0.3978  0.6815
 7855TIP3    H145056   5.882   5.329  14.039 -0.9763  3.3936  1.9716
 7855TIP3    H245057   5.808   5.282  13.915  2.3724  0.4435  0.9996
 7856TIP3   OH245058   1.067   0.722  17.036  0.0394 -0.3113 -0.3348
 7856TIP3    H145059   1.004   0.793  17.025  0.9232  0.4826 -0.2823
 7856TIP3    H245060   1.132   0.756  17.097 -0.3513 -1.7088  0.8914
 7857TIP3   OH245061   5.995   3.485  15.667 -0.2387  0.2724  0.2509
 7857TIP3    H145062   6.025   3.543  15.597  0.8722 -1.3345 -0.6402
 7857TIP3    H245063   6.076   3.453  15.708 -0.7582 -1.7580 -0.2245
 7858TIP3   OH245064   5.767   3.382   6.767  0.2409  0.2547  0.2205
 7858TIP3    H145065   5.715   3.417   6.840  1.2735  1.8893  0.2088
 7858TIP3    H245066   5.807   3.460   6.728  0.7158 -0.7482 -1.2983
 7859TIP3   OH245067   1.034   3.447   5.198 -0.2358  0.4237  0.9732
 7859TIP3    H145068   1.032   3.532   5.154 -0.7613 -0.1613 -0.1337
 7859TIP3    H245069   1.037   3.383   5.127 -0.9327 -0.5158  1.7823
 7860TIP3   OH245070   4.005   6.814   5.112  0.0026  0.1211  0.1096
 7860TIP3    H145071   4.001   6.741   5.051 -0.4086  1.0645 -1.0050
 7860TIP3    H245072   3.988   6.891   5.059  2.8814  1.3093  0.8127
 7861TIP3   OH245073   6.125   2.749   5.458  0.2965 -0.2437 -0.3164
 7861TIP3    H145074   6.114   2.700   5.540 -1.0229  2.2363  1.0913
 7861TIP3    H245075   6.183   2.822   5.482 -0.6589  0.8992 -1.3774
 7862TIP3   OH245076   5.108   5.272   2.309  0.0580  0.1509  0.6665
 7862TIP3    H145077   5.071   5.191   2.344  1.4934 -0.6628  0.3431
 7862TIP3    H245078   5.203   5.256   2.306  0.1996  1.1787 -1.0858
 7863TIP3   OH245079   5.025   3.943  16.859 -0.0092  0.5872 -0.2722
 7863TIP3    H145080   4.971   4.021  16.851 -0.3626  0.3181 -0.5101
 7863TIP3    H245081   4.972   3.881  16.909 -0.1736  0.1013 -1.0369
 7864TIP3   OH245082   3.077   0.523  15.217 -0.6267  0.0790  0.0599
 7864TIP3    H145083   3.022   0.601  15.210  1.1526  1.4989  1.2695
 7864TIP3    H245084   3.156   0.545  15.167  0.3106 -0.5194  1.2278
 7865TIP3   OH245085   6.178   4.684   4.685 -0.2197 -0.6742  0.0043
 7865TIP3    H145086   6.129   4.625   4.628  2.0088 -1.1070 -1.5434
 7865TIP3    H245087   6.232   4.736   4.625 -0.2772  1.2049  1.5194
 7866TIP3   OH245088   6.746   0.121   0.305 -0.1533  0.1673  0.1972
 7866TIP3    H145089   6.723   0.190   0.367 -0.3697 -1.1293  1.5944
 7866TIP3    H245090   6.682   0.051   0.321  0.5883 -0.7195 -0.5881
 7867TIP3   OH245091   5.255   0.204  16.454 -0.0220 -0.1975  0.0854
 7867TIP3    H145092   5.247   0.161  16.539  1.0310 -1.1361 -0.2726
 7867TIP3    H245093   5.225   0.294  16.469  1.8775  0.1731  1.8930
 7868TIP3   OH245094   3.800   6.231  14.124  0.1855 -0.7745 -0.4553
 7868TIP3    H145095   3.735   6.167  14.093 -1.9289 -0.6025  3.2479
 7868TIP3    H245096   3.832   6.194  14.206  0.6884  1.7637  0.5396
 7869TIP3   OH245097   1.663   2.000   0.120  0.0219  0.3485 -0.6371
 7869TIP3    H145098   1.612   1.983   0.041 -0.9892 -0.6485  0.2095
 7869TIP3    H245099   1.734   1.936   0.117 -0.6316 -0.4102 -0.2157
 7870TIP3   OH245100   1.602   5.654   1.232  0.4210  0.1187 -0.1978
 7870TIP3    H145101   1.678   5.708   1.251  0.4966  0.3654 -1.1973
 7870TIP3    H245102   1.531   5.717   1.219  0.1005 -0.0997  0.4777
 7871TIP3   OH245103   0.764   0.635   6.351  0.1550 -0.1617 -0.0056
 7871TIP3    H145104   0.827   0.602   6.287 -1.6748 -1.3158 -1.2585
 7871TIP3    H245105   0.766   0.571   6.421 -0.8260 -1.0812 -0.8109
 7872TIP3   OH245106   6.284   6.122  14.634  0.2802  0.1232 -0.2866
 7872TIP3    H145107   6.360   6.160  14.589  0.1198  0.3938 -0.3285
 7872TIP3    H245108   6.244   6.065  14.568  2.0460 -2.2166  0.5866
 7873TIP3   OH245109   2.099   2.400   3.157 -0.3789  0.0246  0.4166
 7873TIP3    H145110   2.029   2.461   3.135  0.4339  0.7894 -0.0685
 7873TIP3    H245111   2.137   2.435   3.237 -1.5672 -1.2718  1.6005
 7874TIP3   OH245112   0.734   2.313   5.207  0.0506  0.3853 -0.3497
 7874TIP3    H145113   0.732   2.305   5.302 -0.7570  1.3183 -0.2754
 7874TIP3    H245114   0.675   2.386   5.188  2.4994  2.2006 -1.3411
 7875TIP3   OH245115   0.551   5.095   1.336 -0.4974 -0.2061  0.8464
 7875TIP3    H145116   0.571   5.038   1.261  0.2084  0.5784  0.4245
 7875TIP3    H245117   0.613   5.067   1.404 -0.2599 -0.0473  0.6953
 7876TIP3   OH245118   4.313   6.550  11.750 -0.2420  0.1164  0.4612
 7876TIP3    H145119   4.239   6.508  11.794 -1.3013  1.4457 -0.0249
 7876TIP3    H245120   4.285   6.641  11.736  1.5527  0.6952  0.4434
 7877TIP3   OH245121   0.651   1.517  12.105 -0.4428  0.0237  0.4143
 7877TIP3    H145122   0.745   1.534  12.103 -0.7994  2.0267 -0.2014
 7877TIP3    H245123   0.612   1.599  12.135 -1.9558 -0.9979  1.2923
 7878TIP3   OH245124   2.785   1.492  11.962 -0.2361  0.5906  0.1281
 7878TIP3    H145125   2.761   1.462  12.050  1.0877 -2.7049 -0.5529
 7878TIP3    H245126   2.702   1.510  11.919 -0.9835  0.4040  1.4654
 7879TIP3   OH245127   1.768   1.543   0.636 -0.7785 -0.1354 -0.0991
 7879TIP3    H145128   1.770   1.474   0.570 -0.9671  0.9403 -1.2396
 7879TIP3    H245129   1.675   1.559   0.651 -0.7379 -0.3780  0.4425
 7880TIP3   OH245130   2.434   5.208   4.682 -0.0269 -0.1763  0.4004
 7880TIP3    H145131   2.470   5.230   4.768 -2.0940 -0.1390  1.2848
 7880TIP3    H245132   2.428   5.292   4.636 -0.3326  0.0272  0.8019
 7881TIP3   OH245133   3.256   2.695   4.886  0.5977 -0.0099  1.0048
 7881TIP3    H145134   3.274   2.652   4.802 -1.1734 -0.9444  1.0798
 7881TIP3    H245135   3.291   2.634   4.952 -1.5849 -1.2187  1.0946
 7882TIP3   OH245136   5.535   3.038   5.220 -0.2348  0.4127 -0.0699
 7882TIP3    H145137   5.576   2.995   5.295 -1.3296  2.3179  1.6771
 7882TIP3    H245138   5.520   3.128   5.250 -1.1354  1.0735 -2.4173
 7883TIP3   OH245139   6.262   5.962  13.766  0.4999 -0.3716 -0.1038
 7883TIP3    H145140   6.334   6.024  13.751  0.0330  0.5240  1.1849
 7883TIP3    H245141   6.201   5.979  13.695  0.9714 -0.2178 -0.4727
 7884TIP3   OH245142   5.369   1.179   5.838 -1.0131 -0.6147 -0.1347
 7884TIP3    H145143   5.348   1.104   5.783 -1.6642 -0.3822 -0.2026
 7884TIP3    H245144   5.309   1.172   5.912  1.0236 -1.8955  1.4436
 7885TIP3   OH245145   3.633   5.145   1.058  0.0730 -0.0853  0.5753
 7885TIP3    H145146   3.587   5.197   1.124  1.1131  1.7674 -0.1212
 7885TIP3    H245147   3.599   5.175   0.974  1.3444  0.1398  0.1206
 7886TIP3   OH245148   0.407   2.058   5.864  0.3152 -0.4472  0.2531
 7886TIP3    H145149   0.405   2.086   5.956  0.2189 -2.4020  0.8730
 7886TIP3    H245150   0.315   2.064   5.835  0.5018  1.2057 -0.0704
 7887TIP3   OH245151   6.626   3.440  16.595 -0.2586 -0.0653  0.5906
 7887TIP3    H145152   6.555   3.378  16.576 -1.4637  1.4019  0.2421
 7887TIP3    H245153   6.587   3.526  16.581  1.2967  0.7949  1.4350
 7888TIP3   OH245154   5.661   5.644  15.875 -0.6459  0.1078 -0.5238
 7888TIP3    H145155   5.645   5.734  15.846 -1.5744 -0.7456 -2.7487
 7888TIP3    H245156   5.582   5.620  15.922 -0.6631  0.2342 -0.4862
 7889TIP3   OH245157   3.030   4.218   1.582 -0.4398 -0.1102 -0.3914
 7889TIP3    H145158   2.987   4.303   1.585  0.8220  0.5044  0.4453
 7889TIP3    H245159   3.043   4.201   1.488  1.1314  1.5686 -0.5048
 7890TIP3   OH245160   6.419   2.747   4.483  0.5266 -0.6287  0.3299
 7890TIP3    H145161   6.325   2.736   4.472  0.3773 -0.5480  1.4967
 7890TIP3    H245162   6.429   2.782   4.571  1.6565 -0.7209  0.2467
 7891TIP3   OH245163   0.349   6.239   0.564 -0.8465 -0.3828 -0.6033
 7891TIP3    H145164   0.409   6.307   0.534 -0.5135  0.3816  1.7275
 7891TIP3    H245165   0.405   6.163   0.580 -0.7212 -0.1418  0.1017
 7892TIP3   OH245166   2.205   4.072  16.773 -0.7760 -0.0868  0.1538
 7892TIP3    H145167   2.194   4.121  16.855  0.3117  0.2107  0.1135
 7892TIP3    H245168   2.285   4.107  16.734 -1.1745 -0.3850 -0.9360
 7893TIP3   OH245169   4.827   1.328   0.136 -0.3150 -0.3387  0.1975
 7893TIP3    H145170   4.884   1.405   0.126 -0.3382 -0.3355  0.0773
 7893TIP3    H245171   4.761   1.339   0.068  0.1165 -0.8435 -0.3126
 7894TIP3   OH245172   5.954   6.351   1.929 -0.1722 -0.2167 -1.0350
 7894TIP3    H145173   5.953   6.313   1.841  0.2364 -0.1423 -1.0729
 7894TIP3    H245174   5.890   6.300   1.978  0.7020 -1.2618 -0.9534
 7895TIP3   OH245175   5.626   1.722   3.437  0.1675  0.2586 -0.2682
 7895TIP3    H145176   5.665   1.738   3.351 -0.0893 -0.8606 -0.6045
 7895TIP3    H245177   5.557   1.658   3.420  0.7940 -0.7557  0.9194
 7896TIP3   OH245178   3.619   1.840  14.718 -0.2610  0.6004 -0.3158
 7896TIP3    H145179   3.547   1.844  14.655  0.3070  0.9303 -0.9436
 7896TIP3    H245180   3.669   1.920  14.703 -0.4087  0.9260  0.8979
 7897TIP3   OH245181   4.785   6.324  13.070 -0.0185 -0.1690 -0.1993
 7897TIP3    H145182   4.862   6.372  13.098 -1.3206  2.2478 -0.6314
 7897TIP3    H245183   4.810   6.284  12.987  1.5073 -1.4203  0.8260
 7898TIP3   OH245184   1.728   3.497  16.120 -0.0245 -0.7009  0.0711
 7898TIP3    H145185   1.698   3.546  16.196  1.5471 -2.0940  1.6402
 7898TIP3    H245186   1.696   3.408  16.134  1.6666 -1.3586 -0.0395
 7899TIP3   OH245187   4.630   1.934  16.217  0.1635 -0.4374 -0.4160
 7899TIP3    H145188   4.649   1.997  16.147 -1.1171  0.6265  0.1490
 7899TIP3    H245189   4.648   1.982  16.298 -1.6982 -0.4604  0.0493
 7900TIP3   OH245190   4.600   2.611  13.514  0.0907  0.3846 -0.1808
 7900TIP3    H145191   4.692   2.628  13.494  0.2891  0.0238  0.4250
 7900TIP3    H245192   4.556   2.618  13.429  0.5285  1.4790 -0.3373
 7901TIP3   OH245193   6.548   2.993   5.780  0.3019 -0.2200 -0.4703
 7901TIP3    H145194   6.466   3.004   5.828  0.5562  1.8549 -0.4237
 7901TIP3    H245195   6.521   2.984   5.688 -0.0812 -2.0337 -0.1925
 7902TIP3   OH245196   6.715   3.222  14.592 -0.0656  0.0432  0.1667
 7902TIP3    H145197   6.774   3.258  14.659 -2.6942  1.1742  1.9636
 7902TIP3    H245198   6.737   3.129  14.588  1.3667  0.3058  1.2827
 7903TIP3   OH245199   0.290   5.341  16.687  0.3057 -0.3871 -0.2513
 7903TIP3    H145200   0.215   5.367  16.741  1.1435  0.8403  0.3529
 7903TIP3    H245201   0.330   5.268  16.733 -0.3526 -0.8637 -0.4353
 7904TIP3   OH245202   5.705   1.265  16.855  0.2677  0.9486 -0.2516
 7904TIP3    H145203   5.627   1.211  16.868 -0.4230  2.0243  0.0964
 7904TIP3    H245204   5.730   1.292  16.942  1.3094  0.2377 -0.3250
 7905TIP3   OH245205   3.672   4.005   2.729 -0.1388  0.7834 -0.4467
 7905TIP3    H145206   3.645   3.915   2.747  1.0602  0.2615 -1.1906
 7905TIP3    H245207   3.768   4.002   2.728 -0.0418  2.3202  0.8182
 7906TIP3   OH245208   6.644   2.189   0.471  0.0365  0.5411 -0.1136
 7906TIP3    H145209   6.645   2.195   0.375 -1.5079 -1.3320 -0.2694
 7906TIP3    H245210   6.556   2.217   0.496 -0.7209 -2.2236  0.4800
 7907TIP3   OH245211   3.210   4.420  11.425 -0.0883  0.1398 -0.5093
 7907TIP3    H145212   3.184   4.341  11.472 -1.3641  0.3035 -0.9061
 7907TIP3    H245213   3.132   4.476  11.428  0.6239  1.1586 -0.6982
 7908TIP3   OH245214   1.693   3.954  11.695 -0.4552 -0.2932  0.1987
 7908TIP3    H145215   1.726   3.865  11.682  1.5693  0.3531  0.5768
 7908TIP3    H245216   1.657   3.979  11.611  3.9202  0.4665 -1.5927
 7909TIP3   OH245217   6.328   0.952   5.330 -0.4701  0.5026 -0.0634
 7909TIP3    H145218   6.417   0.947   5.365  0.3558 -0.3292 -2.1849
 7909TIP3    H245219   6.275   0.901   5.391  0.4957  0.9970  1.2183
 7910TIP3   OH245220   0.533   3.959  14.370 -0.1962  0.2078  0.1230
 7910TIP3    H145221   0.461   3.910  14.410  0.4202 -1.5365 -0.8184
 7910TIP3    H245222   0.501   3.980  14.282  0.1146  0.1640  0.0007
 7911TIP3   OH245223   5.298   4.848   0.833  0.5653  0.3064 -0.1389
 7911TIP3    H145224   5.208   4.822   0.812  0.6864  0.1804 -0.5067
 7911TIP3    H245225   5.339   4.863   0.747  0.7884  0.7223  0.0365
 7912TIP3   OH245226   3.780   0.134  15.982  0.6502 -0.3717  0.7916
 7912TIP3    H145227   3.689   0.117  15.958  0.8315 -2.2460  1.3420
 7912TIP3    H245228   3.829   0.114  15.902  0.5178  1.4272  0.2479
 7913TIP3   OH245229   4.929   5.336  12.243  0.2362  0.0520 -0.6985
 7913TIP3    H145230   4.948   5.248  12.274  1.2149 -0.0360 -1.5015
 7913TIP3    H245231   4.932   5.329  12.148 -0.0832  0.8708 -0.7737
 7914TIP3   OH245232   5.070   2.276   2.208 -0.0103  0.3339 -0.3025
 7914TIP3    H145233   4.994   2.230   2.174 -0.6684  1.0072  0.2512
 7914TIP3    H245234   5.034   2.347   2.262  0.9375  3.4799 -3.6206
 7915TIP3   OH245235   1.358   5.546   4.218  0.0475 -0.0946 -0.7266
 7915TIP3    H145236   1.421   5.569   4.150  0.9330  1.5120  0.5831
 7915TIP3    H245237   1.388   5.462   4.253  0.5497 -0.0975 -1.1802
 7916TIP3   OH245238   2.317   0.318  12.011 -0.4707  0.7171 -0.2403
 7916TIP3    H145239   2.276   0.272  11.937  0.3971  1.6323 -1.3058
 7916TIP3    H245240   2.351   0.248  12.066 -0.5450  0.0404 -1.0446
 7917TIP3   OH245241   3.677   0.502  16.030 -0.0659 -0.3982 -0.3759
 7917TIP3    H145242   3.632   0.577  16.068  1.5007  1.1921 -1.5460
 7917TIP3    H245243   3.725   0.463  16.104 -1.3069 -0.5689  0.3449
 7918TIP3   OH245244   1.340   3.354  14.680  0.0793  0.1112  0.1104
 7918TIP3    H145245   1.421   3.347  14.730  0.1906  1.6912  0.1786
 7918TIP3    H245246   1.353   3.430  14.624 -0.8592 -0.4082 -0.8308
 7919TIP3   OH245247   2.452   1.907  16.848 -0.0058 -0.1358  0.4205
 7919TIP3    H145248   2.459   1.983  16.791 -0.9897 -0.8353 -0.6544
 7919TIP3    H245249   2.531   1.910  16.902  0.6975  0.8140 -0.6384
 7920TIP3   OH245250   5.180   2.367   4.918  0.3086 -0.5449 -0.3891
 7920TIP3    H145251   5.145   2.425   4.850 -1.1731  0.1179  0.9021
 7920TIP3    H245252   5.204   2.425   4.990 -2.4069 -1.5841  1.4335
 7921TIP3   OH245253   2.856   0.281   0.071  0.1099 -0.0949 -0.0208
 7921TIP3    H145254   2.760   0.278   0.070  0.0765  0.5692 -2.7600
 7921TIP3    H245255   2.882   0.195   0.106 -1.4600 -0.1113  1.1777
 7922TIP3   OH245256   0.705   3.032   1.688 -0.5358  0.1056  0.2306
 7922TIP3    H145257   0.662   3.006   1.607 -0.4118 -2.6337  1.0010
 7922TIP3    H245258   0.644   3.093   1.729 -1.2805  0.3350 -1.1820
 7923TIP3   OH245259   6.532   0.267   5.544 -0.0709 -0.2068 -0.0269
 7923TIP3    H145260   6.575   0.215   5.612 -0.3127  0.5108  0.6910
 7923TIP3    H245261   6.524   0.354   5.583 -0.5259  0.1220 -0.8502
 7924TIP3   OH245262   4.088   4.259  11.679  0.1307  0.4148 -0.7992
 7924TIP3    H145263   4.168   4.266  11.628  0.8678  0.2293  0.3211
 7924TIP3    H245264   4.118   4.242  11.768 -1.1784 -0.5200 -0.5344
 7925TIP3   OH245265   3.059   1.632  14.009  0.4753 -0.2637 -0.1973
 7925TIP3    H145266   3.145   1.601  13.982  1.0030 -0.0084  1.1399
 7925TIP3    H245267   3.063   1.633  14.105 -1.1240 -0.5553 -0.1172
 7926TIP3   OH245268   5.058   4.079   2.609  0.2782 -0.2414  0.0719
 7926TIP3    H145269   5.078   4.171   2.592 -2.8136  0.4376 -0.1453
 7926TIP3    H245270   5.069   4.069   2.703  2.0215 -0.0338 -0.0910
 7927TIP3   OH245271   5.905   2.601  14.077 -0.5739 -0.1626  0.0546
 7927TIP3    H145272   5.856   2.524  14.104  0.5765 -0.7224  0.5475
 7927TIP3    H245273   5.870   2.623  13.990 -1.3396 -0.8526  0.1928
 7928TIP3   OH245274   1.550   6.276   2.293  0.7904  0.4284  0.4703
 7928TIP3    H145275   1.579   6.327   2.368 -0.3788  0.7277  0.7271
 7928TIP3    H245276   1.456   6.294   2.286  0.6077 -0.7069 -0.1959
 7929TIP3   OH245277   3.119   4.303   0.866  0.7203  0.3462  0.0865
 7929TIP3    H145278   3.195   4.263   0.823 -0.1311 -0.0914 -1.0276
 7929TIP3    H245279   3.086   4.366   0.802 -0.1978  0.1193  0.3236
 7930TIP3   OH245280   0.950   3.118  12.087  0.5862  0.2359 -0.4481
 7930TIP3    H145281   1.010   3.054  12.125  0.0790  0.7503  1.2499
 7930TIP3    H245282   0.999   3.156  12.014  2.7272  1.3668  1.5136
 7931TIP3   OH245283   4.054   3.363   2.923  0.1147  0.2163 -0.0189
 7931TIP3    H145284   3.964   3.368   2.955  0.7971  1.9287  1.6746
 7931TIP3    H245285   4.051   3.409   2.839 -0.1213  2.3539  1.1263
 7932TIP3   OH245286   3.256   2.946   1.190 -0.3561  0.3990  0.4083
 7932TIP3    H145287   3.207   2.973   1.267 -2.0914  0.2326 -0.6223
 7932TIP3    H245288   3.339   2.994   1.197 -0.9524  1.2743  1.7594
 7933TIP3   OH245289   4.800   2.413   4.576  0.5265 -0.1031  0.2891
 7933TIP3    H145290   4.713   2.392   4.610  0.2868  1.5255  0.7388
 7933TIP3    H245291   4.860   2.373   4.639  0.1614 -3.8355 -1.6519
 7934TIP3   OH245292   1.257   4.259  12.506  0.5025 -0.0980  0.1613
 7934TIP3    H145293   1.329   4.203  12.478  1.5739  1.4220 -0.1495
 7934TIP3    H245294   1.270   4.272  12.599  1.3106  1.1363 -0.1163
 7935TIP3   OH245295   3.893   1.260  15.597 -0.2593  0.1571 -0.5071
 7935TIP3    H145296   3.915   1.241  15.506 -0.6405  0.1459 -0.5988
 7935TIP3    H245297   3.816   1.318  15.591 -0.2370  0.2187 -0.1953
 7936TIP3   OH245298   0.335   0.751  15.260  0.2214 -0.3992  0.0546
 7936TIP3    H145299   0.370   0.839  15.258  1.0196 -0.7207 -0.3178
 7936TIP3    H245300   0.288   0.741  15.177 -0.2752 -0.1704  0.3025
 7937TIP3   OH245301   1.977   2.426  14.994  0.2990 -0.0778 -0.7475
 7937TIP3    H145302   1.925   2.350  14.969  1.7832 -0.7601 -1.7991
 7937TIP3    H245303   1.985   2.477  14.914 -0.6245  1.1806 -0.0691
 7938TIP3   OH245304   1.677   6.035   2.314  0.0195  0.3196  0.0656
 7938TIP3    H145305   1.638   6.123   2.305 -2.3902 -0.6600  0.5071
 7938TIP3    H245306   1.763   6.051   2.352 -0.5838  2.4727  0.6308
 7939TIP3   OH245307   5.300   6.019   3.945 -0.3604  0.6309 -0.3879
 7939TIP3    H145308   5.316   5.943   3.889  0.3672  1.9957 -2.0952
 7939TIP3    H245309   5.205   6.030   3.944 -0.4117  0.1882 -0.7255
 7940TIP3   OH245310   5.524   4.224  16.843 -0.1894 -0.1889  0.1164
 7940TIP3    H145311   5.440   4.268  16.848 -0.2991 -0.5397  1.6864
 7940TIP3    H245312   5.503   4.133  16.820 -0.0941  0.1089 -1.2316
 7941TIP3   OH245313   6.488   5.832   1.987 -0.2926 -0.0424  0.0662
 7941TIP3    H145314   6.458   5.826   2.078 -1.3721  0.5269 -0.2388
 7941TIP3    H245315   6.418   5.790   1.937  0.6367 -0.9939 -0.4392
 7942TIP3   OH245316   5.533   0.709  16.240 -0.5993  0.2509 -0.6854
 7942TIP3    H145317   5.533   0.650  16.164 -0.1403 -1.5599  0.7027
 7942TIP3    H245318   5.442   0.710  16.269 -0.1156 -2.0590  1.0097
 7943TIP3   OH245319   1.085   4.116  16.644 -0.0998 -0.2026  0.1489
 7943TIP3    H145320   1.054   4.025  16.647 -1.2315  0.1761 -0.1265
 7943TIP3    H245321   1.165   4.111  16.592  0.5827 -1.2492  1.2723
 7944TIP3   OH245322   3.324   1.095  14.838 -0.7047 -0.3431  0.5521
 7944TIP3    H145323   3.345   1.005  14.864  0.6407 -0.6579 -1.4685
 7944TIP3    H245324   3.409   1.136  14.823 -1.2672  1.6426  2.5395
 7945TIP3   OH245325   4.101   0.886  16.407  0.0749 -0.3936  0.5885
 7945TIP3    H145326   4.055   0.862  16.326 -0.3363  1.5316  0.2039
 7945TIP3    H245327   4.065   0.829  16.474 -3.4193  1.5091  0.4307
 7946TIP3   OH245328   4.919   0.285  16.018  0.4211 -0.1726 -0.3236
 7946TIP3    H145329   4.986   0.309  15.955 -0.9177  1.1027 -1.3078
 7946TIP3    H245330   4.907   0.191  16.007  1.2915 -0.2173 -0.8857
 7947TIP3   OH245331   5.732   4.069  16.159 -0.4215 -0.4317  0.2355
 7947TIP3    H145332   5.777   4.118  16.228 -0.6097  1.7567 -1.1173
 7947TIP3    H245333   5.686   3.999  16.204 -0.3468  0.8128  2.2907
 7948TIP3   OH245334   2.021   2.331  10.864  0.1756 -0.0995  0.5600
 7948TIP3    H145335   2.046   2.281  10.786 -1.7291 -1.8128  1.0129
 7948TIP3    H245336   2.079   2.299  10.933  0.7484  0.2323  0.2358
 7949TIP3   OH245337   2.087   0.913  16.264  0.3910  0.9168  0.2968
 7949TIP3    H145338   2.141   0.842  16.299  0.4422 -0.0479 -1.6910
 7949TIP3    H245339   2.149   0.984  16.246  0.4425  1.2089  1.5828
 7950TIP3   OH245340   5.047   5.803  12.578 -0.0631  0.2080 -0.5037
 7950TIP3    H145341   5.072   5.729  12.634 -0.9713  1.0684  1.0766
 7950TIP3    H245342   5.109   5.872  12.600 -0.3370  0.5100 -0.6769
 7951TIP3   OH245343   1.903   0.853  13.341 -0.0619 -0.0363  0.4478
 7951TIP3    H145344   1.930   0.945  13.348 -1.8870  0.5820 -0.3731
 7951TIP3    H245345   1.814   0.852  13.375 -0.0987 -1.5040  0.3365
 7952TIP3   OH245346   0.809   5.881   3.060 -0.1579  0.0353  0.4432
 7952TIP3    H145347   0.889   5.877   3.009  0.2211 -0.3654  1.0563
 7952TIP3    H245348   0.771   5.966   3.039 -0.8644 -0.7883 -1.7589
 7953TIP3   OH245349   5.217   3.111  16.691  1.1466  0.4114 -0.3367
 7953TIP3    H145350   5.154   3.051  16.651 -0.1721  1.5593 -0.0195
 7953TIP3    H245351   5.274   3.055  16.744  0.6030 -0.6718 -0.8906
 7954TIP3   OH245352   2.481   0.076  12.378 -0.1998 -0.5438  0.2157
 7954TIP3    H145353   2.450   0.085  12.288  1.2444  0.0497 -0.2406
 7954TIP3    H245354   2.435   0.144  12.427 -1.5902 -1.3890  0.0894
 7955TIP3   OH245355   4.080   3.156  16.785 -0.4425 -0.0624 -0.4300
 7955TIP3    H145356   4.020   3.081  16.788 -1.2451  0.5992  0.2142
 7955TIP3    H245357   4.031   3.224  16.739 -0.7000  0.9275  1.2776
 7956TIP3   OH245358   3.084   5.435   5.131 -0.3234 -0.1358  0.0026
 7956TIP3    H145359   3.053   5.353   5.168 -1.0800  0.2202  0.1736
 7956TIP3    H245360   3.015   5.461   5.069 -0.5407  0.8306  0.6323
 7957TIP3   OH245361   0.830   5.015   3.343  0.3099 -0.2276  0.1876
 7957TIP3    H145362   0.800   5.100   3.311  1.6502  0.5826  1.0088
 7957TIP3    H245363   0.812   5.017   3.437  0.2098 -0.9145  0.1867
 7958TIP3   OH245364   5.264   0.251  16.085  0.0779  0.3185  0.7670
 7958TIP3    H145365   5.236   0.254  15.993 -1.9964  0.8750  1.3862
 7958TIP3    H245366   5.224   0.171  16.119 -1.7263  1.7015  1.9662
 7959TIP3   OH245367   0.772   1.044  11.472 -0.1812  0.7354 -0.3914
 7959TIP3    H145368   0.777   1.099  11.393  1.6574  1.9203  0.5011
 7959TIP3    H245369   0.753   1.105  11.543  0.4260  0.0067  0.4080
 7960TIP3   OH245370   1.012   1.411   0.075  1.1460  0.4943  0.8002
 7960TIP3    H145371   0.934   1.445   0.118  0.8254  0.1748  0.4679
 7960TIP3    H245372   1.006   1.444  -0.015  0.3715 -1.1722  0.2191
 7961TIP3   OH245373   6.638   1.410  16.091 -0.2620 -0.0229  0.3894
 7961TIP3    H145374   6.595   1.370  16.015 -0.6138  2.3429 -0.7019
 7961TIP3    H245375   6.571   1.412  16.159 -0.5869 -0.2317  0.0765
 7962TIP3   OH245376   3.295   1.759   1.600 -0.1052 -0.1992  0.4291
 7962TIP3    H145377   3.249   1.826   1.550  1.8840  1.5060  0.8206
 7962TIP3    H245378   3.256   1.764   1.688  0.5090  0.9315  0.6430
 7963TIP3   OH245379   3.205   1.930   4.289  0.0389 -0.4905 -0.6291
 7963TIP3    H145380   3.294   1.964   4.283  0.6995 -1.7907  1.2573
 7963TIP3    H245381   3.211   1.842   4.253 -0.0882 -1.2089  1.0470
 7964TIP3   OH245382   3.896   2.712  17.113 -0.4521 -0.8625 -0.8045
 7964TIP3    H145383   3.818   2.673  17.072  0.1327 -0.8063 -1.9841
 7964TIP3    H245384   3.957   2.638  17.122 -0.5719 -0.8741 -0.0199
 7965TIP3   OH245385   1.416   5.276  14.874  0.1944  0.4383  0.4154
 7965TIP3    H145386   1.476   5.351  14.871  1.0075 -0.2383 -0.6917
 7965TIP3    H245387   1.413   5.244  14.784  0.1033 -1.0610  0.9402
 7966TIP3   OH245388   3.197   3.535  12.229  0.0770 -0.5129  0.0045
 7966TIP3    H145389   3.129   3.498  12.173  1.0032 -1.1689 -0.7215
 7966TIP3    H245390   3.244   3.459  12.264  1.7379 -0.0769 -1.1686
 7967TIP3   OH245391   2.153   0.903   1.394 -0.1694  0.4242  0.5462
 7967TIP3    H145392   2.097   0.978   1.412  2.2357  1.4466  4.5487
 7967TIP3    H245393   2.242   0.939   1.394  0.8979 -2.0895  0.4374
 7968TIP3   OH245394   0.249   2.250  12.645  0.3536 -0.0748  0.3059
 7968TIP3    H145395   0.287   2.314  12.585  1.3324  0.1983  1.2023
 7968TIP3    H245396   0.203   2.188  12.588  0.8449  0.4566 -0.6850
 7969TIP3   OH245397   1.182   1.079   3.036 -0.6714 -0.1621 -0.0395
 7969TIP3    H145398   1.224   1.104   3.118 -0.4226  0.7711 -0.4413
 7969TIP3    H245399   1.098   1.040   3.062 -1.1573  1.2725  0.6016
 7970TIP3   OH245400   2.354   5.663  12.207 -0.5039  0.1404 -0.5531
 7970TIP3    H145401   2.334   5.622  12.291 -0.4638 -0.5547 -0.8784
 7970TIP3    H245402   2.279   5.643  12.152 -0.1955 -0.0480 -0.9104
 7971TIP3   OH245403   6.764   1.304   2.482 -0.0435 -0.2717 -0.0832
 7971TIP3    H145404   6.746   1.253   2.561  0.0149  1.4139  1.0426
 7971TIP3    H245405   6.788   1.391   2.514 -1.2230  0.7959 -1.9898
 7972TIP3   OH245406   2.450   5.017   5.640  0.5393  0.1145 -0.6950
 7972TIP3    H145407   2.492   4.987   5.721  0.0360  1.2981  0.0226
 7972TIP3    H245408   2.504   5.090   5.611 -1.0898  1.7624  0.3310
 7973TIP3   OH245409   2.081   5.034   1.733  0.1929 -0.2121  0.1972
 7973TIP3    H145410   2.127   5.090   1.670  0.6199 -0.1898  0.5304
 7973TIP3    H245411   2.120   5.056   1.817 -0.4639 -0.1521  0.4904
 7974TIP3   OH245412   5.592   3.723  14.424 -0.0318  0.2318 -0.0670
 7974TIP3    H145413   5.539   3.648  14.451 -0.0523  0.3275  0.1607
 7974TIP3    H245414   5.660   3.729  14.492 -0.0486  0.4381 -0.0701
 7975TIP3   OH245415   4.734   1.997  16.486 -0.0309 -0.1431 -0.1248
 7975TIP3    H145416   4.656   2.052  16.492  0.4930  0.6913 -0.8459
 7975TIP3    H245417   4.761   1.985  16.577 -0.8755 -0.2750  0.1193
 7976TIP3   OH245418   5.512   4.510   4.809 -0.2950 -0.0751 -0.3234
 7976TIP3    H145419   5.584   4.518   4.747  1.0341  1.7928  1.3590
 7976TIP3    H245420   5.501   4.416   4.822  1.6942 -0.3955 -0.8114
 7977TIP3   OH245421   4.329   2.457  14.270  0.1065  0.2300  0.8007
 7977TIP3    H145422   4.400   2.410  14.228  0.0035 -0.7969  1.7413
 7977TIP3    H245423   4.260   2.463  14.204  0.4866 -0.1251  0.3758
 7978TIP3   OH245424   2.736   4.085  14.013 -0.1610 -0.1842  0.1042
 7978TIP3    H145425   2.705   4.070  14.102 -0.8726  0.4727 -0.0299
 7978TIP3    H245426   2.793   4.161  14.019  1.6838 -1.5515  0.3947
 7979TIP3   OH245427   5.325   0.404   4.316  0.2010  0.6577  0.1046
 7979TIP3    H145428   5.414   0.420   4.349  0.6091  1.4492 -1.2985
 7979TIP3    H245429   5.310   0.477   4.255 -1.1782  0.1843 -0.1172
 7980TIP3   OH245430   5.909   4.342  11.664  0.1247  0.2409  0.6172
 7980TIP3    H145431   5.926   4.255  11.700 -0.6896 -0.1848 -0.0002
 7980TIP3    H245432   5.966   4.348  11.587 -1.1169 -0.4441 -0.3609
 7981TIP3   OH245433   0.482   3.569  16.136 -0.1800 -0.0204 -0.3732
 7981TIP3    H145434   0.424   3.594  16.207 -0.6377  1.7131 -1.3026
 7981TIP3    H245435   0.433   3.589  16.056  1.4611  1.0141 -1.1735
 7982TIP3   OH245436   1.117   4.048   3.718 -0.3789 -0.0648  0.4348
 7982TIP3    H145437   1.196   4.036   3.771  0.8290 -0.8198 -1.4800
 7982TIP3    H245438   1.058   4.100   3.773  0.9236 -0.6581  2.4079
 7983TIP3   OH245439   4.506   3.312   6.118 -0.5267 -0.4298 -0.5549
 7983TIP3    H145440   4.577   3.262   6.078  0.7284  0.6456  0.2900
 7983TIP3    H245441   4.526   3.312   6.212 -0.8415  1.1005 -0.4648
 7984TIP3   OH245442   2.058   3.228  14.115 -0.3755 -0.1489  0.5804
 7984TIP3    H145443   2.038   3.302  14.172 -1.7852  1.2298 -1.6594
 7984TIP3    H245444   1.992   3.162  14.138 -1.5798  0.7902 -0.1682
 7985TIP3   OH245445   4.237   6.784   2.743  0.1153  0.6163 -0.2785
 7985TIP3    H145446   4.213   6.735   2.664  1.7232  0.4040 -0.6528
 7985TIP3    H245447   4.259   6.872   2.710  1.0242  0.4577 -0.0993
 7986TIP3   OH245448   6.731   6.172   4.028 -0.1580 -0.2451  0.2444
 7986TIP3    H145449   6.713   6.250   3.976  3.7611 -0.6760 -1.9724
 7986TIP3    H245450   6.766   6.205   4.111  1.4408  0.4035 -0.6707
 7987TIP3   OH245451   3.358   4.997   1.578 -0.4982  0.0120 -0.5338
 7987TIP3    H145452   3.266   5.016   1.599 -0.7596 -1.7445 -0.0335
 7987TIP3    H245453   3.354   4.920   1.522  0.6950 -0.2661 -0.2464
 7988TIP3   OH245454   5.446   6.136  14.939 -0.1571  0.0276 -0.7847
 7988TIP3    H145455   5.381   6.157  14.871 -1.6481 -3.5177 -0.5804
 7988TIP3    H245456   5.492   6.059  14.904  2.0940  0.8644  0.2963
 7989TIP3   OH245457   0.104   6.713  13.750  0.0742 -0.1211  0.3209
 7989TIP3    H145458   0.114   6.796  13.703  1.0080 -0.3556  0.0804
 7989TIP3    H245459   0.157   6.651  13.699 -3.3886 -1.7002 -1.4821
 7990TIP3   OH245460   1.762   6.542  14.424  0.5581  0.3216 -0.0539
 7990TIP3    H145461   1.718   6.467  14.384  1.2575  0.0532 -0.3240
 7990TIP3    H245462   1.768   6.607  14.353  0.6659  0.3275 -0.0390
 7991TIP3   OH245463   6.135   1.108  16.275  0.3968  0.0520 -0.0481
 7991TIP3    H145464   6.072   1.037  16.291  0.2145  0.6736  2.1512
 7991TIP3    H245465   6.210   1.085  16.330  1.0858  0.6270 -0.7428
 7992TIP3   OH245466   0.660   2.051   1.499  0.3660  0.0303  0.4518
 7992TIP3    H145467   0.655   2.047   1.403  1.0994  0.4923  0.3935
 7992TIP3    H245468   0.604   1.980   1.529 -0.2502  0.1886 -0.3190
 7993TIP3   OH245469   1.457   3.488  15.125  0.1281  0.1406  0.2055
 7993TIP3    H145470   1.525   3.477  15.192  0.3623  1.3646  0.1697
 7993TIP3    H245471   1.450   3.401  15.085  3.6386  0.5903 -1.6366
 7994TIP3   OH245472   0.184   3.770   4.707 -0.1592  0.1283  0.4332
 7994TIP3    H145473   0.113   3.735   4.654  0.2648  1.9606 -1.4127
 7994TIP3    H245474   0.264   3.740   4.662  0.2030  2.3058 -0.4713
 7995TIP3   OH245475   2.585   3.804   3.655 -0.0086 -0.5501 -0.1480
 7995TIP3    H145476   2.585   3.733   3.719  1.9212 -1.2745 -0.9237
 7995TIP3    H245477   2.576   3.884   3.708  0.1318 -1.2238  0.9127
 7996TIP3   OH245478   1.386   4.772  14.703  0.0617  0.5999 -0.0515
 7996TIP3    H145479   1.344   4.695  14.664 -0.5386  1.9980 -2.2447
 7996TIP3    H245480   1.319   4.810  14.759  0.2731 -0.3084  0.8370
 7997TIP3   OH245481   4.839   6.196   1.149  0.3604  0.2689 -0.4231
 7997TIP3    H145482   4.753   6.224   1.119  0.2503 -0.8768 -1.2089
 7997TIP3    H245483   4.898   6.266   1.121 -0.5058  1.7960  1.4570
 7998TIP3   OH245484   1.550   4.786  11.946  0.2555 -0.6113 -0.1562
 7998TIP3    H145485   1.620   4.850  11.931  0.5549 -1.2615 -1.5470
 7998TIP3    H245486   1.476   4.839  11.977  1.2914  0.0951  1.2035
 7999TIP3   OH245487   1.501   1.102   4.765  0.3717 -0.3463 -0.0556
 7999TIP3    H145488   1.425   1.065   4.720  0.1815  1.6042 -1.3966
 7999TIP3    H245489   1.574   1.047   4.737  0.2745  0.9137 -2.8847
 8000TIP3   OH245490   1.961   4.257  10.830  0.1242  0.1846  0.6191
 8000TIP3    H145491   1.961   4.326  10.896 -1.1519  0.1449  0.6701
 8000TIP3    H245492   2.047   4.263  10.788 -0.1308  2.0790  0.3399
 8001TIP3   OH245493   5.535   4.669  12.074 -0.4749 -0.2603 -0.0262
 8001TIP3    H145494   5.460   4.623  12.111  0.7562 -2.3429 -0.0646
 8001TIP3    H245495   5.602   4.666  12.142 -0.2797  1.2914 -0.1205
 8002TIP3   OH245496   0.586   1.294   0.109 -0.2802  0.4095  0.0786
 8002TIP3    H145497   0.647   1.236   0.156  0.6421  0.8039 -0.6121
 8002TIP3    H245498   0.534   1.234   0.055  0.4015  0.1688 -0.3338
 8003TIP3   OH245499   4.738   6.426  15.149 -0.7902  0.1732 -0.2388
 8003TIP3    H145500   4.767   6.481  15.077 -0.8218  1.0929  0.4348
 8003TIP3    H245501   4.813   6.369  15.167  0.5999  2.3888  1.3492
 8004TIP3   OH245502   0.038   1.209  15.137  0.3196 -0.0784  0.0199
 8004TIP3    H145503   0.110   1.255  15.181  1.1236 -0.1852 -1.1467
 8004TIP3    H245504  -0.023   1.187  15.207  0.8582  1.0598  0.8647
 8005TIP3   OH245505   3.132   2.415   6.020  0.2998 -0.3692 -0.3393
 8005TIP3    H145506   3.209   2.457   5.982  0.2355  0.5701  0.5669
 8005TIP3    H245507   3.077   2.487   6.050 -0.7337 -1.0464 -0.5796
 8006TIP3   OH245508   4.246   0.465   5.358  0.4029  0.2422  0.1894
 8006TIP3    H145509   4.211   0.518   5.286 -2.0151 -1.7100 -0.1340
 8006TIP3    H245510   4.314   0.411   5.317  0.0420  0.1794 -0.3356
 8007TIP3   OH245511   4.019   4.159  14.255 -0.5742  0.5667  1.0644
 8007TIP3    H145512   4.038   4.252  14.243  0.1139  0.6186  2.5684
 8007TIP3    H245513   4.043   4.119  14.171 -0.0347  1.6061  0.7144
 8008TIP3   OH245514   0.495   0.583   0.229  0.0987 -0.2308 -0.4337
 8008TIP3    H145515   0.575   0.594   0.178  0.0260 -3.0952 -1.2365
 8008TIP3    H245516   0.425   0.589   0.163 -0.1281 -1.6211 -0.3173
 8009TIP3   OH245517   0.713   5.924   0.829  0.7301  0.3536 -0.1637
 8009TIP3    H145518   0.718   5.844   0.777 -0.2726  1.0853 -1.4141
 8009TIP3    H245519   0.799   5.965   0.820  1.6094 -1.1011  1.3610
 8010TIP3   OH245520   3.730   2.245   0.904 -0.1094  0.6461  0.0847
 8010TIP3    H145521   3.667   2.274   0.970  1.7622 -1.8864  3.0768
 8010TIP3    H245522   3.706   2.154   0.885  1.9326  0.0110  0.4238
 8011TIP3   OH245523   0.250   2.119  13.584  0.0466 -0.4032  0.2378
 8011TIP3    H145524   0.203   2.092  13.663  0.7439 -2.5787 -0.0586
 8011TIP3    H245525   0.214   2.064  13.515 -0.3855  1.3262 -0.9364
 8012TIP3   OH245526   6.417   1.662  13.366  0.4345  0.0300  0.3589
 8012TIP3    H145527   6.480   1.701  13.306  1.4208 -1.0363  0.6818
 8012TIP3    H245528   6.358   1.612  13.309  1.9808 -1.8241  0.3301
 8013TIP3   OH245529   0.108   3.039   2.181 -0.2175  0.3693 -0.3144
 8013TIP3    H145530   0.055   3.101   2.131 -1.1639 -0.8134 -0.7891
 8013TIP3    H245531   0.052   2.962   2.192  1.6110 -1.1713 -1.3918
 8014TIP3   OH245532   1.852   2.777  14.184 -0.2160  0.5572  0.2889
 8014TIP3    H145533   1.943   2.747  14.179 -0.5524 -0.1779 -2.6427
 8014TIP3    H245534   1.802   2.697  14.198 -0.5986  0.5493 -1.0064
 8015TIP3   OH245535   1.032   6.264   4.275  0.2977 -0.0765 -0.3728
 8015TIP3    H145536   0.969   6.195   4.254 -0.1639  0.3516 -0.4002
 8015TIP3    H245537   1.018   6.282   4.367  0.8172 -0.4193 -0.2248
 8016TIP3   OH245538   1.020   5.988  12.255 -0.0612  0.5829  0.2259
 8016TIP3    H145539   1.009   6.064  12.312  1.0183 -0.0069  1.2516
 8016TIP3    H245540   1.111   5.962  12.268 -0.0555 -0.0961 -1.1153
 8017TIP3   OH245541   3.887   5.639  12.565  0.1542 -0.0592  0.0977
 8017TIP3    H145542   3.947   5.687  12.623 -0.2469  0.3879  0.1490
 8017TIP3    H245543   3.800   5.669  12.591 -0.1621 -1.5108  0.7555
 8018TIP3   OH245544   4.753   2.960   6.209  0.3493  0.3220  0.4667
 8018TIP3    H145545   4.820   3.029   6.205  4.1597 -3.3006 -1.4811
 8018TIP3    H245546   4.787   2.897   6.271 -2.1625 -0.8304  0.7416
 8019TIP3   OH245547   4.879   5.320   1.833 -0.0615 -0.1865  0.5020
 8019TIP3    H145548   4.881   5.305   1.927 -0.3748 -1.0073  0.3833
 8019TIP3    H245549   4.971   5.334   1.809 -0.1035  1.2467  1.1078
 8020TIP3   OH245550   5.660   4.350  15.409  0.7542  0.4170 -0.2369
 8020TIP3    H145551   5.729   4.325  15.471  1.8494 -0.5109 -1.7816
 8020TIP3    H245552   5.673   4.444  15.395  0.4939  0.6347  0.9236
 8021TIP3   OH245553   1.302   0.844   0.271 -0.1153 -0.2555  0.0513
 8021TIP3    H145554   1.391   0.863   0.241  0.1984 -0.6999  0.6954
 8021TIP3    H245555   1.269   0.927   0.304  0.0516 -0.0817 -0.2188
 8022TIP3   OH245556   4.182   6.787   3.963 -0.2194 -0.0464 -0.3944
 8022TIP3    H145557   4.126   6.709   3.969 -0.1270 -0.1314 -0.6026
 8022TIP3    H245558   4.242   6.767   3.892  0.1788 -0.0172 -0.0635
 8023TIP3   OH245559   2.940   6.115  17.230  0.1105 -0.2503  0.6008
 8023TIP3    H145560   2.858   6.094  17.186 -0.3771  1.0730  0.8671
 8023TIP3    H245561   2.992   6.160  17.163 -0.1837  0.7348  1.0245
 8024TIP3   OH245562   1.276   5.535  12.939 -0.2529 -0.2185  0.2110
 8024TIP3    H145563   1.321   5.616  12.913  3.4085 -1.8498  1.1194
 8024TIP3    H245564   1.267   5.485  12.858  0.6358 -0.3417  0.1786
 8025TIP3   OH245565   0.769   0.872   2.816 -0.0326 -1.0777  0.1837
 8025TIP3    H145566   0.753   0.947   2.758 -0.3816 -1.6652 -0.4964
 8025TIP3    H245567   0.720   0.891   2.895  0.9585  0.0389  0.5478
 8026TIP3   OH245568   5.582   5.612  14.076  0.2119 -0.1099 -0.1665
 8026TIP3    H145569   5.504   5.623  14.131 -0.4869 -2.9292 -0.5372
 8026TIP3    H245570   5.649   5.580  14.137  0.1935 -0.6513 -0.4278
 8027TIP3   OH245571   5.846   4.197   2.422  0.0877  0.0643 -0.2003
 8027TIP3    H145572   5.881   4.237   2.501 -1.5143 -2.3369  1.8116
 8027TIP3    H245573   5.839   4.268   2.359  1.2472  2.0521  1.8716
 8028TIP3   OH245574   5.206   2.044  14.207 -0.1988 -0.3946  0.0057
 8028TIP3    H145575   5.296   2.017  14.187 -0.4429 -1.1332 -0.1366
 8028TIP3    H245576   5.212   2.138  14.221  0.1408  0.0362 -2.7220
 8029TIP3   OH245577   5.634   6.439   6.211 -0.0450 -0.0366 -0.1488
 8029TIP3    H145578   5.724   6.470   6.214 -0.1467  0.3060 -0.7022
 8029TIP3    H245579   5.581   6.513   6.240 -0.2566  0.1964 -1.1202
 8030TIP3   OH245580   4.452   5.895   4.350  0.4890 -0.0043 -0.1020
 8030TIP3    H145581   4.492   5.808   4.341  2.8379  1.1157 -0.8949
 8030TIP3    H245582   4.524   5.956   4.335 -1.5000  2.1202 -1.3296
 8031TIP3   OH245583   0.214   6.497  16.547 -0.2007  0.0938  0.3567
 8031TIP3    H145584   0.226   6.424  16.608 -1.6929  0.8298  1.5736
 8031TIP3    H245585   0.299   6.508  16.506  0.8978 -0.3394  2.4271
 8032TIP3   OH245586   3.822   6.737   6.043  0.3965  0.5674 -0.3204
 8032TIP3    H145587   3.910   6.749   6.007  0.5422  1.9610  0.4521
 8032TIP3    H245588   3.765   6.784   5.982  0.1456 -0.5925 -0.9871
 8033TIP3   OH245589   4.829   2.668   4.726  0.4764 -0.0051 -0.5175
 8033TIP3    H145590   4.846   2.581   4.692 -0.9843 -1.1618  1.5689
 8033TIP3    H245591   4.850   2.662   4.819 -2.5226  0.9791  0.3044
 8034TIP3   OH245592   5.854   6.055  17.228  0.2471  0.2557 -0.2442
 8034TIP3    H145593   5.930   6.081  17.281  0.0150  2.2781 -0.8652
 8034TIP3    H245594   5.824   6.136  17.188 -2.2892 -0.5101  0.0151
 8035TIP3   OH245595   4.359   1.715  13.695 -0.0477 -0.3946 -0.0568
 8035TIP3    H145596   4.432   1.654  13.688 -0.2832 -0.5250 -1.5883
 8035TIP3    H245597   4.316   1.691  13.777  2.5982  0.7983  1.7680
 8036TIP3   OH245598   2.082   6.527   4.774 -0.2428 -0.9616 -0.3573
 8036TIP3    H145599   1.993   6.503   4.800 -0.6701 -0.0874 -1.0176
 8036TIP3    H245600   2.073   6.611   4.731  0.7503 -1.4304 -1.5010
 8037TIP3   OH245601   2.295   0.062   4.781  0.3762  0.4125 -0.2678
 8037TIP3    H145602   2.283   0.015   4.864  0.8782  1.1439  0.2198
 8037TIP3    H245603   2.264   0.150   4.798  3.2020  1.4052  0.0326
 8038TIP3   OH245604   3.626   2.836  11.546 -0.2375 -0.4126 -0.3979
 8038TIP3    H145605   3.663   2.748  11.544 -0.0140 -0.3050 -1.3323
 8038TIP3    H245606   3.592   2.846  11.635  2.2031 -0.4118  0.5661
 8039TIP3   OH245607   0.133   0.258  16.211 -0.2900  0.0861 -0.1051
 8039TIP3    H145608   0.227   0.273  16.221 -0.5278  1.2061  0.5517
 8039TIP3    H245609   0.126   0.165  16.188  1.1469  0.6040 -2.8783
 8040TIP3   OH245610   4.382   3.548   4.408 -0.1691  0.3862 -0.2876
 8040TIP3    H145611   4.323   3.594   4.347 -2.8591 -1.2421  0.9886
 8040TIP3    H245612   4.390   3.460   4.371  2.4258  0.9171 -1.0496
 8041TIP3   OH245613   2.162   0.353   4.738  0.4059  0.6690 -0.0683
 8041TIP3    H145614   2.147   0.444   4.711 -0.8393  0.1236 -1.3252
 8041TIP3    H245615   2.076   0.312   4.728  1.5295 -1.2825 -2.1451
 8042TIP3   OH245616   4.050   3.772   1.646  0.0146 -0.4028  0.3234
 8042TIP3    H145617   4.066   3.810   1.732 -1.0628 -0.3334  0.4994
 8042TIP3    H245618   3.962   3.803   1.622 -0.3392 -1.7195 -0.1003
 8043TIP3   OH245619   0.070   1.718  14.709  0.0185 -0.2339  0.1067
 8043TIP3    H145620   0.048   1.695  14.800 -1.2323 -0.0069 -0.1379
 8043TIP3    H245621   0.029   1.650  14.657 -0.9916  0.7636 -0.4189
 8044TIP3   OH245622   1.983   4.364   1.591  0.4617 -0.5283  0.0839
 8044TIP3    H145623   2.043   4.428   1.551  0.2606 -0.3387  0.0893
 8044TIP3    H245624   2.041   4.308   1.643  0.3673  1.1074  2.0068
 8045TIP3   OH245625   4.270   4.888   0.568  0.0172  0.2591 -0.4829
 8045TIP3    H145626   4.339   4.837   0.527  0.4098  2.4746 -2.6659
 8045TIP3    H245627   4.315   4.955   0.618 -0.5237  1.2209 -1.2669
 8046TIP3   OH245628   0.394   5.965  15.249 -0.3496 -0.8313  0.2620
 8046TIP3    H145629   0.461   6.007  15.303 -1.7775  0.3361  1.1801
 8046TIP3    H245630   0.393   5.874  15.279 -1.3384 -0.1316  2.4724
 8047TIP3   OH245631   3.392   1.049   4.438 -0.2275  0.4611  0.0910
 8047TIP3    H145632   3.329   0.985   4.406 -1.5582  1.4969  0.5715
 8047TIP3    H245633   3.370   1.061   4.531  1.4867 -0.0892  0.5847
 8048TIP3   OH245634   5.282   2.735   6.694 -0.3901 -0.0157 -0.7735
 8048TIP3    H145635   5.296   2.693   6.779  0.9760  0.2330 -0.8645
 8048TIP3    H245636   5.261   2.662   6.635 -1.5653 -0.1634 -0.1948
 8049TIP3   OH245637   4.500   1.483  13.643 -0.4381 -0.1694 -0.2508
 8049TIP3    H145638   4.493   1.390  13.666  1.7417  0.1065  1.8074
 8049TIP3    H245639   4.585   1.489  13.599  0.0800  1.0722  0.9066
 8050TIP3   OH245640   0.909   6.230  17.078  0.4839  0.1307  0.5581
 8050TIP3    H145641   0.906   6.290  17.152  0.4778 -0.3577  0.9573
 8050TIP3    H245642   0.826   6.243  17.033 -0.0730 -0.5140  1.3825
 8051TIP3   OH245643   5.559   1.953  16.413 -0.5553 -0.5250  0.0609
 8051TIP3    H145644   5.492   1.895  16.377  0.5951 -2.2015  0.5851
 8051TIP3    H245645   5.630   1.951  16.348 -0.7019  0.6566 -0.1387
 8052TIP3   OH245646   0.804   2.692  15.259  0.2591 -0.6540  0.2370
 8052TIP3    H145647   0.771   2.607  15.288 -0.2834 -0.0260  1.4883
 8052TIP3    H245648   0.725   2.743  15.240  0.5834 -0.4877 -0.7270
 8053TIP3   OH245649   1.261   3.009  11.037  0.0054 -0.5161 -0.4047
 8053TIP3    H145650   1.194   2.968  10.982 -1.3824  0.4227  0.5768
 8053TIP3    H245651   1.330   3.034  10.975 -0.4584 -1.6457 -1.3953
 8054TIP3   OH245652   3.733   1.561   0.859 -0.6104  0.1215 -0.1178
 8054TIP3    H145653   3.676   1.605   0.922 -1.0489  0.7237 -0.9221
 8054TIP3    H245654   3.674   1.507   0.806 -0.2212 -0.5355  0.1135
 8055TIP3   OH245655   2.792   4.985  13.778 -0.4930  0.3054 -0.1652
 8055TIP3    H145656   2.769   4.898  13.809 -2.7398  1.9062  2.9348
 8055TIP3    H245657   2.789   4.979  13.683  2.4864 -3.7374 -0.1318
 8056TIP3   OH245658   2.192   5.626  11.984 -0.2058 -0.6662 -0.4211
 8056TIP3    H145659   2.126   5.560  11.967  1.8419 -2.4851 -1.6110
 8056TIP3    H245660   2.247   5.626  11.905  1.8372  0.0293  0.9395
 8057TIP3   OH245661   0.349   5.925  13.663  0.2681 -0.4032 -0.5767
 8057TIP3    H145662   0.281   5.874  13.619  1.2059 -1.5147 -0.7489
 8057TIP3    H245663   0.338   6.014  13.629 -1.7037 -0.3419  0.1112
 8058TIP3   OH245664   1.759   5.579   4.796  0.2580 -0.4528 -0.1768
 8058TIP3    H145665   1.710   5.518   4.742 -1.1503  0.2955  0.2160
 8058TIP3    H245666   1.693   5.617   4.855  1.8095 -1.5956  2.3719
 8059TIP3   OH245667   3.462   6.271   1.064 -0.3974 -0.6423  0.0086
 8059TIP3    H145668   3.400   6.304   1.130 -0.7112 -0.2707 -0.4590
 8059TIP3    H245669   3.533   6.336   1.064  0.2320 -1.3218  0.8833
 8060TIP3   OH245670   4.584   5.459  12.659 -0.2740  0.2190 -0.9071
 8060TIP3    H145671   4.628   5.491  12.580  1.8243  1.5271  0.7474
 8060TIP3    H245672   4.552   5.538  12.702 -1.3228 -0.4879 -0.3668
 8061TIP3   OH245673   4.266   5.652  17.274  0.1332 -0.0081 -0.0399
 8061TIP3    H145674   4.188   5.707  17.260 -0.3026 -0.9514 -1.3937
 8061TIP3    H245675   4.291   5.670  17.365  0.8501  3.5319 -0.8444
 8062TIP3   OH245676   2.799   4.470   6.637  0.6829 -0.1629 -0.0930
 8062TIP3    H145677   2.840   4.440   6.556  0.2843 -0.2513 -0.2604
 8062TIP3    H245678   2.851   4.546   6.663 -1.1060  1.8080 -2.1154
 8063TIP3   OH245679   4.321   1.218   4.484 -0.0177 -0.0576 -0.1852
 8063TIP3    H145680   4.243   1.207   4.430 -1.1171  1.3356  1.0756
 8063TIP3    H245681   4.310   1.156   4.556  1.1374 -1.4523 -1.1731
 8064TIP3   OH245682   4.210   2.527   0.855 -0.0553  0.0470 -0.1268
 8064TIP3    H145683   4.248   2.446   0.888 -0.6474 -0.6552 -1.1513
 8064TIP3    H245684   4.124   2.532   0.897  0.2093  0.4304  0.3695
 8065TIP3   OH245685   0.295   2.389   1.931  0.4743 -0.1956  0.3487
 8065TIP3    H145686   0.246   2.419   1.854 -0.1294 -0.2588  0.6985
 8065TIP3    H245687   0.361   2.457   1.945  0.9567 -0.4705 -0.5591
 8066TIP3   OH245688   2.345   2.598   1.144 -0.1013  0.1359 -0.1889
 8066TIP3    H145689   2.372   2.523   1.091 -1.6824 -1.5226  1.2756
 8066TIP3    H245690   2.263   2.627   1.104 -0.7776 -0.4911  0.7310
 8067TIP3   OH245691   1.565   6.606   4.140 -0.7480  0.2752 -0.1154
 8067TIP3    H145692   1.641   6.663   4.147  0.5469 -1.1481 -2.0642
 8067TIP3    H245693   1.579   6.539   4.207 -0.7084  0.4985  0.0982
 8068TIP3   OH245694   0.878   4.597   2.714  0.0684 -0.0448 -0.2025
 8068TIP3    H145695   0.856   4.639   2.797 -0.9433  1.1399 -1.0726
 8068TIP3    H245696   0.848   4.507   2.725  0.8652 -0.1829  1.0826
 8069TIP3   OH245697   1.731   0.342   4.927 -0.5053  0.1386 -0.5604
 8069TIP3    H145698   1.759   0.433   4.941 -0.1840  0.2819 -2.0294
 8069TIP3    H245699   1.804   0.302   4.879 -1.6901 -0.1967 -2.1297
 8070TIP3   OH245700   0.044   2.640   4.354 -0.1711  0.5141  0.2159
 8070TIP3    H145701   0.028   2.578   4.426 -0.5807  0.4237  0.0482
 8070TIP3    H245702  -0.016   2.613   4.285  0.3286  0.5070 -0.2237
 8071TIP3   OH245703   6.167   4.282  14.890 -0.9666  0.1705 -0.0101
 8071TIP3    H145704   6.240   4.255  14.834 -2.7206  0.2484 -2.4178
 8071TIP3    H245705   6.181   4.375  14.906 -0.6202  0.2265 -0.6193
 8072TIP3   OH245706   5.593   1.763   1.576 -0.7342 -0.0507  0.1153
 8072TIP3    H145707   5.641   1.681   1.571 -0.1936  0.1972  1.1274
 8072TIP3    H245708   5.614   1.809   1.495  0.4024 -0.1226  0.3650
 8073TIP3   OH245709   4.797   4.566   2.155  0.7476 -0.6158  0.1634
 8073TIP3    H145710   4.751   4.482   2.150  0.4766 -0.5658  1.5866
 8073TIP3    H245711   4.744   4.619   2.214  2.7451 -0.6539  2.0542
 8074TIP3   OH245712   5.680   2.971   2.962  0.3236  0.1628 -0.4280
 8074TIP3    H145713   5.710   3.062   2.973 -2.3618  1.0754 -0.2571
 8074TIP3    H245714   5.727   2.922   3.030  2.7635  1.1560 -1.3343
 8075TIP3   OH245715   2.075   3.730  13.326  0.1543 -0.3558  0.2458
 8075TIP3    H145716   2.078   3.793  13.398 -0.8376  0.5738 -0.5139
 8075TIP3    H245717   1.984   3.700  13.325  0.2967 -0.7728 -0.2782
 8076TIP3   OH245718   3.746   5.066   3.157 -0.1035  0.3446 -0.3651
 8076TIP3    H145719   3.796   5.086   3.236 -0.8046  2.0159 -0.3211
 8076TIP3    H245720   3.803   5.094   3.085  0.0006  0.0246 -0.4085
 8077TIP3   OH245721   3.347   5.432   4.989 -0.2703 -0.0132 -0.0080
 8077TIP3    H145722   3.338   5.526   4.975 -2.3085 -0.2632 -0.5697
 8077TIP3    H245723   3.279   5.393   4.934  1.9972 -1.9679 -1.5678
 8078TIP3   OH245724   0.804   5.379   1.391 -0.4486  0.4803  0.5930
 8078TIP3    H145725   0.715   5.387   1.424  0.0352 -0.4913  2.1797
 8078TIP3    H245726   0.826   5.466   1.359 -2.8854  0.1384 -2.2138
 8079TIP3   OH245727   4.158   4.303  16.648  0.1453  0.2362  0.2467
 8079TIP3    H145728   4.186   4.281  16.737  4.2612  0.2562 -0.9880
 8079TIP3    H245729   4.180   4.227  16.595 -1.6497  0.4894 -0.9345
 8080TIP3   OH245730   5.637   4.977   1.016 -0.1449  0.3023  0.2460
 8080TIP3    H145731   5.662   4.916   1.085  1.8127  0.0913 -0.6122
 8080TIP3    H245732   5.552   5.012   1.044  0.4175 -0.0962  2.5333
 8081TIP3   OH245733   0.684   6.383  10.847  0.4471  0.0639 -0.0581
 8081TIP3    H145734   0.744   6.457  10.863 -1.2947  1.0769  2.0560
 8081TIP3    H245735   0.607   6.424  10.807 -0.6557 -0.5563  1.4161
 8082TIP3   OH245736   0.741   1.811  15.774  0.2540  0.5170  0.0146
 8082TIP3    H145737   0.706   1.844  15.856  0.4242  0.7187  0.0056
 8082TIP3    H245738   0.696   1.861  15.706  0.7703  0.9785  0.0114
 8083TIP3   OH245739   1.080   0.022  15.419  0.0085  0.3370 -0.3142
 8083TIP3    H145740   1.054  -0.071  15.414 -0.6999  0.3860  1.8279
 8083TIP3    H245741   1.176   0.020  15.414  0.0193 -0.5540 -0.0126
 8084TIP3   OH245742   2.872   1.359   3.379 -0.2680  0.3309 -0.6293
 8084TIP3    H145743   2.858   1.289   3.443 -0.0358 -1.1529 -2.1569
 8084TIP3    H245744   2.895   1.435   3.431  0.3742 -0.9656  1.0251
 8085TIP3   OH245745   4.484   6.788  13.716 -0.2488  0.6674  0.6881
 8085TIP3    H145746   4.399   6.809  13.677  0.6464  2.2420 -0.4971
 8085TIP3    H245747   4.542   6.775  13.641  0.3682 -1.3207  1.4775
 8086TIP3   OH245748   6.308   5.719  14.495  0.3390  0.2519 -0.8634
 8086TIP3    H145749   6.384   5.664  14.514 -0.7082 -1.2565 -0.9378
 8086TIP3    H245750   6.335   5.773  14.421  0.9929 -0.9810 -1.5344
 8087TIP3   OH245751   2.407   1.792   0.141 -0.2514 -0.6051 -0.3754
 8087TIP3    H145752   2.402   1.784   0.046 -1.6256 -1.3565 -0.2558
 8087TIP3    H245753   2.347   1.726   0.174  0.5823 -0.6832  1.0343
 8088TIP3   OH245754   4.088   2.852  15.104  0.3210  0.3756  0.0904
 8088TIP3    H145755   4.034   2.839  15.026  0.9320 -2.9336  0.1628
 8088TIP3    H245756   4.030   2.835  15.178  0.6990 -0.2553  0.2466
 8089TIP3   OH245757   5.522   4.655  17.018 -0.0663  0.6549 -0.6382
 8089TIP3    H145758   5.551   4.577  17.064  1.8719  1.0132 -1.2157
 8089TIP3    H245759   5.457   4.623  16.955 -0.5898 -0.2210  0.3364
 8090TIP3   OH245760   3.806   6.769   3.771  0.3298 -0.4676 -0.3100
 8090TIP3    H145761   3.772   6.680   3.773  0.7374 -0.6001  1.3071
 8090TIP3    H245762   3.798   6.795   3.679 -0.1329 -2.0286 -0.7370
 8091TIP3   OH245763   6.204   1.016  14.386  0.0785 -0.0090 -0.7077
 8091TIP3    H145764   6.168   1.085  14.440  0.2573  1.2640 -2.1704
 8091TIP3    H245765   6.195   1.048  14.296  0.5040 -1.7154 -1.3908
 8092TIP3   OH245766   2.780   1.594   1.330 -0.2164  0.8152 -0.2207
 8092TIP3    H145767   2.761   1.522   1.270  1.9239 -1.2028  1.3956
 8092TIP3    H245768   2.871   1.617   1.313 -0.0763  1.3098  1.1061
 8093TIP3   OH245769   6.234   0.230  12.861  0.2189 -0.1695 -0.4998
 8093TIP3    H145770   6.325   0.240  12.889 -0.6711  3.0146  1.4807
 8093TIP3    H245771   6.240   0.180  12.779  3.6216 -1.1673  0.2826
 8094TIP3   OH245772   5.449   6.220  12.987  0.3979  0.2530 -0.3974
 8094TIP3    H145773   5.537   6.229  12.950  0.7725  0.3912  0.5116
 8094TIP3    H245774   5.463   6.185  13.075 -0.4908 -0.2140 -0.4332
 8095TIP3   OH245775   4.089   1.533   4.843  0.3237  0.1909 -0.3260
 8095TIP3    H145776   4.025   1.485   4.790 -0.8109  0.9629  0.2981
 8095TIP3    H245777   4.076   1.625   4.818  0.5640  0.4418  0.4700
 8096TIP3   OH245778   0.373   0.975  16.153 -0.3080 -0.3268  0.4793
 8096TIP3    H145779   0.281   0.950  16.156 -0.6595  0.9004  0.1690
 8096TIP3    H245780   0.372   1.070  16.140  0.9998 -0.5018 -1.1192
 8097TIP3   OH245781   4.924   0.874   5.374 -0.1504 -0.2045 -0.5361
 8097TIP3    H145782   4.868   0.879   5.297 -1.0370 -1.1785  0.0233
 8097TIP3    H245783   4.927   0.780   5.395 -0.0997  0.0634  0.7250
 8098TIP3   OH245784   4.952   2.339  14.919 -0.4683  0.3461 -0.1175
 8098TIP3    H145785   4.957   2.250  14.953 -0.8182  0.4208  0.1331
 8098TIP3    H245786   5.035   2.379  14.943 -0.0155 -0.1311 -0.8510
 8099TIP3   OH245787   6.063   5.652  13.880  0.1907  0.0709 -0.1447
 8099TIP3    H145788   6.090   5.693  13.962  0.7361  0.2062 -0.3868
 8099TIP3    H245789   6.138   5.663  13.822  0.1078 -0.7127 -0.4140
 8100TIP3   OH245790   6.568   6.478  11.627  0.1865 -0.0208 -0.1590
 8100TIP3    H145791   6.587   6.502  11.536  2.5256 -1.4773 -0.1108
 8100TIP3    H245792   6.629   6.531  11.678 -0.8992  0.5534  0.5513
 8101TIP3   OH245793   2.418   2.443  12.703 -0.0451 -0.1543  0.4004
 8101TIP3    H145794   2.363   2.466  12.778 -1.6317 -0.1718 -0.7263
 8101TIP3    H245795   2.410   2.519  12.644  1.2044 -0.1305  0.2616
 8102TIP3   OH245796   6.567   5.480   1.210 -0.2255 -0.2865  0.2325
 8102TIP3    H145797   6.493   5.470   1.269 -1.8747 -1.1593 -1.9269
 8102TIP3    H245798   6.530   5.518   1.131  1.4809 -1.3942 -1.1325
 8103TIP3   OH245799   4.333   3.044  13.889  0.3812  0.4080 -0.0860
 8103TIP3    H145800   4.382   3.126  13.887 -1.1843  1.5182  3.1542
 8103TIP3    H245801   4.368   2.998  13.965 -0.4967 -0.8036 -0.4145
 8104TIP3   OH245802   2.191   2.582  13.197 -0.4219  0.4023 -0.6541
 8104TIP3    H145803   2.125   2.521  13.166 -1.1361  0.9730 -0.2706
 8104TIP3    H245804   2.145   2.636  13.262  1.0743 -0.9394  1.6247
 8105TIP3   OH245805   1.954   3.917   6.443 -0.1099 -0.4027  0.1736
 8105TIP3    H145806   1.950   3.980   6.515  1.6995 -0.2596  0.1689
 8105TIP3    H245807   2.047   3.903   6.428 -0.4347 -0.1677 -2.3804
 8106TIP3   OH245808   6.643   3.212  11.991 -0.3540  0.1616  0.0554
 8106TIP3    H145809   6.656   3.176  12.078  0.2576 -0.4764 -0.3001
 8106TIP3    H245810   6.730   3.239  11.962 -0.0826 -2.2195 -1.4900
 8107TIP3   OH245811   5.868   3.840  15.490  0.3267 -0.3995 -0.1640
 8107TIP3    H145812   5.929   3.905  15.526  0.5193 -0.6319 -0.0696
 8107TIP3    H245813   5.921   3.761  15.482  0.5726 -0.0892 -1.9111
 8108TIP3   OH245814   2.731   2.259   0.232  0.4694 -0.3761 -0.2721
 8108TIP3    H145815   2.642   2.225   0.228  0.3148  0.0056 -0.1328
 8108TIP3    H245816   2.782   2.201   0.175  0.1889 -0.7675 -0.1227
 8109TIP3   OH245817   1.810   0.750  14.575 -0.3347 -0.7217 -0.1483
 8109TIP3    H145818   1.812   0.804  14.654  1.1439  0.3430 -0.8832
 8109TIP3    H245819   1.737   0.785  14.523 -1.1368 -1.2508  0.5993
 8110TIP3   OH245820   6.460   5.465   2.092  0.1667  0.0791 -0.2096
 8110TIP3    H145821   6.511   5.468   2.010  2.1688  1.2069  1.0377
 8110TIP3    H245822   6.386   5.522   2.075  0.2186 -0.2057 -1.4723
 8111TIP3   OH245823   5.547   6.234   2.163  0.0703  0.2981  0.3323
 8111TIP3    H145824   5.546   6.316   2.212 -0.0365  1.9216 -2.2609
 8111TIP3    H245825   5.592   6.172   2.220  0.3289  2.2067  2.2676
 8112TIP3   OH245826   2.426   3.784  11.471  0.4951  0.1135  0.2812
 8112TIP3    H145827   2.480   3.767  11.394  1.4327 -1.2107  1.2137
 8112TIP3    H245828   2.389   3.871  11.456  0.0866 -0.4368 -1.9898
 8113TIP3   OH245829   1.261   0.318   5.593  0.0569 -0.5907 -0.1387
 8113TIP3    H145830   1.278   0.242   5.649  0.7226 -0.5279 -0.2604
 8113TIP3    H245831   1.307   0.299   5.511 -1.1592 -0.8287 -0.7941
 8114TIP3   OH245832   6.252   6.701   3.751 -0.6387 -0.0658  0.3338
 8114TIP3    H145833   6.156   6.700   3.759 -0.9000 -2.1120 -2.4296
 8114TIP3    H245834   6.275   6.614   3.720  1.9182  1.0506 -1.0906
 8115TIP3   OH245835   5.156   1.711   0.694  0.0271  0.3588 -0.1546
 8115TIP3    H145836   5.135   1.689   0.604  1.9641 -1.0339 -0.2993
 8115TIP3    H245837   5.094   1.780   0.717  0.4112  1.7459 -2.9994
 8116TIP3   OH245838   3.980   0.483  14.986 -0.2911  0.2820 -0.1578
 8116TIP3    H145839   3.987   0.475  14.891 -0.8117  0.2561 -0.1905
 8116TIP3    H245840   3.888   0.467  15.006 -0.5580  2.1194  0.1756
 8117TIP3   OH245841   5.006   6.256  11.668  0.1186 -0.2704 -0.2441
 8117TIP3    H145842   5.024   6.164  11.651 -0.9810 -0.3509 -0.9997
 8117TIP3    H245843   5.025   6.300  11.585 -0.6673 -0.0102 -0.2914
 8118TIP3   OH245844   0.525   1.990  16.673  0.0002 -0.2875  0.5619
 8118TIP3    H145845   0.583   1.941  16.732  1.3509 -0.6639 -1.0538
 8118TIP3    H245846   0.583   2.054  16.631 -0.9523 -0.0166 -0.3599
 8119TIP3   OH245847   5.450   4.756   5.846 -0.1987  0.7320  0.7282
 8119TIP3    H145848   5.403   4.676   5.872 -1.2735  1.8794  2.4240
 8119TIP3    H245849   5.517   4.767   5.914  0.6740  0.6701 -0.1164
 8120TIP3   OH245850   4.253   1.223  12.332  0.6297 -0.1101  0.6228
 8120TIP3    H145851   4.247   1.254  12.241  1.4263  0.0462  0.6266
 8120TIP3    H245852   4.193   1.281  12.380  0.5280  0.0808  0.2724
 8121TIP3   OH245853   6.665   6.472  10.310  0.1167 -0.0555 -0.5306
 8121TIP3    H145854   6.755   6.504  10.317  1.3179 -3.0878 -1.5032
 8121TIP3    H245855   6.629   6.485  10.398  1.2715  1.7904 -0.3024
 8122TIP3   OH245856   4.418   0.711   5.527  0.5108 -0.2034  0.1809
 8122TIP3    H145857   4.444   0.761   5.604  1.0566 -1.1767  0.6307
 8122TIP3    H245858   4.500   0.675   5.493  0.5744  1.7708 -1.9821
 8123TIP3   OH245859   0.304   5.553  16.335  1.0067 -0.5080  0.0445
 8123TIP3    H145860   0.348   5.582  16.414  0.6631 -0.1122  0.0969
 8123TIP3    H245861   0.211   5.566  16.353  0.8603 -1.5469  0.0175
 8124TIP3   OH245862   4.473   5.840   2.083 -0.2975 -0.1103  0.1941
 8124TIP3    H145863   4.388   5.825   2.043 -0.4148  0.5789  0.1877
 8124TIP3    H245864   4.535   5.798   2.023 -0.5177  0.4999 -0.4728
 8125TIP3   OH245865   0.834   2.453  15.909  0.0439  0.3365 -0.3033
 8125TIP3    H145866   0.836   2.360  15.888  1.8127  0.1860  0.4247
 8125TIP3    H245867   0.786   2.458  15.992  1.4202 -0.1392  0.5459
 8126TIP3   OH245868   2.207   4.765  11.939 -0.3565 -0.2492  0.0324
 8126TIP3    H145869   2.247   4.835  11.991 -0.9900 -0.2898  0.5844
 8126TIP3    H245870   2.279   4.728  11.889 -0.0334  0.8603 -0.3307
 8127TIP3   OH245871   4.465   1.836   0.976  0.3819 -0.4883 -0.2532
 8127TIP3    H145872   4.418   1.834   1.059 -0.7929 -1.1478 -0.9275
 8127TIP3    H245873   4.530   1.766   0.983  0.4528 -0.3786  0.1994
 8128TIP3   OH245874   1.603   2.645   5.373  0.0971 -0.9289 -0.4796
 8128TIP3    H145875   1.641   2.584   5.309 -0.3404 -0.9491 -0.7214
 8128TIP3    H245876   1.643   2.729   5.352  0.7797 -1.1463 -0.0828
 8129TIP3   OH245877   1.919   3.747  15.186  0.4125 -0.2979 -0.1967
 8129TIP3    H145878   1.939   3.782  15.099 -1.4993  0.5814 -0.3042
 8129TIP3    H245879   1.998   3.699  15.210  0.6455 -1.3284 -2.7976
 8130TIP3   OH245880   1.579   3.893   4.842  0.2029 -0.1419 -0.4424
 8130TIP3    H145881   1.655   3.841   4.815  0.1585  0.1150 -1.0884
 8130TIP3    H245882   1.602   3.926   4.929  1.1222  0.4805 -0.9027
 8131TIP3   OH245883   3.428   3.870  10.464 -0.1692 -0.6941  0.1440
 8131TIP3    H145884   3.517   3.837  10.475  0.2992  1.5222  3.7906
 8131TIP3    H245885   3.431   3.921  10.383  1.8056 -0.8865  0.0719
 8132TIP3   OH245886   5.981   0.931  13.534 -0.0822 -0.2595 -0.1136
 8132TIP3    H145887   5.920   1.001  13.513 -1.7794 -1.3303  1.1417
 8132TIP3    H245888   5.991   0.936  13.629  0.7742 -0.9255 -0.1610
 8133TIP3   OH245889   0.363   0.396  13.195  0.1661  0.0996 -0.1835
 8133TIP3    H145890   0.442   0.449  13.201  1.1119 -1.1894 -0.9595
 8133TIP3    H245891   0.320   0.427  13.115 -0.1201  0.7960  0.2349
 8134TIP3   OH245892   3.371   2.693  15.756  0.0677  0.4096  0.6616
 8134TIP3    H145893   3.353   2.680  15.663  1.5421  0.2582  0.3952
 8134TIP3    H245894   3.292   2.660  15.800  0.2041 -1.4532 -0.4326
 8135TIP3   OH245895   3.417   2.579   1.593 -0.1729  0.9905  0.3093
 8135TIP3    H145896   3.429   2.593   1.687 -0.7757  0.3346  0.4846
 8135TIP3    H245897   3.392   2.665   1.559 -2.4443  0.6724  1.1575
 8136TIP3   OH245898   2.549   5.160   3.298  0.6776  0.1731  0.1861
 8136TIP3    H145899   2.616   5.100   3.263  0.1442 -0.1548 -0.2836
 8136TIP3    H245900   2.472   5.105   3.309  0.9105  0.2150  2.1516
 8137TIP3   OH245901   2.151   3.699  14.898  0.3735  0.2946  0.0219
 8137TIP3    H145902   2.179   3.689  14.989  0.5477  0.0895 -0.0512
 8137TIP3    H245903   2.194   3.627  14.852 -0.8080 -0.4112  0.0189
 8138TIP3   OH245904   4.922   1.433  11.899  0.3660 -0.3196 -0.2308
 8138TIP3    H145905   5.005   1.450  11.855  0.0130 -2.0014 -1.6288
 8138TIP3    H245906   4.856   1.440  11.830 -0.7905  2.0430  1.0797
 8139TIP3   OH245907   2.471   2.094  11.503 -0.0438 -0.5355  0.4558
 8139TIP3    H145908   2.412   2.168  11.488  1.8265  0.8556 -0.1556
 8139TIP3    H245909   2.430   2.022  11.455 -1.6047  0.2123  0.6076
 8140TIP3   OH245910   6.603   4.797  14.308 -0.0577  0.0101  0.4707
 8140TIP3    H145911   6.601   4.885  14.345  0.2231  0.2274 -0.0287
 8140TIP3    H245912   6.556   4.743  14.372 -1.4918  0.7829  0.0976
 8141TIP3   OH245913   6.737   3.903  15.016 -0.5219  0.0309 -0.4602
 8141TIP3    H145914   6.688   3.895  14.934  2.4409  0.2542 -2.2824
 8141TIP3    H245915   6.820   3.860  14.999  0.2764  0.3641  2.3561
 8142TIP3   OH245916   2.066   0.859   2.301  0.2778  0.2510 -0.4517
 8142TIP3    H145917   2.142   0.878   2.246  0.2425  1.0487 -0.2296
 8142TIP3    H245918   2.092   0.888   2.389  0.6255 -1.7085  0.1220
 8143TIP3   OH245919   4.722   2.338  16.278 -0.3255 -0.0530  0.1148
 8143TIP3    H145920   4.806   2.292  16.281  0.7794  1.7742 -1.4514
 8143TIP3    H245921   4.669   2.288  16.216 -0.7646 -1.7544  1.8252
 8144TIP3   OH245922   2.950   3.089  16.756 -0.0160 -0.9167  0.5220
 8144TIP3    H145923   2.856   3.071  16.750 -0.2389  0.3373  0.1892
 8144TIP3    H245924   2.974   3.121  16.669  0.1730  1.2438  1.3399
 8145TIP3   OH245925   2.114   5.323   1.221 -0.1038  0.1917  0.5190
 8145TIP3    H145926   2.188   5.325   1.160 -1.2526  0.5054 -0.8857
 8145TIP3    H245927   2.044   5.278   1.174 -0.2089 -1.8513  2.5467
 8146TIP3   OH245928   4.397   2.903  12.029  0.0844  0.2896  0.1038
 8146TIP3    H145929   4.377   2.812  12.048 -0.3790  0.6520  1.4075
 8146TIP3    H245930   4.316   2.939  11.993  0.1798  0.2674 -0.1374
 8147TIP3   OH245931   4.269   6.118  11.595  0.2981 -0.4764  0.2224
 8147TIP3    H145932   4.360   6.141  11.610  0.4003 -0.5294 -0.3087
 8147TIP3    H245933   4.227   6.200  11.570  0.5804 -0.7832 -1.2883
 8148TIP3   OH245934   2.259   0.942  13.049 -0.1100 -0.4938  0.4184
 8148TIP3    H145935   2.309   0.894  13.116  0.5040 -0.7402 -0.2051
 8148TIP3    H245936   2.318   0.946  12.974 -0.4652  0.5445  0.1868
 8149TIP3   OH245937   2.488   4.969  12.911 -0.0779  0.5874 -0.3736
 8149TIP3    H145938   2.560   4.972  12.848 -0.0307  0.0403 -0.3534
 8149TIP3    H245939   2.522   4.916  12.984  0.2340  2.0904  0.5890
 8150TIP3   OH245940   3.876   2.618   1.766  0.2724  0.0818 -0.1742
 8150TIP3    H145941   3.859   2.635   1.859  0.3931 -1.2263  0.0903
 8150TIP3    H245942   3.960   2.662   1.749  1.1561 -1.1991  0.7894
 8151TIP3   OH245943   2.450   4.626  16.668  0.4195 -0.0301 -0.1213
 8151TIP3    H145944   2.473   4.597  16.757  1.1128  0.2396 -0.2110
 8151TIP3    H245945   2.430   4.719  16.678  0.8643  0.0854 -0.3137
 8152TIP3   OH245946   1.894   3.957  15.353 -0.2706 -0.2249 -0.1990
 8152TIP3    H145947   1.897   3.876  15.302  1.2093 -0.2046 -0.1536
 8152TIP3    H245948   1.811   3.952  15.401 -0.2618 -1.6458 -0.3079
 8153TIP3   OH245949   4.967   6.473  12.797  0.3276 -0.5000 -0.3457
 8153TIP3    H145950   5.015   6.453  12.717 -0.8702  0.4661 -1.3102
 8153TIP3    H245951   5.009   6.418  12.864  1.9742 -0.5704 -1.4105
 8154TIP3   OH245952   0.927   6.377  12.251  0.1580  0.5477 -0.0968
 8154TIP3    H145953   0.956   6.312  12.315 -1.6938  0.2252  0.4599
 8154TIP3    H245954   0.834   6.389  12.270 -0.4093  0.5060 -2.6881
 8155TIP3   OH245955   4.162   5.912  13.491 -0.1921 -0.2038  0.0304
 8155TIP3    H145956   4.242   5.893  13.540 -1.4613 -0.3365  2.1227
 8155TIP3    H245957   4.181   5.995  13.447  2.3673 -2.0322 -2.4421
 8156TIP3   OH245958   1.981   4.308  16.169  0.2070 -0.2493  0.0639
 8156TIP3    H145959   1.943   4.373  16.229  1.0138  1.0208 -0.7824
 8156TIP3    H245960   1.911   4.244  16.157 -0.6288  0.4797  0.8849
 8157TIP3   OH245961   1.374   5.306  14.355 -0.1717  0.1934 -0.0136
 8157TIP3    H145962   1.389   5.401  14.351  2.2374 -0.1009  1.1692
 8157TIP3    H245963   1.284   5.295  14.324 -0.5007  2.8672 -0.1556
 8158TIP3   OH245964   0.299   0.003   2.377 -0.5481  0.4717  0.5741
 8158TIP3    H145965   0.243  -0.029   2.306  0.0008  0.0255  0.3345
 8158TIP3    H245966   0.240   0.049   2.436 -0.9590  1.1389 -0.3482
 8159TIP3   OH245967   6.325   4.657   4.027 -0.0998  0.2780  0.3762
 8159TIP3    H145968   6.375   4.630   4.104 -0.9040  0.0747  0.8271
 8159TIP3    H245969   6.327   4.753   4.029 -0.1493  0.2735  0.6695
 8160TIP3   OH245970   0.660   5.290   4.940 -0.8732  0.2766  0.1335
 8160TIP3    H145971   0.592   5.277   5.005 -2.3811  3.9228 -0.5438
 8160TIP3    H245972   0.734   5.327   4.988 -0.2249 -1.4355  0.4829
 8161TIP3   OH245973   0.666   2.202   3.075  0.7330  0.2608 -0.0222
 8161TIP3    H145974   0.702   2.145   3.143  0.2851 -0.4696 -0.3886
 8161TIP3    H245975   0.645   2.283   3.121  2.5737  0.6122  0.2544
 8162TIP3   OH245976   5.332   4.318  14.549  0.3610 -0.3661 -0.0212
 8162TIP3    H145977   5.389   4.277  14.484  0.1613  0.2587 -0.5904
 8162TIP3    H245978   5.244   4.291  14.524  0.1219  1.3265 -1.0797
 8163TIP3   OH245979   4.252   2.963  10.678 -0.3021  0.2394  0.1326
 8163TIP3    H145980   4.166   2.921  10.677 -0.1975 -0.0239 -3.0845
 8163TIP3    H245981   4.314   2.890  10.681 -0.1661  0.3593  0.2533
 8164TIP3   OH245982   2.173   2.628  17.111 -0.4589 -0.2612  0.2256
 8164TIP3    H145983   2.122   2.645  17.190  1.9293  1.6814  1.4068
 8164TIP3    H245984   2.203   2.538  17.121 -1.6415 -0.6145  0.6750
 8165TIP3   OH245985   5.493   1.569  12.122  0.2982  0.7328  0.1571
 8165TIP3    H145986   5.410   1.579  12.075 -0.9752 -1.1500  1.9023
 8165TIP3    H245987   5.484   1.625  12.199  1.5444  2.1773 -0.7036
 8166TIP3   OH245988   5.300   2.698  10.996  0.9807 -0.6165  0.3731
 8166TIP3    H145989   5.390   2.691  10.963  0.7716  0.2982 -0.4168
 8166TIP3    H245990   5.300   2.777  11.049  0.6595 -0.6499  0.4227
 8167TIP3   OH245991   2.976   5.731  16.031  0.1002  0.7428  0.4221
 8167TIP3    H145992   3.039   5.775  15.974 -0.4005 -1.4327 -1.8926
 8167TIP3    H245993   3.026   5.658  16.068 -0.1546  0.9777  1.2509
 8168TIP3   OH245994   0.812   4.883  16.733 -0.4110  0.0933 -0.2058
 8168TIP3    H145995   0.899   4.870  16.770 -0.2407  0.9084 -0.3015
 8168TIP3    H245996   0.781   4.965  16.772 -1.2498 -0.3346  0.0361
 8169TIP3   OH245997   3.198   4.587   5.943  0.2511  0.1222 -0.3575
 8169TIP3    H145998   3.130   4.578   5.877 -0.4356 -0.2072  0.3924
 8169TIP3    H245999   3.174   4.524   6.011 -0.1992  1.9246  1.1939
 8170TIP3   OH246000   4.841   2.677   3.193  0.1211 -0.0570 -0.1268
 8170TIP3    H146001   4.891   2.596   3.185 -0.6979 -0.5925  0.1454
 8170TIP3    H246002   4.749   2.650   3.193 -0.1430  0.6927  1.7529
 8171TIP3   OH246003   0.256   2.995  16.443 -0.0473 -0.4285  0.1477
 8171TIP3    H146004   0.335   2.944  16.421  0.3707  0.0678  0.4828
 8171TIP3    H246005   0.279   3.085  16.421 -1.1467 -0.5176 -1.3932
 8172TIP3   OH246006   4.081   1.696   2.257 -0.2328  0.0585  0.3829
 8172TIP3    H146007   4.164   1.650   2.271 -0.5683 -0.6855 -0.0137
 8172TIP3    H246008   4.097   1.753   2.182  0.6322  1.7175  1.8039
 8173TIP3   OH246009   2.398   2.897   4.670  0.8390  0.2683 -0.3419
 8173TIP3    H146010   2.462   2.921   4.604  2.1638 -0.7754  0.5449
 8173TIP3    H246011   2.438   2.921   4.754  0.1373 -0.4957  0.2311
 8174TIP3   OH246012   3.738   3.813  13.879  0.2855 -0.3430 -0.0141
 8174TIP3    H146013   3.774   3.774  13.799  0.2706 -2.2881  0.8971
 8174TIP3    H246014   3.675   3.748  13.911 -0.2633  0.7500  1.1683
 8175TIP3   OH246015   0.754   0.403   3.179  0.2525 -0.1217  0.2084
 8175TIP3    H146016   0.678   0.350   3.157 -0.4388 -0.4531  3.1470
 8175TIP3    H246017   0.800   0.352   3.247  0.9180  1.8540  1.2862
 8176TIP3   OH246018   6.759   5.998   0.740  0.2311 -0.2210  0.5121
 8176TIP3    H146019   6.771   6.092   0.744 -0.6313 -0.0482 -0.7055
 8176TIP3    H246020   6.797   5.972   0.656  0.0724 -0.8929  0.6422
 8177TIP3   OH246021   0.222   0.676  11.615  0.0497  0.9214  0.7393
 8177TIP3    H146022   0.137   0.698  11.653 -0.4324 -0.3686  0.4256
 8177TIP3    H246023   0.233   0.583  11.632 -0.5072  0.1328 -2.8920
 8178TIP3   OH246024   3.624   6.515  15.911  0.5902  0.4912 -0.2451
 8178TIP3    H146025   3.572   6.463  15.850  1.6709 -1.1370  0.2074
 8178TIP3    H246026   3.660   6.586  15.857  1.0407 -0.5877 -1.3751
 8179TIP3   OH246027   5.930   4.213  14.136 -0.2232  0.6312 -0.2493
 8179TIP3    H146028   6.007   4.266  14.116  0.7755 -1.0211 -0.9218
 8179TIP3    H246029   5.902   4.243  14.223  0.1120  2.4570 -0.7564
 8180TIP3   OH246030   5.548   4.844  16.033 -0.8144 -0.0093 -0.0425
 8180TIP3    H146031   5.528   4.762  15.987 -0.8649 -0.0405  0.0354
 8180TIP3    H246032   5.633   4.829  16.073 -0.4991  0.2274 -0.6187
 8181TIP3   OH246033   0.440   4.427   2.759  0.1812 -0.4223  0.1444
 8181TIP3    H146034   0.370   4.417   2.693  1.9574 -2.0816 -1.5495
 8181TIP3    H246035   0.496   4.496   2.723 -0.9369  1.4256  1.8599
 8182TIP3   OH246036   5.684   5.563   2.703  0.2089 -0.0794 -0.3022
 8182TIP3    H146037   5.600   5.534   2.736  0.6870 -2.1897 -0.8524
 8182TIP3    H246038   5.721   5.617   2.773  0.1990 -2.5453  1.6634
 8183TIP3   OH246039   0.647   0.796   5.748  0.4181  0.2697 -0.0049
 8183TIP3    H146040   0.726   0.742   5.748 -0.9047 -1.7814  1.9846
 8183TIP3    H246041   0.584   0.746   5.695  0.6181  2.1979 -2.1289
 8184TIP3   OH246042   4.144   4.804  14.124 -0.1472 -0.0027  0.3050
 8184TIP3    H146043   4.181   4.809  14.212  0.5876  2.1254 -0.1226
 8184TIP3    H246044   4.219   4.794  14.066 -0.4807  0.6909 -0.2570
 8185TIP3   OH246045   3.280   1.306   0.832 -0.5065  0.0215 -0.5947
 8185TIP3    H146046   3.190   1.301   0.801 -0.2388 -1.6687 -1.1640
 8185TIP3    H246047   3.325   1.234   0.788  0.5526 -0.6761  1.5433
 8186TIP3   OH246048   6.775   5.669  11.463  0.3139 -0.1322  0.0586
 8186TIP3    H146049   6.784   5.659  11.557 -0.6287 -1.3727  0.0248
 8186TIP3    H246050   6.865   5.674  11.430  0.6382  0.6806  1.0528
 8187TIP3   OH246051   0.142   1.551   1.401  0.2457  0.1912  0.1546
 8187TIP3    H146052   0.178   1.551   1.490  0.0253  0.2294  0.2438
 8187TIP3    H246053   0.144   1.460   1.373  0.7215  0.2346  0.0334
 8188TIP3   OH246054   0.557   4.898   5.674  0.3199 -0.1673 -0.0386
 8188TIP3    H146055   0.593   4.964   5.733 -2.7888 -0.5754  2.4797
 8188TIP3    H246056   0.487   4.943   5.627  0.3958 -0.8041 -0.7774
 8189TIP3   OH246057   5.234   0.157  15.047 -0.1265 -0.7552 -0.3213
 8189TIP3    H146058   5.216   0.063  15.044  0.0763 -0.8753  1.7663
 8189TIP3    H246059   5.321   0.164  15.085 -0.4209  0.2962  0.2011
 8190TIP3   OH246060   0.518   1.422   2.945  0.0857 -0.1001 -0.6640
 8190TIP3    H146061   0.521   1.366   3.023  0.6594  1.2248  0.2968
 8190TIP3    H246062   0.607   1.422   2.911 -0.2362 -0.9449 -1.5366
 8191TIP3   OH246063   1.770   0.416  16.099 -0.3203  0.6546 -0.3161
 8191TIP3    H146064   1.781   0.485  16.033  1.8541 -0.7907 -1.5417
 8191TIP3    H246065   1.809   0.452  16.178  2.2866  0.2718 -1.3785
 8192TIP3   OH246066   3.837   3.453   6.521  0.2894 -0.8738  0.0032
 8192TIP3    H146067   3.933   3.458   6.526  0.0240  3.0508  2.9619
 8192TIP3    H246068   3.809   3.449   6.612 -2.4380 -1.0646 -0.8113
 8193TIP3   OH246069   2.571   1.281  12.714 -0.3417  0.0555  0.2872
 8193TIP3    H146070   2.480   1.260  12.694 -0.2537 -0.1844  0.1398
 8193TIP3    H246071   2.565   1.349  12.782 -0.6282 -0.1922  0.5125
 8194TIP3   OH246072   6.671   2.839  16.380 -0.6752 -0.5908  0.2123
 8194TIP3    H146073   6.587   2.883  16.396 -0.3843 -0.7536  2.3260
 8194TIP3    H246074   6.721   2.854  16.460  0.3826 -2.6047 -0.0450
 8195TIP3   OH246075   3.206   5.702  11.860 -0.7383  0.3687  0.6639
 8195TIP3    H146076   3.153   5.624  11.841 -0.4839  0.6407 -1.2796
 8195TIP3    H246077   3.285   5.667  11.903 -1.8679 -0.1573  2.3636
 8196TIP3   OH246078   3.960   1.015   3.226  0.2734  0.0101 -0.6041
 8196TIP3    H146079   3.874   1.017   3.267  0.9761 -1.6063  0.9989
 8196TIP3    H246080   4.008   1.087   3.267  1.1015 -1.8444  1.7642
 8197TIP3   OH246081   4.523   0.833  15.555  0.5427  0.5353 -0.0196
 8197TIP3    H146082   4.563   0.872  15.477  0.0568  0.2221 -0.4292
 8197TIP3    H246083   4.434   0.869  15.556  0.5268  0.4824  0.3512
 8198TIP3   OH246084   1.374   6.707   4.519  0.1423  0.1437  0.6246
 8198TIP3    H146085   1.458   6.746   4.540  0.2483 -0.2122  0.8648
 8198TIP3    H246086   1.313   6.781   4.516  0.5317  0.4426  0.0857
 8199TIP3   OH246087   5.713   2.619  15.301  0.1538  0.4616 -0.3562
 8199TIP3    H146088   5.697   2.525  15.292  0.9052  0.1893  0.9587
 8199TIP3    H246089   5.807   2.629  15.293  0.1547  1.0033  0.2387
 8200TIP3   OH246090   1.284   0.882  13.052  0.1096 -0.0606 -0.1717
 8200TIP3    H146091   1.333   0.924  12.983 -0.8452 -0.3463 -1.0365
 8200TIP3    H246092   1.345   0.876  13.126  1.5576 -0.9544 -1.4132
 8201TIP3   OH246093   1.549   6.434  12.232  0.6204  0.5980 -0.6409
 8201TIP3    H146094   1.557   6.472  12.319 -1.1241 -1.2562  0.3594
 8201TIP3    H246095   1.603   6.354  12.235 -1.0304 -0.5412 -0.6003
 8202TIP3   OH246096   1.174   6.599  14.078 -0.0259 -0.0002 -0.3831
 8202TIP3    H146097   1.259   6.641  14.064  0.0637  0.2227  0.7902
 8202TIP3    H246098   1.193   6.520  14.127 -0.6994  1.2239  1.9417
 8203TIP3   OH246099   1.364   4.308  10.638  0.1584 -0.0807 -0.1295
 8203TIP3    H146100   1.384   4.348  10.554  0.5347  1.2796  0.5894
 8203TIP3    H246101   1.281   4.349  10.665  1.3083  1.4020  1.3087
 8204TIP3   OH246102   1.443   1.288   4.986  0.1841  0.3819  0.2995
 8204TIP3    H146103   1.510   1.341   5.030  0.3833 -1.0517  1.7857
 8204TIP3    H246104   1.489   1.250   4.911  0.5545  0.8120  0.3069
 8205TIP3   OH246105   6.551   3.548  12.227 -0.3052 -0.1440 -0.3064
 8205TIP3    H146106   6.504   3.475  12.188 -0.4306  0.3227 -1.0486
 8205TIP3    H246107   6.634   3.511  12.257 -0.5745 -0.6867 -0.2356
 8206TIP3   OH246108   0.162   0.164  14.846 -0.4841 -0.2447  0.1581
 8206TIP3    H146109   0.206   0.097  14.897  1.1389  0.4107 -0.3318
 8206TIP3    H246110   0.200   0.247  14.876  0.8051  0.1300 -2.3379
 8207TIP3   OH246111   2.738   2.785  12.971 -0.1304  0.2932  0.0889
 8207TIP3    H146112   2.800   2.825  12.910  0.5827  0.1268  0.7042
 8207TIP3    H246113   2.655   2.783  12.923  0.4082  0.2437 -0.8406
 8208TIP3   OH246114   0.761   6.031  13.686  0.0829 -0.4318 -0.1891
 8208TIP3    H146115   0.774   6.067  13.773  0.5059  0.5762 -0.6543
 8208TIP3    H246116   0.815   5.952  13.683  0.7044 -0.0194  0.1900
 8209TIP3   OH246117   1.414   1.137  16.894  0.2839 -0.2035  0.7271
 8209TIP3    H146118   1.370   1.134  16.979 -0.6355  0.0395  0.2573
 8209TIP3    H246119   1.346   1.117  16.830  0.7183  0.7375 -0.0488
 8210TIP3   OH246120   1.347   3.761   4.372  0.4520  0.2744 -0.3540
 8210TIP3    H146121   1.373   3.848   4.402 -0.4101  0.4387 -0.0862
 8210TIP3    H246122   1.406   3.701   4.419  0.2762  0.6417  0.3473
 8211TIP3   OH246123   6.341   4.776  10.884  0.1447  0.2560 -0.3677
 8211TIP3    H146124   6.258   4.824  10.873 -1.6878 -2.4086  1.2823
 8211TIP3    H246125   6.341   4.712  10.814  0.7840  0.2181 -0.3343
 8212TIP3   OH246126   5.526   3.935  16.892 -0.6462  0.2511 -0.3226
 8212TIP3    H146127   5.452   3.953  16.951  1.5377  3.0233  1.7036
 8212TIP3    H246128   5.572   3.863  16.934 -0.9202  0.0524 -0.3632
 8213TIP3   OH246129   1.169   4.419  15.051  0.5180 -0.1984 -0.2586
 8213TIP3    H146130   1.207   4.343  15.007  0.5879 -0.1152 -0.3421
 8213TIP3    H246131   1.241   4.454  15.105  0.1386 -0.9195  0.7360
 8214TIP3   OH246132   4.910   4.589  14.638 -0.5324 -0.0276 -0.2505
 8214TIP3    H146133   4.900   4.668  14.691 -3.7081  0.2663 -1.1682
 8214TIP3    H246134   4.952   4.618  14.557  1.1541  0.1341  0.6620
 8215TIP3   OH246135   3.218   4.228  13.756  0.3560 -0.5049  0.2000
 8215TIP3    H146136   3.253   4.171  13.824  0.8256 -0.0092  0.3829
 8215TIP3    H246137   3.260   4.199  13.675  1.4571  0.3106  0.4735
 8216TIP3   OH246138   2.669   1.032   1.321 -0.8142 -0.6775  0.4569
 8216TIP3    H146139   2.599   0.996   1.375  0.1849 -2.1231  0.8231
 8216TIP3    H246140   2.746   0.978   1.343  0.1224  0.1289 -0.7951
 8217TIP3   OH246141   1.386   0.996   6.307  0.4237  0.1157  0.1142
 8217TIP3    H146142   1.354   0.913   6.272 -0.1847  1.4068 -2.5517
 8217TIP3    H246143   1.306   1.045   6.328  0.7817 -0.1155  2.0872
 8218TIP3   OH246144   5.453   3.030   4.859  0.2218 -0.2447  0.3835
 8218TIP3    H146145   5.374   3.011   4.910 -0.6520  0.3178 -0.7323
 8218TIP3    H246146   5.426   3.101   4.800  1.4315 -0.3791 -0.3368
 8219TIP3   OH246147   1.811   1.431   5.543  0.1696  0.1349  0.0708
 8219TIP3    H146148   1.775   1.507   5.499 -0.9862 -0.0887  0.6009
 8219TIP3    H246149   1.836   1.463   5.630  1.7366  0.4047 -0.4734
 8220TIP3   OH246150   0.074   5.808  14.561 -0.2890  0.0405 -0.4343
 8220TIP3    H146151   0.103   5.745  14.494  0.6343  0.0038 -0.0116
 8220TIP3    H246152   0.155   5.849  14.591 -0.5466 -1.0092  1.7407
 8221TIP3   OH246153   6.672   6.632   2.683  0.1803  0.3037  0.0361
 8221TIP3    H146154   6.605   6.686   2.725 -0.3419 -1.4528  1.5151
 8221TIP3    H246155   6.622   6.563   2.639  1.0521 -1.9937  2.5437
 8222TIP3   OH246156   3.135   6.303   0.502 -0.3250  0.7763 -0.4252
 8222TIP3    H146157   3.198   6.337   0.566 -0.9673  2.8853 -0.8759
 8222TIP3    H246158   3.159   6.211   0.491  1.4776  1.0781  0.8253
 8223TIP3   OH246159   2.266   4.308   0.366  0.6247  0.0398  0.0786
 8223TIP3    H146160   2.360   4.328   0.368  0.4132  1.4104 -1.6162
 8223TIP3    H246161   2.246   4.302   0.272 -0.7815 -1.2435  0.4531
 8224TIP3   OH246162   2.788   6.030  13.403 -0.1211  0.3368 -0.5548
 8224TIP3    H146163   2.736   5.951  13.418  1.6568 -0.7076  0.1941
 8224TIP3    H246164   2.726   6.092  13.363 -1.4726 -1.4989 -1.3703
 8225TIP3   OH246165   3.295   4.892  11.534  0.7058 -0.1929 -0.1534
 8225TIP3    H146166   3.214   4.937  11.509  1.0964  1.3599  1.2660
 8225TIP3    H246167   3.361   4.925  11.473  0.2716 -1.5352 -1.3762
 8226TIP3   OH246168   2.108   0.454   1.214 -0.4086  0.3676 -0.3132
 8226TIP3    H146169   2.084   0.369   1.177  3.8434  0.0661 -2.7532
 8226TIP3    H246170   2.125   0.435   1.306 -2.0891 -0.8372 -0.2121
 8227TIP3   OH246171   1.868   2.704  12.368  0.5549 -0.4333 -0.1967
 8227TIP3    H146172   1.888   2.615  12.339  0.8466 -0.1697 -0.8022
 8227TIP3    H246173   1.934   2.722  12.435  1.8620  0.1337 -1.6194
 8228TIP3   OH246174   4.323   0.814   0.987  0.3481  0.7893  0.3520
 8228TIP3    H146175   4.331   0.770   1.072  0.5259  2.0734  1.0141
 8228TIP3    H246176   4.231   0.839   0.982  0.0980 -0.2290 -0.3236
 8229TIP3   OH246177   5.725   5.761   2.488  0.4253  0.7934  0.0019
 8229TIP3    H146178   5.744   5.805   2.570  0.1031  0.3041  0.3428
 8229TIP3    H246179   5.798   5.785   2.430  0.2833  1.7082  0.2015
 8230TIP3   OH246180   3.012   1.756   4.950  0.7459 -0.1594 -0.1913
 8230TIP3    H146181   3.069   1.717   4.884  0.9464  0.7420 -0.5561
 8230TIP3    H246182   2.927   1.767   4.906  1.3934  2.2079 -0.9329
 8231TIP3   OH246183   3.099   0.442  16.818 -0.4998  0.2881  0.6942
 8231TIP3    H146184   3.113   0.379  16.888 -0.6778  0.3124  0.7509
 8231TIP3    H246185   3.003   0.448  16.810 -0.5043 -1.7074 -1.3312
 8232TIP3   OH246186   2.803   3.084  15.731 -0.1579  0.1852  0.2269
 8232TIP3    H146187   2.778   3.176  15.719 -1.0261  0.2225  2.1497
 8232TIP3    H246188   2.868   3.086  15.802 -1.6642 -0.8578  1.6814
 8233TIP3   OH246189   0.846   0.376  15.318 -0.0990  0.3110  0.1394
 8233TIP3    H146190   0.771   0.328  15.353  0.6823 -0.9671  0.1028
 8233TIP3    H246191   0.832   0.375  15.223  0.3478 -0.6041  0.0751
 8234TIP3   OH246192   3.595   1.900   1.107 -0.3007  0.3153 -0.5010
 8234TIP3    H146193   3.586   1.937   1.019  0.6143  0.6541 -0.4537
 8234TIP3    H246194   3.653   1.825   1.095  1.6478  1.6784  0.1702
 8235TIP3   OH246195   1.107   5.079   0.520  0.0124  0.0514  0.0510
 8235TIP3    H146196   1.174   5.010   0.519  0.3328  0.3618 -1.0577
 8235TIP3    H246197   1.026   5.033   0.541  0.3939 -0.4912  0.3871
 8236TIP3   OH246198   1.614   4.220  10.314 -0.5097 -0.7194 -0.2699
 8236TIP3    H146199   1.557   4.200  10.388 -0.0083 -1.1333  0.0031
 8236TIP3    H246200   1.599   4.313  10.297  2.0209  0.2714  2.6466
 8237TIP3   OH246201   4.713   0.287  14.362 -0.1125 -0.0275  0.1901
 8237TIP3    H146202   4.678   0.204  14.331  0.4501 -0.2346  0.1239
 8237TIP3    H246203   4.641   0.349  14.347 -0.0269 -0.2132 -1.0689
 8238TIP3   OH246204   6.380   1.529   3.358  0.3258 -0.1628  0.1568
 8238TIP3    H146205   6.409   1.536   3.267 -1.5186  0.5266 -0.4079
 8238TIP3    H246206   6.293   1.568   3.358 -0.7462 -2.4709  1.7186
 8239TIP3   OH246207   1.605   5.934   3.193 -0.0610  0.3868  0.3505
 8239TIP3    H146208   1.602   5.838   3.187 -2.5605  0.4794 -0.9028
 8239TIP3    H246209   1.541   5.955   3.261  0.0471  1.1795  0.2066
 8240TIP3   OH246210   2.081   1.562  11.024 -0.7216  0.2499  0.0605
 8240TIP3    H146211   2.159   1.506  11.033 -1.0401 -0.0946  0.7714
 8240TIP3    H246212   2.110   1.636  10.971 -0.0358 -0.1216 -0.0869
 8241TIP3   OH246213   1.957   5.366  11.637  0.3318  0.0165 -0.5012
 8241TIP3    H146214   1.944   5.407  11.722 -3.6097  0.4651 -1.2244
 8241TIP3    H246215   1.883   5.305  11.629  1.5041 -1.1320 -2.9522
 8242TIP3   OH246216   6.054   3.848   3.433  0.4825 -0.0967  0.9429
 8242TIP3    H146217   6.105   3.929   3.430  0.6361 -0.2319 -0.9815
 8242TIP3    H246218   5.992   3.856   3.361 -1.6101 -0.3618  2.6548
 8243TIP3   OH246219   0.024   3.095  11.064  0.2997 -0.4532 -0.1786
 8243TIP3    H146220  -0.010   3.112  10.976  2.0190 -1.7114 -1.1091
 8243TIP3    H246221   0.100   3.152  11.072  1.0514 -1.4513 -0.1008
 8244TIP3   OH246222   3.696   4.695  16.133 -0.0453  0.4795  0.0573
 8244TIP3    H146223   3.683   4.622  16.195  2.5452 -0.3060 -0.2482
 8244TIP3    H246224   3.791   4.709  16.133 -0.4115  3.1724 -0.7132
 8245TIP3   OH246225   6.266   0.819   5.845  0.3914 -0.1288  0.1565
 8245TIP3    H146226   6.309   0.878   5.906 -0.1606 -0.3949  0.8223
 8245TIP3    H246227   6.281   0.732   5.882  1.5573 -0.4463 -1.0426
 8246TIP3   OH246228   4.951   0.281  13.175  0.0965 -0.7446  0.4130
 8246TIP3    H146229   4.944   0.264  13.081 -1.6611  2.1979 -0.0524
 8246TIP3    H246230   5.041   0.310  13.188 -0.5996  2.1986 -1.0150
 8247TIP3   OH246231   6.760   0.310   3.055 -0.3710 -0.4076 -0.0496
 8247TIP3    H146232   6.845   0.312   3.099  0.4976 -0.6814 -1.6571
 8247TIP3    H246233   6.759   0.390   3.002 -0.7346 -0.8389 -0.7040
 8248TIP3   OH246234   2.569   1.971   5.556 -0.0132  0.5779  0.3634
 8248TIP3    H146235   2.494   1.999   5.504 -2.5569 -2.3372  2.3607
 8248TIP3    H246236   2.609   1.901   5.505  0.7174  1.3321 -0.1312
 8249TIP3   OH246237   0.670   3.467  15.800 -0.0742 -0.1687 -0.5369
 8249TIP3    H146238   0.683   3.450  15.893  0.7142 -0.0950 -0.6278
 8249TIP3    H246239   0.759   3.474  15.764 -0.3317 -2.2337 -1.6602
 8250TIP3   OH246240   4.597   1.843  13.542  0.0693 -0.2143 -0.8550
 8250TIP3    H146241   4.655   1.826  13.615  0.1544  3.0989 -0.0973
 8250TIP3    H246242   4.509   1.843  13.580 -0.0596 -0.4894 -1.1427
 8251TIP3   OH246243   5.049   0.877   1.076  0.0817 -0.5819  0.0327
 8251TIP3    H146244   5.054   0.903   0.984  0.4526  1.1139  0.5171
 8251TIP3    H246245   4.967   0.916   1.107  0.1421 -0.8371  0.5153
 8252TIP3   OH246246   2.444   1.373   3.298 -0.1289  0.3543 -0.2973
 8252TIP3    H146247   2.351   1.378   3.322 -0.8325 -5.1038 -1.4303
 8252TIP3    H246248   2.488   1.349   3.380  0.2625  2.0450  0.0233
 8253TIP3   OH246249   1.862   6.060  13.312  0.3210 -0.0161 -0.7892
 8253TIP3    H146250   1.911   6.134  13.275 -0.5634  0.3761 -1.1976
 8253TIP3    H246251   1.890   6.056  13.404  1.1896  0.1320 -1.0391
 8254TIP3   OH246252   5.431   4.123   5.628  0.4646  0.0956 -0.0873
 8254TIP3    H146253   5.457   4.091   5.715 -0.1582 -1.2968 -0.4015
 8254TIP3    H246254   5.403   4.045   5.581 -0.3372  1.0109 -1.1540
 8255TIP3   OH246255   3.391   0.896   4.077 -0.2677  0.0746  0.3672
 8255TIP3    H146256   3.457   0.936   4.134 -1.5236  1.0816  1.1187
 8255TIP3    H246257   3.419   0.919   3.988  0.8982 -0.2915  0.6275
 8256TIP3   OH246258   5.804   2.099  12.778 -0.3252 -0.0664 -0.3162
 8256TIP3    H146259   5.785   2.068  12.690 -0.6321  1.4974 -0.8151
 8256TIP3    H246260   5.727   2.151  12.802 -0.9185 -1.6708  1.4693
 8257TIP3   OH246261   4.364   5.404   2.213  0.0283 -0.0547 -0.1738
 8257TIP3    H146262   4.302   5.384   2.284 -0.7770  2.1408 -0.2185
 8257TIP3    H246263   4.344   5.339   2.146 -1.3545 -0.2068  0.3581
 8258TIP3   OH246264   3.279   3.200  17.065  0.3827 -0.1745 -0.0997
 8258TIP3    H146265   3.190   3.172  17.043 -0.7633  1.6023  2.0104
 8258TIP3    H246266   3.267   3.284  17.110  2.9551 -1.0370  2.3167
 8259TIP3   OH246267   4.197   0.806  15.248  0.5717  0.0004  0.3536
 8259TIP3    H146268   4.261   0.831  15.314  2.1467 -0.5131 -0.9438
 8259TIP3    H246269   4.236   0.730  15.205 -0.8971 -0.2949 -0.4785
 8260TIP3   OH246270   1.150   5.223  14.211  0.7452  0.2543  0.3551
 8260TIP3    H146271   1.101   5.209  14.131 -0.4524  0.0417  1.1086
 8260TIP3    H246272   1.085   5.256  14.274  1.1631 -1.6902  1.8663
 8261TIP3   OH246273   4.841   0.041   3.722  0.2087 -0.0765  0.0748
 8261TIP3    H146274   4.870   0.114   3.668  2.0348 -0.9648 -0.1885
 8261TIP3    H246275   4.758   0.013   3.683  0.5171  0.5605 -1.0567
 8262TIP3   OH246276   4.437   5.157  14.419  0.1116 -0.3381 -0.3806
 8262TIP3    H146277   4.355   5.139  14.373 -0.2207  0.9111 -0.3155
 8262TIP3    H246278   4.506   5.129  14.358 -0.3102  1.7010 -1.8496
 8263TIP3   OH246279   6.571   6.160  11.587 -0.2696  0.2554 -0.3850
 8263TIP3    H146280   6.570   6.071  11.621 -0.5414 -0.1724 -1.4871
 8263TIP3    H246281   6.631   6.207  11.645  1.4761 -1.1384 -1.0118
 8264TIP3   OH246282   1.087   5.501  16.054 -0.2448  0.4186  0.3991
 8264TIP3    H146283   1.119   5.431  16.111  0.8820 -0.9245 -1.7905
 8264TIP3    H246284   1.165   5.531  16.007 -1.4901 -0.3005 -2.2520
 8265TIP3   OH246285   1.989   0.174   2.235  0.5062  0.0916  0.2051
 8265TIP3    H146286   2.065   0.231   2.249  0.0894  0.3966  1.2055
 8265TIP3    H246287   1.990   0.114   2.310  2.8285 -3.3841 -2.3836
 8266TIP3   OH246288   2.595   4.134   1.857  0.3652 -0.1716  0.1336
 8266TIP3    H146289   2.690   4.135   1.844  0.3884 -0.5227  0.2820
 8266TIP3    H246290   2.583   4.161   1.948  0.4397 -2.3797  0.8168
 8267TIP3   OH246291   6.696   5.250  15.909 -0.0353  0.2837 -0.3027
 8267TIP3    H146292   6.785   5.214  15.905  0.8992  2.6354 -1.9151
 8267TIP3    H246293   6.646   5.185  15.959  2.6438 -0.9624  0.8706
 8268TIP3   OH246294   0.329   4.896  11.035  0.3358  0.2535 -0.6011
 8268TIP3    H146295   0.268   4.824  11.055  2.2999 -0.8141  1.9483
 8268TIP3    H246296   0.291   4.939  10.959 -2.0272 -2.1933 -0.9092
 8269TIP3   OH246297   6.281   1.030   6.505  0.2255  0.1566  0.1655
 8269TIP3    H146298   6.244   1.062   6.423 -0.9480 -0.6480  0.3609
 8269TIP3    H246299   6.207   0.989   6.551  0.6824  1.3160  1.9964
 8270TIP3   OH246300   6.082   0.097   3.736 -0.4343 -0.2070  0.5301
 8270TIP3    H146301   5.987   0.093   3.751 -0.5916 -0.5521 -0.4810
 8270TIP3    H246302   6.091   0.142   3.652  0.2893 -0.3569  0.5265
 8271TIP3   OH246303   1.864   6.395   0.781  1.0337  0.2628  0.6070
 8271TIP3    H146304   1.904   6.453   0.715  1.2157 -0.2837  0.2296
 8271TIP3    H246305   1.783   6.438   0.805 -0.0041 -0.4769 -1.4278
 8272TIP3   OH246306   5.995   1.340  16.403  0.7640  0.4785 -0.1402
 8272TIP3    H146307   5.922   1.345  16.341  0.8522  2.6753 -0.0912
 8272TIP3    H246308   6.051   1.270  16.369 -0.7483 -0.4092 -0.8350
 8273TIP3   OH246309   2.986   6.769   4.683 -0.2940 -0.3990  0.0652
 8273TIP3    H146310   3.014   6.800   4.769 -1.4971 -0.7599  0.6006
 8273TIP3    H246311   3.065   6.771   4.629  0.3987  0.1253  1.0938
 8274TIP3   OH246312   0.151   3.343  12.558  0.5842  0.2513 -0.4680
 8274TIP3    H146313   0.231   3.321  12.510  0.0174 -1.0026 -0.8585
 8274TIP3    H246314   0.172   3.326  12.650  0.6613 -0.4017 -0.6059
 8275TIP3   OH246315   5.820   4.856   3.839  0.1353  0.0961 -0.1128
 8275TIP3    H146316   5.842   4.766   3.865  0.4966  0.4212  0.7266
 8275TIP3    H246317   5.748   4.880   3.898 -1.1233 -0.2453 -1.4842
 8276TIP3   OH246318   5.007   1.156   3.784 -0.1397  0.4150  0.2519
 8276TIP3    H146319   5.083   1.135   3.839 -0.1667  1.9365  0.9101
 8276TIP3    H246320   5.042   1.216   3.718 -0.7905  1.2077  0.6289
 8277TIP3   OH246321   4.211   0.517  15.548  0.0941 -0.1938 -0.3736
 8277TIP3    H146322   4.303   0.492  15.557  0.1788  0.3129  0.2009
 8277TIP3    H246323   4.214   0.605  15.511 -0.1459  0.1149  0.3379
 8278TIP3   OH246324   1.214   0.278  13.845  0.1849 -0.0955 -0.0524
 8278TIP3    H146325   1.226   0.288  13.751 -2.8345  0.0599 -0.4729
 8278TIP3    H246326   1.257   0.355  13.883 -0.7655  1.1673 -1.4978
 8279TIP3   OH246327   0.504   5.465  14.493  1.0679 -0.0326  0.0201
 8279TIP3    H146328   0.466   5.449  14.407 -0.7108 -2.0467  1.1378
 8279TIP3    H246329   0.536   5.555  14.489 -0.9466  0.6209 -2.0296
 8280TIP3   OH246330   3.942   0.899   3.829 -0.1341  0.0748 -0.3164
 8280TIP3    H146331   3.924   0.824   3.885 -1.3000 -0.1072 -0.9372
 8280TIP3    H246332   4.007   0.950   3.879  1.8880 -2.1305 -0.6036
 8281TIP3   OH246333   1.249   5.633  13.916  0.1838  0.0187  0.3876
 8281TIP3    H146334   1.309   5.686  13.970  0.5678  0.5941 -0.5869
 8281TIP3    H246335   1.241   5.683  13.835  0.2827 -1.2717 -0.4195
 8282TIP3   OH246336   0.834   1.021  15.308  0.1187 -0.4679 -0.2126
 8282TIP3    H146337   0.876   0.996  15.390 -0.2233  0.0705  0.1251
 8282TIP3    H246338   0.877   0.966  15.242 -0.5842 -1.9147  0.5115
 8283TIP3   OH246339   4.137   1.744   4.104 -0.2985 -0.0693  0.0069
 8283TIP3    H146340   4.130   1.819   4.044  0.5508 -0.1191 -0.1632
 8283TIP3    H246341   4.206   1.770   4.166 -1.8722  0.4051  1.5958
 8284TIP3   OH246342   0.192   5.913  11.512  0.2145 -0.1800  0.1116
 8284TIP3    H146343   0.205   5.969  11.436 -0.6363  0.1927  0.2384
 8284TIP3    H246344   0.118   5.951  11.558  0.6925 -0.4316  1.1088
 8285TIP3   OH246345   1.832   6.229   4.867  0.3826  0.6724  0.1695
 8285TIP3    H146346   1.915   6.263   4.901 -0.4430  0.7375  2.1867
 8285TIP3    H246347   1.849   6.136   4.850  0.4948  0.3584  1.9092
 8286TIP3   OH246348   0.598   4.598   2.351  0.7254 -0.8425 -0.1457
 8286TIP3    H146349   0.596   4.670   2.414  0.5309 -0.2686 -0.8011
 8286TIP3    H246350   0.506   4.578   2.335  0.7279  0.0428 -1.3964
 8287TIP3   OH246351   6.519   6.648   4.753 -0.0596 -0.4073 -0.2575
 8287TIP3    H146352   6.552   6.562   4.780  0.9840 -0.5007 -1.7585
 8287TIP3    H246353   6.542   6.707   4.825  0.7266 -1.0580  0.0292
 8288TIP3   OH246354   5.053   6.681   4.133 -0.4702 -0.1754  0.5704
 8288TIP3    H146355   5.036   6.757   4.078 -0.4322 -0.0402  0.7448
 8288TIP3    H246356   4.968   6.663   4.175 -0.3626  0.0628  0.8945
 8289TIP3   OH246357   4.397   3.446   1.440 -0.3464 -0.8494  0.3657
 8289TIP3    H146358   4.413   3.526   1.391  1.3253 -1.1171  0.4515
 8289TIP3    H246359   4.446   3.378   1.393 -1.3911 -1.7415  0.5366
 8290TIP3   OH246360   1.919   4.160  11.598  0.3187  0.4551 -0.2551
 8290TIP3    H146361   2.013   4.168  11.613  0.3539 -0.6552  0.1614
 8290TIP3    H246362   1.907   4.189  11.508  1.3972 -1.5758 -1.0930
 8291TIP3   OH246363   5.468   6.114   1.850  0.0449  0.2996 -0.0075
 8291TIP3    H146364   5.463   6.125   1.756 -0.5644 -0.6031 -0.0864
 8291TIP3    H246365   5.487   6.021   1.863 -1.1857  0.1508  0.7948
 8292TIP3   OH246366   1.657   5.097   5.832 -0.0806 -0.0087  0.2257
 8292TIP3    H146367   1.658   5.003   5.853  0.5438 -0.1382 -0.3725
 8292TIP3    H246368   1.564   5.120   5.830 -0.2318 -0.5716  0.5541
 8293TIP3   OH246369   3.261   2.772  11.512  0.6980  0.5289 -0.4863
 8293TIP3    H146370   3.289   2.753  11.602  0.3432  0.7374 -0.3282
 8293TIP3    H246371   3.231   2.688  11.478  1.3412  0.3389 -0.5977
 8294TIP3   OH246372   1.204   3.167  14.152 -0.2205 -0.4644  0.3665
 8294TIP3    H146373   1.289   3.195  14.120 -1.2377  1.1867 -1.0197
 8294TIP3    H246374   1.146   3.177  14.076 -2.2594  1.4104  2.1232
 8295TIP3   OH246375   0.541   2.638  12.274  0.2107 -0.2236 -0.5132
 8295TIP3    H146376   0.575   2.710  12.221 -0.7085  0.5039 -0.1311
 8295TIP3    H246377   0.492   2.681  12.344 -2.5340 -1.2278 -1.7290
 8296TIP3   OH246378   0.452   6.750   5.133 -0.0305  0.6311  0.2708
 8296TIP3    H146379   0.481   6.698   5.209  0.7304  0.4232 -0.1590
 8296TIP3    H246380   0.424   6.833   5.170 -1.6492 -0.2209  1.0232
 8297TIP3   OH246381   1.465   1.581   0.765  0.0549 -0.4321 -0.2993
 8297TIP3    H146382   1.434   1.537   0.685 -1.0595  2.0416 -1.2994
 8297TIP3    H246383   1.417   1.665   0.766  2.0542  0.7347  1.5390
 8298TIP3   OH246384   5.910   0.691   3.949  0.2368 -0.8437  0.5504
 8298TIP3    H146385   5.860   0.675   4.029  0.7891  1.5901  1.4329
 8298TIP3    H246386   5.877   0.627   3.887 -3.7126  0.4064  1.2020
 8299TIP3   OH246387   2.799   2.160   5.446  0.4716  0.0676 -0.3215
 8299TIP3    H146388   2.872   2.106   5.477 -0.6841 -2.5053 -1.9148
 8299TIP3    H246389   2.731   2.149   5.512  1.9045  3.5908  1.9040
 8300TIP3   OH246390   3.144   3.764   5.053 -0.2899 -0.0141 -0.2360
 8300TIP3    H146391   3.226   3.726   5.084  0.2049  0.4568 -0.9332
 8300TIP3    H246392   3.096   3.785   5.132  0.4993  0.2083  0.1934
 8301TIP3   OH246393   6.227   5.160  16.587  0.6616 -0.2630  0.3827
 8301TIP3    H146394   6.195   5.226  16.648  0.0283  0.6760 -0.9395
 8301TIP3    H246395   6.213   5.077  16.631 -1.0382  0.3239  0.9559
 8302TIP3   OH246396   1.941   1.021  15.730  0.1535 -0.4376  0.0688
 8302TIP3    H146397   1.986   1.032  15.814 -1.5332 -0.8586  1.0650
 8302TIP3    H246398   1.988   0.950  15.686  1.3237  0.0855  0.4647
 8303TIP3   OH246399   3.929   2.799  12.237  0.4612  0.0862 -0.0652
 8303TIP3    H146400   3.978   2.876  12.266  0.9734 -0.3419  0.2073
 8303TIP3    H246401   3.988   2.754  12.176  0.0428  0.0724 -0.4608
 8304TIP3   OH246402   4.171   6.138  16.372  0.3394 -0.1942 -0.2468
 8304TIP3    H146403   4.258   6.140  16.411 -0.9267 -1.0629  2.7838
 8304TIP3    H246404   4.164   6.051  16.331  0.1654 -0.9365  1.3323
 8305TIP3   OH246405   6.125   5.839  13.413  0.2948  0.0786  0.0931
 8305TIP3    H146406   6.042   5.797  13.435 -2.0409  2.9333 -2.8143
 8305TIP3    H246407   6.142   5.898  13.486 -0.2511 -0.4903  0.6827
 8306TIP3   OH246408   3.394   1.463  15.894  0.7343 -0.1464 -0.1354
 8306TIP3    H146409   3.329   1.520  15.935  1.5475 -1.3541  2.9903
 8306TIP3    H246410   3.454   1.522  15.849 -0.0528  1.2661  0.6620
 8307TIP3   OH246411   5.111   3.040   2.653  0.0362 -0.3040 -0.0385
 8307TIP3    H146412   5.204   3.017   2.649 -0.2969 -1.5278 -0.9856
 8307TIP3    H246413   5.109   3.121   2.704  1.4818 -1.0207  1.1907
 8308TIP3   OH246414   3.022   2.031   5.576 -0.3280 -0.1612 -0.2138
 8308TIP3    H146415   3.072   2.083   5.513  1.3267 -2.7007 -1.0576
 8308TIP3    H246416   3.069   2.044   5.659  0.1204 -0.3460 -0.4346
 8309TIP3   OH246417   5.802   6.796  14.417  0.1952  0.3433 -0.2830
 8309TIP3    H146418   5.798   6.868  14.353 -1.6524  0.2642 -0.2786
 8309TIP3    H246419   5.808   6.840  14.502  0.3239  0.4843 -0.3656
 8310TIP3   OH246420   3.679   1.563   4.600  0.3481 -0.8653 -0.2987
 8310TIP3    H146421   3.678   1.596   4.510  1.2041 -2.0968 -0.7770
 8310TIP3    H246422   3.770   1.535   4.613 -0.2496 -2.5352  0.2693
 8311TIP3   OH246423   6.494   2.640  14.252  0.0593  0.1980  0.3900
 8311TIP3    H146424   6.576   2.673  14.288  0.5382  0.5681 -1.0207
 8311TIP3    H246425   6.509   2.546  14.239  0.3049  0.2887  0.0148
 8312TIP3   OH246426   3.933   3.758   2.897  0.1720  0.1923  0.2139
 8312TIP3    H146427   4.015   3.710   2.909 -1.9072 -3.3990  0.8017
 8312TIP3    H246428   3.886   3.744   2.979 -1.8234  0.5871 -0.8413
 8313TIP3   OH246429   2.241   5.905  16.982 -0.0730  0.2957 -0.6095
 8313TIP3    H146430   2.232   5.886  16.889 -1.5975  2.5760 -0.9679
 8313TIP3    H246431   2.162   5.867  17.021 -0.9081  1.8979 -0.6978
 8314TIP3   OH246432   5.484   2.033  14.124 -0.1883 -0.5625  0.3490
 8314TIP3    H146433   5.488   2.050  14.030 -1.0183 -1.4156  0.1481
 8314TIP3    H246434   5.575   2.032  14.153  0.1110 -1.2187 -0.6131
 8315TIP3   OH246435   5.604   3.288  12.696 -0.0454 -0.4433 -0.5032
 8315TIP3    H146436   5.510   3.273  12.693 -0.1333 -0.4961  1.7183
 8315TIP3    H246437   5.616   3.373  12.653 -1.1077 -0.3712 -0.6789
 8316TIP3   OH246438   2.284   4.730   0.994 -0.0738  0.2957  0.1735
 8316TIP3    H146439   2.311   4.725   1.085 -0.3079  2.1841  0.3580
 8316TIP3    H246440   2.304   4.819   0.967 -1.6096  0.2915 -1.1078
 8317TIP3   OH246441   5.750   4.552   5.102  0.2281  0.3052  0.0166
 8317TIP3    H146442   5.762   4.562   5.197  0.5132 -0.0817  0.0211
 8317TIP3    H246443   5.809   4.481   5.078 -1.8691 -1.4712  0.0051
 8318TIP3   OH246444   3.944   2.509  15.298 -0.2212  0.1391 -0.3716
 8318TIP3    H146445   4.005   2.448  15.340 -0.5756  0.0819  0.0610
 8318TIP3    H246446   3.955   2.493  15.204  0.3782  0.0795 -0.2932
 8319TIP3   OH246447   4.131   5.735   2.863 -1.0203  0.0797  0.3291
 8319TIP3    H146448   4.113   5.789   2.939 -0.7053  1.3447 -0.4757
 8319TIP3    H246449   4.183   5.662   2.896  0.5706  1.5116  1.0534
 8320TIP3   OH246450   1.943   6.002  16.339 -0.5154 -0.3760  0.1611
 8320TIP3    H146451   2.035   5.986  16.360 -0.3083 -1.3844 -1.4157
 8320TIP3    H246452   1.945   6.061  16.263 -1.2195  1.7180  1.7209
 8321TIP3   OH246453   3.173   6.115   5.694  0.1252  0.2919 -0.0468
 8321TIP3    H146454   3.195   6.151   5.780 -0.4740  1.7902 -0.5031
 8321TIP3    H246455   3.085   6.147   5.676 -0.1737 -0.8935 -0.7672
 8322TIP3   OH246456   2.620   4.168  12.513  0.1699 -0.7742 -0.0862
 8322TIP3    H146457   2.710   4.192  12.535  0.8472 -1.5059 -1.9883
 8322TIP3    H246458   2.613   4.077  12.540  0.1726 -0.8820 -0.4495
 8323TIP3   OH246459   3.933   4.637  14.043 -0.0737  0.1433  0.2353
 8323TIP3    H146460   4.004   4.699  14.061 -0.6774  0.7624  0.4932
 8323TIP3    H246461   3.855   4.692  14.033 -0.8556 -0.6614  1.7252
 8324TIP3   OH246462   2.548   2.929  15.744 -0.2755  0.3567  0.4074
 8324TIP3    H146463   2.585   2.843  15.761 -1.8369 -0.2546  0.7614
 8324TIP3    H246464   2.623   2.988  15.747  0.7130 -0.9031  0.8007
 8325TIP3   OH246465   1.894   1.096   0.182  0.2980  0.5730 -0.0133
 8325TIP3    H146466   1.932   1.023   0.134  2.1058  1.0284  0.6944
 8325TIP3    H246467   1.875   1.061   0.269 -0.3087  0.5244 -0.1628
 8326TIP3   OH246468   4.215   4.615   4.973  0.1067 -0.1108 -0.2462
 8326TIP3    H146469   4.280   4.599   5.042  1.0119  0.4359 -0.9516
 8326TIP3    H246470   4.176   4.699   4.995  0.0869 -0.1415 -0.1656
 8327TIP3   OH246471   3.775   4.266   4.724 -0.4201 -0.1105  0.8518
 8327TIP3    H146472   3.816   4.306   4.801 -0.8767 -2.6146  2.4730
 8327TIP3    H246473   3.705   4.211   4.761 -0.6613 -1.3272 -1.3641
 8328TIP3   OH246474   0.664   2.874  15.457 -0.2164  0.1249 -0.3868
 8328TIP3    H146475   0.573   2.844  15.448 -0.9978  1.8117  1.2982
 8328TIP3    H246476   0.667   2.956  15.408 -0.2222  1.1409  1.2381
 8329TIP3   OH246477   6.320   0.631  15.906  1.3545 -0.2971  0.2915
 8329TIP3    H146478   6.261   0.557  15.894  0.9955 -0.0379  0.4552
 8329TIP3    H246479   6.407   0.595  15.892  1.0071 -0.0854 -2.8836
 8330TIP3   OH246480   2.073   6.430   4.004  0.4843  0.1592 -0.0322
 8330TIP3    H146481   2.146   6.467   4.054  1.8099 -0.4167 -1.5239
 8330TIP3    H246482   2.032   6.506   3.962  1.1414  0.3145 -0.3929
 8331TIP3   OH246483   4.414   6.059  14.243  0.8896  0.6901  0.3884
 8331TIP3    H146484   4.419   6.041  14.337  0.3911  2.0851  0.6991
 8331TIP3    H246485   4.455   6.145  14.233 -3.4382  2.8790  0.0927
 8332TIP3   OH246486   4.473   3.563  14.077  0.4935 -0.1262  0.4938
 8332TIP3    H146487   4.386   3.523  14.089  0.6357 -0.8100 -0.6974
 8332TIP3    H246488   4.454   3.657  14.066 -0.2914 -0.5364 -1.8929
 8333TIP3   OH246489   3.910   0.458  14.700 -0.1332  0.1322  0.4723
 8333TIP3    H146490   3.878   0.376  14.739 -2.5502  1.0496  0.5207
 8333TIP3    H246491   3.971   0.430  14.632 -0.7570 -1.7086  0.6354
 8334TIP3   OH246492   2.861   5.253  15.244  0.1691  0.0638  0.2605
 8334TIP3    H146493   2.880   5.310  15.169 -0.5866  0.2480  0.2119
 8334TIP3    H246494   2.803   5.305  15.299  0.3073 -0.2716  0.7276
 8335TIP3   OH246495   0.802   6.664   0.850  0.1174 -0.7570 -0.3616
 8335TIP3    H146496   0.813   6.749   0.807  1.5675 -1.2038 -0.9346
 8335TIP3    H246497   0.766   6.607   0.783 -1.7559 -0.3862  0.2903
 8336TIP3   OH246498   4.421   5.395   4.011  0.3513  0.1093  0.2575
 8336TIP3    H146499   4.386   5.321   4.061 -0.5923  1.1866  1.2083
 8336TIP3    H246500   4.379   5.472   4.049  0.7547  1.0809 -1.2203
 8337TIP3   OH246501   3.719   3.140   6.923 -0.2009 -0.3111 -0.3151
 8337TIP3    H146502   3.641   3.111   6.877  0.0762 -1.8522  0.1721
 8337TIP3    H246503   3.691   3.220   6.969 -1.5668 -1.0116  0.0931
 8338TIP3   OH246504   2.791   2.714   4.343 -0.6198 -0.4373 -0.1286
 8338TIP3    H146505   2.721   2.779   4.353  0.4423  1.1326 -2.4876
 8338TIP3    H246506   2.864   2.750   4.393  0.2351  0.6242 -2.1092
 8339TIP3   OH246507   3.796   5.461  10.682  0.1147  0.4878 -0.3481
 8339TIP3    H146508   3.798   5.366  10.670  0.2067  0.4102  0.2613
 8339TIP3    H246509   3.710   5.479  10.720  1.0078  0.3529  1.8562
 8340TIP3   OH246510   1.682   0.132   1.311 -0.4418  0.3969 -0.5140
 8340TIP3    H146511   1.620   0.061   1.329 -0.3931 -0.3429 -2.9778
 8340TIP3    H246512   1.700   0.170   1.396 -2.6193 -0.7687  0.5330
 8341TIP3   OH246513   3.673   6.512   3.012 -0.0497  0.0089 -0.0742
 8341TIP3    H146514   3.611   6.459   2.961  1.1986 -0.8018 -0.7849
 8341TIP3    H246515   3.737   6.542   2.947  0.7499  0.1739  0.7900
 8342TIP3   OH246516   6.671   3.507  15.534 -0.9102  0.2071  0.4135
 8342TIP3    H146517   6.764   3.518  15.513 -0.2010 -1.0004  2.7663
 8342TIP3    H246518   6.638   3.596  15.543  0.4232  0.6347  1.1966
 8343TIP3   OH246519   3.560   5.603   4.546  0.2859 -0.3040  0.1738
 8343TIP3    H146520   3.601   5.525   4.510  0.5642 -0.0761 -0.0070
 8343TIP3    H246521   3.568   5.593   4.640  0.0632 -0.6316  0.1594
 8344TIP3   OH246522   6.391   0.503  14.353 -1.0094  0.3538 -0.7187
 8344TIP3    H146523   6.320   0.473  14.411 -0.9482  1.5064 -0.0351
 8344TIP3    H246524   6.467   0.452  14.382 -0.8549  1.3047  0.5829
 8345TIP3   OH246525   0.211   0.738  16.846 -0.2993 -0.2664 -0.0932
 8345TIP3    H146526   0.294   0.737  16.799 -0.2181  4.6744 -0.3216
 8345TIP3    H246527   0.145   0.734  16.778 -0.1899  1.5244 -0.3229
 8346TIP3   OH246528   6.225   6.066   2.055  0.1974  0.0493 -0.0235
 8346TIP3    H146529   6.245   5.975   2.074  1.3551  0.4829  0.9205
 8346TIP3    H246530   6.132   6.076   2.075 -0.3889 -1.3729 -1.9307
 8347TIP3   OH246531   1.932   3.287  13.812 -0.3902 -0.0409  0.3805
 8347TIP3    H146532   1.907   3.201  13.844  0.5535 -0.8890 -1.1044
 8347TIP3    H246533   1.848   3.332  13.796 -0.9354 -1.6710 -1.4554
 8348TIP3   OH246534   6.540   6.656   3.191  0.1638 -0.2884  0.0766
 8348TIP3    H146535   6.616   6.599   3.190  0.7460  0.4345  1.3681
 8348TIP3    H246536   6.566   6.733   3.139  0.1561 -0.2378  0.1475
 8349TIP3   OH246537   3.574   4.997  11.825 -0.3057  0.3382 -0.2895
 8349TIP3    H146538   3.510   4.928  11.812  1.2175 -0.8755 -1.6523
 8349TIP3    H246539   3.622   4.971  11.903 -0.0305  0.0807 -0.5423
 8350TIP3   OH246540   0.780   4.917   1.036  0.5608 -0.3846  0.3519
 8350TIP3    H146541   0.846   4.979   1.005 -0.6131 -0.2197 -1.9255
 8350TIP3    H246542   0.817   4.831   1.016  0.9312 -0.3638  0.9116
 8351TIP3   OH246543   6.218   5.553   3.664 -0.0013  0.0258 -0.4479
 8351TIP3    H146544   6.245   5.586   3.750  1.0568 -1.6884 -0.1071
 8351TIP3    H246545   6.148   5.612   3.637 -0.7623  0.2546  1.8788
 8352TIP3   OH246546   4.519   4.084  15.456 -0.1527  0.1972  0.2629
 8352TIP3    H146547   4.514   4.038  15.540 -0.6460  0.1562  0.2129
 8352TIP3    H246548   4.428   4.102  15.433  0.0107  0.7012  0.0089
 8353TIP3   OH246549   1.660   1.125   2.682 -0.1978  0.3235  0.3730
 8353TIP3    H146550   1.618   1.069   2.747 -0.1829  1.0259  1.0028
 8353TIP3    H246551   1.754   1.117   2.701 -0.0891 -0.6569 -0.5472
 8354TIP3   OH246552   2.921   0.552   2.571  0.1229  0.2305 -0.7415
 8354TIP3    H146553   2.949   0.614   2.638  0.6874 -1.5757  0.7373
 8354TIP3    H246554   3.002   0.515   2.538 -0.2709 -0.9905 -0.3565
 8355TIP3   OH246555   4.648   3.043  16.783 -0.1637  0.0009  0.5715
 8355TIP3    H146556   4.576   3.105  16.797 -0.6365 -0.1701 -0.9424
 8355TIP3    H246557   4.718   3.074  16.840 -0.5438  1.6949  0.1577
 8356TIP3   OH246558   5.332   6.665   2.158 -0.0816  0.7263  0.6121
 8356TIP3    H146559   5.251   6.711   2.139 -0.5759  0.5292  2.1813
 8356TIP3    H246560   5.381   6.667   2.075 -1.8200  0.5441 -0.4410
 8357TIP3   OH246561   4.847   1.232  16.380 -0.9348  0.1658 -0.0731
 8357TIP3    H146562   4.826   1.225  16.287 -3.2960  0.1025  0.4327
 8357TIP3    H246563   4.799   1.160  16.421 -0.4670  0.6024  1.2816
 8358TIP3   OH246564   6.744   6.025  12.195  0.3881 -0.0387 -0.3965
 8358TIP3    H146565   6.697   6.108  12.203 -0.9640 -0.8294 -0.0493
 8358TIP3    H246566   6.813   6.030  12.261 -0.2318  0.4407  0.2141
 8359TIP3   OH246567   4.318   3.158  11.198  0.5748 -0.2776  0.5766
 8359TIP3    H146568   4.259   3.084  11.182  1.2579 -0.9052  0.9337
 8359TIP3    H246569   4.383   3.152  11.128  0.3168  0.3095  0.2870
 8360TIP3   OH246570   4.606   0.411  16.412 -0.1635 -0.2962 -0.2842
 8360TIP3    H146571   4.572   0.478  16.471 -0.9895  0.0555 -1.1346
 8360TIP3    H246572   4.667   0.360  16.465  2.6516  2.8454 -0.3852
 8361TIP3   OH246573   1.643   4.531   6.300 -0.4311  0.0500 -0.1980
 8361TIP3    H146574   1.600   4.616   6.309 -0.6450 -0.2220  1.3641
 8361TIP3    H246575   1.725   4.540   6.347 -1.0905 -1.0438  1.1982
 8362TIP3   OH246576   5.051   3.289   5.414 -0.6803 -0.1830 -0.1563
 8362TIP3    H146577   5.037   3.319   5.324 -1.8297  2.5400  0.8970
 8362TIP3    H246578   4.964   3.265   5.446 -0.1464 -2.1383 -0.0617
 8363TIP3   OH246579   0.397   6.274   4.173  0.5059 -0.1960  0.9133
 8363TIP3    H146580   0.419   6.301   4.084  0.3584 -0.9743  0.6387
 8363TIP3    H246581   0.441   6.338   4.229  0.4765  0.3829  0.2799
 8364TIP3   OH246582   6.376   1.713  14.388 -0.2005  0.1694  0.0670
 8364TIP3    H146583   6.464   1.747  14.402 -0.9270  1.9035  0.4798
 8364TIP3    H246584   6.354   1.738  14.299 -0.8544  1.0872  0.4755
 8365TIP3   OH246585   6.295   2.071   3.307 -0.7414 -0.0996  0.1304
 8365TIP3    H146586   6.330   1.988   3.274  0.3765 -0.4528  2.1714
 8365TIP3    H246587   6.366   2.134   3.293 -1.1857  0.2977 -0.3884
 8366TIP3   OH246588   2.205   0.018   0.677 -0.0552 -0.4617 -0.0179
 8366TIP3    H146589   2.282  -0.018   0.633  0.3382  0.1178  0.1804
 8366TIP3    H246590   2.185  -0.045   0.746 -0.1317 -0.9240 -0.4586
 8367TIP3   OH246591   6.604   5.908   3.174 -0.3367  0.1387 -0.3044
 8367TIP3    H146592   6.554   5.891   3.254  0.1880  2.2366  0.5220
 8367TIP3    H246593   6.656   5.986   3.195 -0.2391  0.7643 -2.7067
 8368TIP3   OH246594   3.140   4.159  11.510  0.4892 -0.0993 -0.2107
 8368TIP3    H146595   3.138   4.112  11.593  0.8266  0.1426 -0.0651
 8368TIP3    H246596   3.048   4.180  11.492  0.4044 -0.2466  0.0486
 8369TIP3   OH246597   5.938   5.554  15.180 -0.0058  0.2193 -0.2001
 8369TIP3    H146598   6.003   5.526  15.245 -1.0409  1.5720  1.4697
 8369TIP3    H246599   5.974   5.636  15.145 -0.3251  0.4418 -0.0069
 8370TIP3   OH246600   0.538   5.853   1.833 -0.5418 -0.1577  0.1674
 8370TIP3    H146601   0.479   5.928   1.841  0.0947  0.2497  1.2176
 8370TIP3    H246602   0.584   5.850   1.917 -0.4795 -1.6571  0.0948
 8371TIP3   OH246603   3.599   1.214   3.207  0.0111 -0.2608  1.0355
 8371TIP3    H146604   3.602   1.187   3.115  1.4813  0.3465  0.8823
 8371TIP3    H246605   3.610   1.133   3.256  2.3577 -0.2566  0.6081
 8372TIP3   OH246606   1.271   6.329  13.962  0.4638 -0.2446  0.2201
 8372TIP3    H146607   1.352   6.379  13.966 -0.0652  0.5711  0.9101
 8372TIP3    H246608   1.277   6.269  14.037  0.8830 -0.8890 -0.3251
 8373TIP3   OH246609   1.198   4.730   2.787 -0.6720  0.0535  0.1345
 8373TIP3    H146610   1.233   4.688   2.866 -0.0761  0.7348  0.2385
 8373TIP3    H246611   1.255   4.700   2.717 -1.6720 -1.1765 -0.1832
 8374TIP3   OH246612   1.439   0.433  13.242  0.5271  0.6279  0.0962
 8374TIP3    H146613   1.523   0.390  13.224  0.3840 -0.4549  1.9518
 8374TIP3    H246614   1.463   0.523  13.265  0.9103  1.2807 -2.6568
 8375TIP3   OH246615   5.197   2.834  11.815 -0.1415 -0.1288 -1.1157
 8375TIP3    H146616   5.263   2.902  11.802  1.7290 -1.8116 -0.5692
 8375TIP3    H246617   5.171   2.808  11.727  1.3610 -0.8527 -1.3399
 8376TIP3   OH246618   1.983   4.082  14.153  0.2015 -0.1230 -0.3611
 8376TIP3    H146619   1.956   4.102  14.243 -0.9552  0.5588 -0.8519
 8376TIP3    H246620   2.067   4.036  14.163  1.7417  2.8637  0.8741
 8377TIP3   OH246621   5.757   4.365  11.155  0.2228  0.1332 -0.3306
 8377TIP3    H146622   5.782   4.300  11.221 -2.0734 -1.5348 -1.0435
 8377TIP3    H246623   5.769   4.320  11.071 -1.7887  0.4437 -0.8152
 8378TIP3   OH246624   5.836   0.190  13.739 -0.3948  0.2661  0.1618
 8378TIP3    H146625   5.898   0.257  13.709 -1.4754  1.6150  0.9098
 8378TIP3    H246626   5.891   0.114  13.760  0.6313  0.0759 -2.8941
 8379TIP3   OH246627   2.755   4.773   4.494 -0.1400  0.0267 -0.4943
 8379TIP3    H146628   2.822   4.705   4.492 -0.0915  0.0539  0.0686
 8379TIP3    H246629   2.680   4.734   4.449 -0.7055 -1.0475  1.3100
 8380TIP3   OH246630   3.642   1.095   4.076  0.3428  0.7196  0.0886
 8380TIP3    H146631   3.735   1.093   4.056  0.0961  1.6165 -1.2002
 8380TIP3    H246632   3.610   1.175   4.035 -1.4125 -0.6923 -1.3745
 8381TIP3   OH246633   1.728   1.115  12.689 -0.2599 -0.5325  0.5382
 8381TIP3    H146634   1.749   1.059  12.615  0.1387  0.0721  0.1882
 8381TIP3    H246635   1.755   1.065  12.766  2.5033  0.1988  0.1036
 8382TIP3   OH246636   6.070   5.233   1.599 -0.7988 -0.0660 -0.4227
 8382TIP3    H146637   6.086   5.168   1.667  0.2142  1.7350  1.0796
 8382TIP3    H246638   6.120   5.200   1.523  1.6293  0.1185  1.0352
 8383TIP3   OH246639   6.551   2.926   1.479 -0.3512  0.0290  0.2976
 8383TIP3    H146640   6.603   2.959   1.405 -0.1934  0.3484  0.5501
 8383TIP3    H246641   6.595   2.960   1.556 -0.5324 -0.2876  0.5400
 8384TIP3   OH246642   1.758   0.764  11.841 -0.2946 -0.3868 -0.4639
 8384TIP3    H146643   1.683   0.705  11.852 -0.9109  0.4091 -0.3105
 8384TIP3    H246644   1.752   0.793  11.750 -1.0412  0.8322 -0.0325
 8385TIP3   OH246645   0.611   2.407   2.749  0.0561 -0.2877  0.0062
 8385TIP3    H146646   0.609   2.312   2.742  0.4381 -0.4457  1.8269
 8385TIP3    H246647   0.573   2.438   2.666  1.5739 -1.9790 -1.3724
 8386TIP3   OH246648   5.477   4.400  12.528 -0.1928 -0.0058  0.6413
 8386TIP3    H146649   5.408   4.345  12.491 -2.4949  2.0706  1.6720
 8386TIP3    H246650   5.542   4.408  12.458 -1.1606 -1.7378 -0.4806
 8387TIP3   OH246651   6.221   0.315   4.396 -0.3832  0.0282 -0.2796
 8387TIP3    H146652   6.144   0.345   4.347  0.8826  0.1980 -2.2351
 8387TIP3    H246653   6.247   0.234   4.352  0.1551 -0.3965  0.8012
 8388TIP3   OH246654   6.478   2.490   0.746  0.1814 -0.7614 -0.1939
 8388TIP3    H146655   6.418   2.548   0.792  0.3685 -1.0623  0.4320
 8388TIP3    H246656   6.564   2.528   0.761  0.1402 -0.2265 -1.2448
 8389TIP3   OH246657   5.289   1.358  12.440 -0.6941 -0.2213 -0.2292
 8389TIP3    H146658   5.294   1.453  12.445  1.2366 -0.3345  0.1072
 8389TIP3    H246659   5.379   1.330  12.423 -1.1303 -2.0330  0.3918
 8390TIP3   OH246660   1.802   4.369   5.321  0.7988  0.5757  0.9347
 8390TIP3    H146661   1.862   4.438   5.291 -0.0286  1.2909  0.9181
 8390TIP3    H246662   1.716   4.411   5.322  0.1254 -0.7843 -0.1435
 8391TIP3   OH246663   0.230   1.641   0.359 -0.6039  0.3772  0.5570
 8391TIP3    H146664   0.226   1.576   0.288 -1.3211 -0.3411  1.2432
 8391TIP3    H246665   0.253   1.589   0.436 -0.1152  1.1153  0.9093
 8392TIP3   OH246666   6.437   5.661   3.072 -0.4317  0.0578 -0.1811
 8392TIP3    H146667   6.372   5.593   3.052 -1.0847  1.6553 -3.9179
 8392TIP3    H246668   6.401   5.706   3.148 -1.0298 -2.4183  1.0501
 8393TIP3   OH246669   3.148   0.961  16.855  0.2915  0.2102 -0.4713
 8393TIP3    H146670   3.127   0.889  16.796  0.8785  1.0989 -1.7758
 8393TIP3    H246671   3.243   0.954  16.869  0.0538 -0.4126  0.9405
 8394TIP3   OH246672   0.248   4.608  13.280 -0.0498  0.5313 -0.3970
 8394TIP3    H146673   0.221   4.661  13.205 -0.0777  1.6479  0.3943
 8394TIP3    H246674   0.344   4.610  13.278 -0.0326 -0.4574 -1.1054
 8395TIP3   OH246675   6.511   3.177   0.715 -1.0425 -0.6067  0.3335
 8395TIP3    H146676   6.595   3.140   0.689  0.2286  0.3316  2.8729
 8395TIP3    H246677   6.450   3.149   0.647  1.5810 -0.1389 -2.3264
 8396TIP3   OH246678   4.005   6.367  14.016  0.4025 -0.1282 -0.2301
 8396TIP3    H146679   3.936   6.325  14.068  0.9298  0.0761  0.6563
 8396TIP3    H246680   3.959   6.409  13.944 -0.3330 -0.5404 -0.0111
 8397TIP3   OH246681   4.486   4.992   4.127 -0.2927  0.2347 -0.4386
 8397TIP3    H146682   4.397   5.007   4.159  0.1135 -1.1400  1.4201
 8397TIP3    H246683   4.539   4.987   4.207  1.6602  2.2881 -1.5709
 8398TIP3   OH246684   6.427   2.255  12.541  0.7076  0.1816 -0.0304
 8398TIP3    H146685   6.470   2.206  12.611 -0.3864 -1.6377 -0.5852
 8398TIP3    H246686   6.380   2.188  12.490 -0.7595  1.8013 -0.8672
 8399TIP3   OH246687   3.828   4.615   5.021 -0.5013  0.0910  0.2103
 8399TIP3    H146688   3.877   4.611   5.103 -1.4327 -0.9598  0.7205
 8399TIP3    H246689   3.833   4.526   4.986 -1.4296  0.1501 -0.0915
 8400TIP3   OH246690   0.793   3.807   4.221  0.4618  0.5600 -0.1532
 8400TIP3    H146691   0.865   3.851   4.176 -0.2089  0.6316 -1.1736
 8400TIP3    H246692   0.825   3.719   4.238  1.7444  1.3376  1.7327
 8401TIP3   OH246693   3.015   2.217  16.964  0.0921  0.7544  0.2353
 8401TIP3    H146694   3.063   2.236  17.045 -1.1585  4.3375  0.2483
 8401TIP3    H246695   2.922   2.226  16.989 -0.3241  1.0750 -1.3805
 8402TIP3   OH246696   6.030   2.036   0.956  0.3820 -0.4541  0.6037
 8402TIP3    H146697   5.979   2.116   0.944 -0.2480 -0.7623  1.1787
 8402TIP3    H246698   6.113   2.065   0.993  1.0088  0.1535 -1.2071
 8403TIP3   OH246699   0.403   3.734  14.541 -0.0883 -0.5133 -0.1927
 8403TIP3    H146700   0.437   3.751  14.629  1.9477 -0.0910 -1.0326
 8403TIP3    H246701   0.397   3.638  14.536  0.1605 -0.5529  0.2597
 8404TIP3   OH246702   5.076   5.925   0.319  0.5900 -0.2002 -0.2401
 8404TIP3    H146703   5.070   6.004   0.265 -1.8701 -0.4697 -0.3983
 8404TIP3    H246704   5.047   5.855   0.261 -0.3996 -0.7429  0.9040
 8405TIP3   OH246705   1.704   5.470   4.345  0.1184 -0.7876 -0.5956
 8405TIP3    H146706   1.791   5.429   4.343 -0.9664 -3.2511  0.0485
 8405TIP3    H246707   1.644   5.400   4.319 -1.8654  0.3222  0.8132
 8406TIP3   OH246708   1.959   4.718  11.115  0.0139  0.1405 -0.5215
 8406TIP3    H146709   1.872   4.757  11.117 -0.0237  0.1070 -1.2786
 8406TIP3    H246710   1.992   4.727  11.204 -1.9289 -2.4927  0.4983
 8407TIP3   OH246711   0.603   4.624   5.583 -0.8682  0.6801  0.6936
 8407TIP3    H146712   0.600   4.719   5.593 -0.7160  0.5806  1.7662
 8407TIP3    H246713   0.541   4.605   5.512  0.3965  1.7318 -0.7365
 8408TIP3   OH246714   6.180   6.231   3.976  0.2225  0.2034  0.4492
 8408TIP3    H146715   6.112   6.294   3.951 -0.2398 -0.5753 -0.2637
 8408TIP3    H246716   6.141   6.182   4.049  0.0403 -0.2071  0.0756
 8409TIP3   OH246717   3.430   4.005  15.956 -0.2895 -0.2917 -0.6937
 8409TIP3    H146718   3.384   4.032  15.877 -0.4388  1.0935 -0.1363
 8409TIP3    H246719   3.485   3.932  15.928 -1.4529 -0.7673 -1.7502
 8410TIP3   OH246720   5.129   3.894   0.045 -0.0569  0.1032 -0.1008
 8410TIP3    H146721   5.187   3.889   0.121  0.8823 -1.3116 -0.8869
 8410TIP3    H246722   5.109   3.803   0.023 -0.5732  0.4979 -1.3450
 8411TIP3   OH246723   4.586   3.971   6.565  0.2297  0.0793 -0.2065
 8411TIP3    H146724   4.582   4.010   6.477 -0.0549  0.8497  0.1483
 8411TIP3    H246725   4.669   4.002   6.601 -1.1729  2.4718  1.0576
 8412TIP3   OH246726   2.428   1.220  16.691 -0.1649 -0.1657  0.5885
 8412TIP3    H146727   2.425   1.132  16.729  0.9839 -0.0231  1.0405
 8412TIP3    H246728   2.508   1.220  16.639 -0.1051  0.6506  0.6850
 8413TIP3   OH246729   3.536   1.580  13.706 -0.0381 -0.6484 -0.3868
 8413TIP3    H146730   3.481   1.549  13.634 -1.0643 -3.6432  1.5767
 8413TIP3    H246731   3.474   1.604  13.774  0.9978 -1.3136  0.8063
 8414TIP3   OH246732   0.497   2.922  16.350  0.0541 -0.0617  0.3531
 8414TIP3    H146733   0.519   3.009  16.317 -0.4400  0.1954  0.6846
 8414TIP3    H246734   0.504   2.865  16.274 -0.7666  0.4663 -0.1324
 8415TIP3   OH246735   6.038   0.362  13.739  0.2859  0.2038 -0.1616
 8415TIP3    H146736   6.091   0.431  13.699  0.6151  0.0977  0.0953
 8415TIP3    H246737   6.079   0.281  13.711  1.7319  0.1514  2.0391
 8416TIP3   OH246738   2.930   4.390   6.422 -0.6780 -0.0310  0.0800
 8416TIP3    H146739   2.979   4.472   6.418 -2.3384  1.0675  2.1065
 8416TIP3    H246740   2.992   4.324   6.388  0.6869  1.9949 -1.4924
 8417TIP3   OH246741   4.309   3.739  12.407 -0.3117 -0.3170 -0.2505
 8417TIP3    H146742   4.295   3.784  12.490  0.7292  1.1708 -0.8633
 8417TIP3    H246743   4.391   3.690  12.419 -1.2185 -1.7689  0.2659
 8418TIP3   OH246744   5.102   4.183  15.037 -0.6552 -0.6288  0.0863
 8418TIP3    H146745   5.039   4.252  15.016 -0.6152 -0.3758  0.7891
 8418TIP3    H246746   5.187   4.221  15.015 -0.7445 -0.9774 -0.8817
 8419TIP3   OH246747   1.576   3.615   5.132  0.3462 -0.3021 -0.0879
 8419TIP3    H146748   1.660   3.658   5.115  0.1974  0.4757  1.0914
 8419TIP3    H246749   1.518   3.651   5.065  0.8733 -0.6143 -0.7206
 8420TIP3   OH246750   2.461   6.580   6.178  0.5755  0.2935  0.5275
 8420TIP3    H146751   2.550   6.600   6.207  1.2432 -1.1738 -0.4777
 8420TIP3    H246752   2.406   6.602   6.254  1.7266  1.6676  0.9865
 8421TIP3   OH246753   4.725   0.812  14.012 -0.0473  0.0581 -0.4461
 8421TIP3    H146754   4.693   0.734  14.058  1.9601  0.2705  1.4178
 8421TIP3    H246755   4.671   0.883  14.044 -0.1293 -0.1504 -0.1210
 8422TIP3   OH246756   3.058   5.481  13.654 -0.1248 -0.2136  0.1689
 8422TIP3    H146757   3.100   5.452  13.572 -2.0622 -1.4980 -0.4096
 8422TIP3    H246758   3.004   5.406  13.680  0.0612  0.3900  2.3581
 8423TIP3   OH246759   2.985   2.167  15.639  0.2756 -0.0462  0.0381
 8423TIP3    H146760   3.046   2.231  15.603  1.1821 -0.4196  0.8929
 8423TIP3    H246761   2.902   2.186  15.595  1.6556 -1.4741 -3.4405
 8424TIP3   OH246762   3.543   1.190   0.353  0.2161  0.4927  0.6787
 8424TIP3    H146763   3.635   1.208   0.338  0.7474 -0.8563  2.1594
 8424TIP3    H246764   3.541   1.100   0.387 -1.6907  0.2846  0.0751
 8425TIP3   OH246765   6.278   6.001   3.809  0.1343  0.0707  0.1034
 8425TIP3    H146766   6.221   6.065   3.852  0.0477 -0.7979  1.3003
 8425TIP3    H246767   6.257   5.918   3.852 -2.0367 -1.3912 -3.5412
 8426TIP3   OH246768   3.076   4.350   4.959 -1.0221  0.4245 -0.0465
 8426TIP3    H146769   3.045   4.313   5.042 -0.1233 -0.2919 -0.0187
 8426TIP3    H246770   3.136   4.420   4.986  1.5184 -1.6814 -0.0364
 8427TIP3   OH246771   5.947   2.167   5.806  0.0307 -0.2011 -0.0949
 8427TIP3    H146772   6.002   2.103   5.761 -1.0581 -0.1349 -1.5819
 8427TIP3    H246773   5.870   2.175   5.750 -0.2587  1.7309  0.5442
 8428TIP3   OH246774   2.549   0.682   1.672  0.5930  0.4409  0.6360
 8428TIP3    H146775   2.528   0.593   1.699 -1.0079  0.8423  0.7852
 8428TIP3    H246776   2.632   0.702   1.716  1.7318 -1.4794 -0.5771
 8429TIP3   OH246777   6.601   0.880   5.338 -1.0375  0.1916 -0.1310
 8429TIP3    H146778   6.690   0.887   5.303 -0.8520  0.7109  0.4485
 8429TIP3    H246779   6.567   0.798   5.301 -1.0450  1.0006 -1.9936
 8430TIP3   OH246780   3.799   6.182   0.660  0.7078 -0.8748 -0.2158
 8430TIP3    H146781   3.707   6.185   0.635  0.1833 -1.1184  1.5912
 8430TIP3    H246782   3.811   6.258   0.718  1.1969 -1.7882  0.9118
 8431TIP3   OH246783   0.346   4.574   0.409 -0.7827  0.3617  0.7017
 8431TIP3    H146784   0.312   4.503   0.463  2.2192 -0.5690  1.4716
 8431TIP3    H246785   0.417   4.535   0.359 -0.8612  2.1953 -0.9201
 8432TIP3   OH246786   6.015   1.159   3.481  0.1315 -0.2074 -0.6703
 8432TIP3    H146787   5.937   1.107   3.467  0.1215  0.3121 -2.6117
 8432TIP3    H246788   6.064   1.112   3.549 -2.3048 -0.0301  1.2513
 8433TIP3   OH246789   1.645   0.930   5.135  0.2452  0.1888  0.1704
 8433TIP3    H146790   1.700   0.961   5.064 -2.2099 -0.9527 -2.3527
 8433TIP3    H246791   1.563   0.979   5.126  0.5019  1.3706  3.4097
 8434TIP3   OH246792   2.237   3.856   4.323 -0.0017  0.2608 -0.1067
 8434TIP3    H146793   2.278   3.875   4.407 -0.8022  0.9338  0.1341
 8434TIP3    H246794   2.306   3.875   4.259  0.6314 -0.3100  0.3903
 8435TIP3   OH246795   5.434   3.621  16.348 -0.3275 -0.1766 -0.2643
 8435TIP3    H146796   5.380   3.543  16.358 -1.0374  0.3750  0.2566
 8435TIP3    H246797   5.373   3.694  16.353  0.3213  0.4176 -0.8162
 8436TIP3   OH246798   3.104   0.369   1.986  0.0033 -0.2468 -0.4911
 8436TIP3    H146799   3.170   0.350   2.053  0.8195  2.8739 -0.3274
 8436TIP3    H246800   3.031   0.310   2.007  1.4181 -1.4131  1.3164
 8437TIP3   OH246801   0.926   1.032  16.813 -0.3473  0.2976  0.0680
 8437TIP3    H146802   0.995   1.012  16.876  0.1353  0.5519 -0.3687
 8437TIP3    H246803   0.847   1.044  16.866  0.6080  3.2193  0.9246
 8438TIP3   OH246804   3.863   4.819   5.766  0.1573  0.1265  0.1185
 8438TIP3    H146805   3.833   4.744   5.818 -1.0186  0.9792  0.7073
 8438TIP3    H246806   3.952   4.795   5.738  0.3825 -0.8303  1.5825
 8439TIP3   OH246807   6.797   5.144   2.766  0.3773 -0.0555  0.9305
 8439TIP3    H146808   6.712   5.160   2.807  1.0396  1.2335  1.8390
 8439TIP3    H246809   6.784   5.170   2.675 -0.7610 -1.7931  0.5600
 8440TIP3   OH246810   4.122   0.508  12.145 -0.3126 -0.1351  0.4735
 8440TIP3    H146811   4.143   0.599  12.169  1.9568 -0.1932 -1.1464
 8440TIP3    H246812   4.163   0.455  12.214 -1.4361  0.0236  1.2877
 8441TIP3   OH246813   6.587   2.581  16.588  0.5501 -0.0715 -0.4015
 8441TIP3    H146814   6.672   2.563  16.629  1.1261  0.8021 -1.2159
 8441TIP3    H246815   6.604   2.577  16.494  0.6061  4.1705 -0.6452
 8442TIP3   OH246816   5.294   1.024   4.918 -0.8122  1.2129 -0.2373
 8442TIP3    H146817   5.296   0.945   4.865 -0.9964  0.4942  0.7970
 8442TIP3    H246818   5.333   1.091   4.863 -0.0809  0.2578 -0.9041
 8443TIP3   OH246819   6.508   3.979   6.103 -0.7309 -0.1283 -0.3442
 8443TIP3    H146820   6.471   3.905   6.150  0.9943 -0.4659  0.5402
 8443TIP3    H246821   6.537   3.943   6.019 -1.0970 -0.1665 -0.4537
 8444TIP3   OH246822   6.711   4.154   0.106 -0.0879 -0.1848  0.4002
 8444TIP3    H146823   6.777   4.098   0.066  0.5492  0.1047  1.0312
 8444TIP3    H246824   6.673   4.100   0.175 -0.4947 -0.3423  0.0545
 8445TIP3   OH246825   2.316   1.065  11.353  0.7113  0.0064 -0.0554
 8445TIP3    H146826   2.339   1.061  11.260 -1.0991  1.3595 -0.5924
 8445TIP3    H246827   2.223   1.088  11.354  0.6031 -0.3626  2.0991
 8446TIP3   OH246828   0.221   2.293   0.251 -0.0507 -0.1016 -0.1160
 8446TIP3    H146829   0.250   2.375   0.211 -0.5856  0.3339  0.3956
 8446TIP3    H246830   0.174   2.319   0.330  0.2155 -0.9248  0.3222
 8447TIP3   OH246831   1.638   4.691  14.814  0.3034  0.9943 -0.5265
 8447TIP3    H146832   1.564   4.702  14.754  0.0631 -0.5321 -0.5274
 8447TIP3    H246833   1.669   4.602  14.798  3.5963  2.3336 -2.1438
 8448TIP3   OH246834   0.537   3.996   0.485  0.2239  0.2775 -0.3730
 8448TIP3    H146835   0.610   3.945   0.451 -0.6629 -0.5764 -1.0171
 8448TIP3    H246836   0.578   4.065   0.537  1.3926 -1.7677  1.4637
 8449TIP3   OH246837   6.780   5.884   3.887 -0.6486 -0.2230  0.1605
 8449TIP3    H146838   6.792   5.977   3.909  0.5861 -0.5149  0.7432
 8449TIP3    H246839   6.699   5.882   3.837 -0.1150  1.3278 -0.8124
 8450TIP3   OH246840   4.557   2.820  12.700 -0.2632  0.0758 -0.1445
 8450TIP3    H146841   4.592   2.761  12.766 -0.1520  2.0568  1.6009
 8450TIP3    H246842   4.632   2.846  12.648  0.3306  1.5242  1.3820
 8451TIP3   OH246843   2.132   4.254   4.726  0.2148  0.4252  0.3075
 8451TIP3    H146844   2.173   4.335   4.753  0.2359  0.1987  0.9592
 8451TIP3    H246845   2.163   4.239   4.637  0.5007  0.9349  0.3253
 8452TIP3   OH246846   5.143   0.576   4.594 -0.5735 -0.6722  0.0458
 8452TIP3    H146847   5.154   0.484   4.569  1.0831 -0.5695  0.3048
 8452TIP3    H246848   5.120   0.621   4.512  0.7531 -0.9897 -0.5237
 8453TIP3   OH246849   2.055   4.866  11.393 -0.1585  0.1564  0.1188
 8453TIP3    H146850   2.065   4.953  11.353 -0.4320 -0.1093 -0.5381
 8453TIP3    H246851   2.009   4.883  11.475 -0.4517  0.6099 -0.1348
 8454TIP3   OH246852   3.707   5.576   1.714 -0.1011  0.1512  0.4214
 8454TIP3    H146853   3.694   5.485   1.741  3.3146  0.1289  2.3263
 8454TIP3    H246854   3.651   5.627   1.772  0.6770 -0.5192  1.7944
 8455TIP3   OH246855   5.400   2.580  16.163 -0.0532 -0.4350  0.1733
 8455TIP3    H146856   5.335   2.521  16.123 -0.2569  0.5882 -1.0441
 8455TIP3    H246857   5.391   2.662  16.114  2.9487 -0.6261 -0.8142
 8456TIP3   OH246858   0.221   0.822  10.680  0.1101 -0.7727  0.0730
 8456TIP3    H146859   0.288   0.757  10.660  0.6474 -0.2542  0.1921
 8456TIP3    H246860   0.201   0.863  10.596 -2.1984 -2.9326 -0.5267
 8457TIP3   OH246861   3.596   1.877  17.127  0.9319  0.1928  0.4575
 8457TIP3    H146862   3.520   1.858  17.182  0.9992  1.1417  0.8988
 8457TIP3    H246863   3.566   1.865  17.038  0.3239  0.3325  0.6434
 8458TIP3   OH246864   6.393   2.041   2.871 -0.9878  0.3210  0.2842
 8458TIP3    H146865   6.363   2.128   2.898 -0.1400  0.8432 -0.4337
 8458TIP3    H246866   6.366   2.033   2.779 -0.5146  0.0830  0.1611
 8459TIP3   OH246867   3.646   6.610   6.240 -0.7039 -0.4611 -0.2349
 8459TIP3    H146868   3.700   6.539   6.275 -0.4307 -0.1277  0.0232
 8459TIP3    H246869   3.705   6.660   6.184  0.7798  3.1112  4.2683
 8460TIP3   OH246870   5.147   4.220  13.845 -0.3305  0.2715  0.5728
 8460TIP3    H146871   5.068   4.263  13.811  1.3125  3.1418  0.2066
 8460TIP3    H246872   5.136   4.220  13.940 -0.4943  1.2546  0.5544
 8461TIP3   OH246873   6.669   3.555   0.043  0.6450 -0.2383  0.0279
 8461TIP3    H146874   6.628   3.588  -0.036  0.1745 -0.5462  0.1403
 8461TIP3    H246875   6.616   3.479   0.068  0.1734  0.4820  1.2270
 8462TIP3   OH246876   5.223   0.883   5.366 -0.1847 -0.1043 -0.1418
 8462TIP3    H146877   5.141   0.909   5.407 -0.2508 -0.6439  0.0774
 8462TIP3    H246878   5.209   0.897   5.273 -0.9581 -1.3285 -0.2239
 8463TIP3   OH246879   6.801   6.349   2.341 -0.1047  0.2450 -0.2370
 8463TIP3    H146880   6.806   6.358   2.246  0.0235  0.8289 -0.1794
 8463TIP3    H246881   6.731   6.286   2.357  0.6424 -0.7402 -0.7610
 8464TIP3   OH246882   3.432   3.706   4.756  0.4251  0.0372 -0.6070
 8464TIP3    H146883   3.478   3.639   4.806  0.9877  1.9786  1.5500
 8464TIP3    H246884   3.419   3.778   4.818 -3.3248  0.5325 -1.8488
 8465TIP3   OH246885   6.027   6.112  12.790  0.3300  0.4243  0.5126
 8465TIP3    H146886   6.034   6.140  12.699 -0.5020  0.1552  0.3589
 8465TIP3    H246887   6.061   6.186  12.841  0.0883  0.8751  0.0233
 8466TIP3   OH246888   2.555   3.907  14.548 -0.3349 -0.4843  0.7168
 8466TIP3    H146889   2.481   3.943  14.500  0.3868  0.6867  0.4622
 8466TIP3    H246890   2.617   3.979  14.554  1.0564 -1.6325  0.3849
 8467TIP3   OH246891   3.009   4.963  12.765  0.1044 -0.2939 -0.1954
 8467TIP3    H146892   3.066   5.028  12.807  1.1950 -0.4209 -1.4492
 8467TIP3    H246893   3.065   4.888  12.750 -0.0514  0.0172 -2.5474
 8468TIP3   OH246894   2.064   6.549   2.377 -0.1603  0.0073 -0.0536
 8468TIP3    H146895   2.046   6.632   2.421  1.2164  1.1960 -1.6676
 8468TIP3    H246896   2.154   6.528   2.402 -0.2106 -0.5633 -0.3502
 8469TIP3   OH246897   1.525   6.525   4.701  0.3191  0.3785  0.0918
 8469TIP3    H146898   1.574   6.602   4.672  0.7151  0.0383 -0.1315
 8469TIP3    H246899   1.437   6.559   4.719  0.3331  0.7795 -0.5619
 8470TIP3   OH246900   5.304   1.436   1.428  0.3274 -0.4946 -0.3058
 8470TIP3    H146901   5.376   1.466   1.483  1.4317 -2.0966 -0.8513
 8470TIP3    H246902   5.266   1.516   1.392  2.8297  0.3040 -1.2769
 8471TIP3   OH246903   2.477   1.656   1.743 -0.5225  0.2420 -0.1822
 8471TIP3    H146904   2.424   1.590   1.788 -2.8991  2.1397 -0.0982
 8471TIP3    H246905   2.542   1.605   1.695 -0.5574 -2.0228  2.0400
 8472TIP3   OH246906   4.880   1.975   2.897 -0.0222 -0.5145  0.2892
 8472TIP3    H146907   4.935   2.024   2.836  1.6128 -1.1148  1.2288
 8472TIP3    H246908   4.837   2.042   2.951  0.6966 -0.0514  0.2989
 8473TIP3   OH246909   5.730   5.155   2.425 -0.2850 -0.1590 -0.3995
 8473TIP3    H146910   5.781   5.180   2.502  0.3235  2.6162 -1.6432
 8473TIP3    H246911   5.639   5.171   2.450 -0.1759 -0.4080  0.1548
 8474TIP3   OH246912   3.157   2.920  16.753  0.0044  0.8443  0.6330
 8474TIP3    H146913   3.075   2.964  16.775 -0.0329  1.5620 -0.8672
 8474TIP3    H246914   3.137   2.873  16.671  0.7964  0.1833  0.8122
 8475TIP3   OH246915   3.322   2.686   2.504 -0.0699 -0.1163  0.1515
 8475TIP3    H146916   3.287   2.676   2.415 -0.5382 -2.0732  0.5247
 8475TIP3    H246917   3.339   2.779   2.513 -0.4053  0.1611 -1.8557
 8476TIP3   OH246918   4.145   4.513   4.001  0.4943 -0.4022 -0.2756
 8476TIP3    H146919   4.215   4.464   3.958 -0.8426 -1.7407 -0.9957
 8476TIP3    H246920   4.070   4.453   4.000 -0.5266  0.8198  0.8997
 8477TIP3   OH246921   3.014   3.151   0.446  0.5542 -0.1566 -0.4314
 8477TIP3    H146922   2.981   3.223   0.393 -0.7580 -0.1938  0.3289
 8477TIP3    H246923   2.959   3.151   0.524  2.7523  0.1996  1.1902
 8478TIP3   OH246924   1.603   4.560  14.557 -0.1508  0.1803  0.1154
 8478TIP3    H146925   1.569   4.471  14.556 -1.5791  0.7218 -0.9228
 8478TIP3    H246926   1.545   4.609  14.499  2.0159  1.2726 -1.2140
 8479TIP3   OH246927   5.468   4.450  13.028  0.8230 -0.0031  0.8150
 8479TIP3    H146928   5.462   4.355  13.018  1.8796 -0.0825  0.8769
 8479TIP3    H246929   5.488   4.463  13.121 -1.3969  0.3883  1.2800
 8480TIP3   OH246930   4.278   2.040   4.779 -0.0595 -0.0027 -0.0836
 8480TIP3    H146931   4.359   2.041   4.728 -0.4007 -0.5312 -0.6490
 8480TIP3    H246932   4.209   2.053   4.714 -0.4194  0.6017  0.4195
 8481TIP3   OH246933   0.429   4.401  14.080  0.4771 -0.5375 -0.4609
 8481TIP3    H146934   0.396   4.435  13.996  2.0943 -2.7822 -2.0711
 8481TIP3    H246935   0.509   4.354  14.056  1.2378 -0.7771  2.4540
 8482TIP3   OH246936   3.324   3.811   2.619  0.2229 -0.5137  0.0520
 8482TIP3    H146937   3.240   3.789   2.660 -0.2586  0.9233 -0.1364
 8482TIP3    H246938   3.388   3.798   2.689 -0.6535  2.3529  1.4532
 8483TIP3   OH246939   2.460   5.333   1.227 -0.5301  0.2395 -0.6311
 8483TIP3    H146940   2.442   5.328   1.320 -1.9464  1.3381 -0.8252
 8483TIP3    H246941   2.549   5.370   1.222 -0.5834  0.4964  0.2698
 8484TIP3   OH246942   3.395   2.668   6.388  0.0061  0.2913  0.3639
 8484TIP3    H146943   3.385   2.581   6.351 -1.3937  0.2295  0.8767
 8484TIP3    H246944   3.360   2.662   6.477  0.4045  1.2337  0.5998
 8485TIP3   OH246945   4.889   0.494   2.662 -0.5624  0.2671 -0.2111
 8485TIP3    H146946   4.958   0.502   2.728 -0.3835  1.0145 -0.4835
 8485TIP3    H246947   4.936   0.490   2.579 -0.8911  1.9596 -0.4874
 8486TIP3   OH246948   3.472   0.291  12.125 -0.0692  0.3735 -0.7839
 8486TIP3    H146949   3.396   0.249  12.165 -0.9951  1.5556 -1.2720
 8486TIP3    H246950   3.544   0.231  12.141 -1.1288 -0.8079 -0.3968
 8487TIP3   OH246951   6.412   6.604   5.982 -0.6042  0.3978  0.0459
 8487TIP3    H146952   6.484   6.553   5.945  0.1969  1.9730 -0.6562
 8487TIP3    H246953   6.409   6.580   6.074  1.6703  1.2147  0.3629
 8488TIP3   OH246954   0.986   5.279  15.837  0.1644 -0.3266 -0.5342
 8488TIP3    H146955   1.067   5.325  15.861  0.6243 -1.7944  0.8336
 8488TIP3    H246956   0.998   5.257  15.745  0.1352  1.8619 -1.0926
 8489TIP3   OH246957   2.130   1.343  11.559 -0.6526  0.6615  0.6042
 8489TIP3    H146958   2.116   1.394  11.479  2.0913  1.9202  0.8831
 8489TIP3    H246959   2.148   1.254  11.528 -1.1776  0.7910 -0.0849
 8490TIP3   OH246960   3.003   4.434   2.966  0.1283  0.0902  0.1121
 8490TIP3    H146961   2.957   4.452   2.885 -1.4303 -1.8347  0.5202
 8490TIP3    H246962   3.005   4.338   2.972  2.1615  0.1743  1.2501
 8491TIP3   OH246963   0.218   4.163  14.355 -0.2251 -0.1650  0.0296
 8491TIP3    H146964   0.205   4.069  14.362  0.2819 -0.1496  1.2442
 8491TIP3    H246965   0.135   4.201  14.385 -0.2250 -0.2070  0.0824
 8492TIP3   OH246966   3.382   3.664  10.756 -0.2718 -0.5535 -0.3974
 8492TIP3    H146967   3.398   3.758  10.746 -1.3587 -0.1443  1.4764
 8492TIP3    H246968   3.293   3.659  10.792  0.0147 -2.2618  0.0803
 8493TIP3   OH246969   5.877   4.356  16.297  0.0438  0.4217 -0.1515
 8493TIP3    H146970   5.807   4.333  16.358 -0.0697 -0.9547 -0.7927
 8493TIP3    H246971   5.832   4.403  16.226 -0.0165  0.8016  0.1327
 8494TIP3   OH246972   3.944   3.146   1.141 -0.1179  0.0301  0.4106
 8494TIP3    H146973   3.928   3.234   1.105 -0.2558 -0.3917 -0.5625
 8494TIP3    H246974   3.985   3.098   1.069  0.1902 -0.6305  1.0269
 8495TIP3   OH246975   0.765   5.569  16.806  0.0053 -0.6501 -0.2266
 8495TIP3    H146976   0.796   5.616  16.883 -1.5040  0.4685 -0.2816
 8495TIP3    H246977   0.780   5.628  16.733 -2.5175  0.0880 -0.2064
 8496TIP3   OH246978   1.145   5.108   2.185 -0.3203 -0.7375 -0.3663
 8496TIP3    H146979   1.170   5.018   2.165  0.8175 -0.1417 -1.7547
 8496TIP3    H246980   1.228   5.156   2.185 -1.1505  0.7454 -2.0935
 8497TIP3   OH246981   3.312   4.251  15.154  0.3513 -0.0613  0.8963
 8497TIP3    H146982   3.266   4.275  15.234  0.2665  1.6555  0.3476
 8497TIP3    H246983   3.369   4.325  15.135 -2.1126  1.0751 -2.4801
 8498TIP3   OH246984   4.663   1.471  11.807 -0.5800  0.1119 -0.1839
 8498TIP3    H146985   4.616   1.498  11.885 -0.9027  0.0902 -0.3731
 8498TIP3    H246986   4.596   1.439  11.747 -0.1305 -1.7323  0.2763
 8499TIP3   OH246987   1.720   5.844   4.096 -0.5348  0.1942 -0.9392
 8499TIP3    H146988   1.804   5.878   4.066  1.2072 -0.0291  3.3085
 8499TIP3    H246989   1.672   5.921   4.125 -1.2067  0.1439 -1.8739
 8500TIP3   OH246990   2.461   4.440  12.295 -0.2961 -0.1218  0.4848
 8500TIP3    H146991   2.383   4.459  12.243 -0.0458 -0.9736 -0.2015
 8500TIP3    H246992   2.528   4.499  12.260 -0.1056 -0.7506 -0.2241
 8501TIP3   OH246993   5.816   3.616   4.656  0.4258 -0.4151 -0.3948
 8501TIP3    H146994   5.886   3.643   4.597  0.6987  1.1930  0.6554
 8501TIP3    H246995   5.736   3.655   4.619  0.7652  1.5622  0.9145
 8502TIP3   OH246996   2.834   2.772  17.166  0.4939 -0.2682 -0.3783
 8502TIP3    H146997   2.796   2.859  17.175  1.1426 -0.2930  3.0640
 8502TIP3    H246998   2.922   2.781  17.201  1.6290 -1.6574 -2.7359
 8503TIP3   OH246999   0.427   3.904  12.081  0.2014 -0.0854 -0.2261
 8503TIP3    H147000   0.358   3.883  12.145  1.6618  0.1178  1.4352
 8503TIP3    H247001   0.430   3.999  12.079  0.9784 -0.0974  0.2987
 8504TIP3   OH247002   1.078   6.257  16.820  0.2070 -0.1931 -0.2476
 8504TIP3    H147003   1.030   6.234  16.899  1.2463 -1.4502  0.0442
 8504TIP3    H247004   1.058   6.349  16.805  0.2106  0.1348  1.6368
 8505TIP3   OH247005   2.410   4.203  14.756 -0.7198 -0.4218  0.0530
 8505TIP3    H147006   2.500   4.181  14.729 -0.8041  0.5813 -1.0525
 8505TIP3    H247007   2.415   4.208  14.852  0.7008  0.8952 -0.0670
 8506TIP3   OH247008   3.295   6.638   4.883  0.1713 -0.3874  0.5944
 8506TIP3    H147009   3.264   6.575   4.949 -1.0539  0.2080  0.6006
 8506TIP3    H247010   3.340   6.584   4.818 -0.6440 -1.2540  0.7278
 8507TIP3   OH247011   2.539   6.614  13.184  0.5564 -0.3647 -0.5313
 8507TIP3    H147012   2.629   6.605  13.214  0.4458  1.3830  0.4061
 8507TIP3    H247013   2.545   6.665  13.103  0.2402  2.1994  0.9990
 8508TIP3   OH247014   4.891   2.774   5.973  0.4273 -0.4409  0.3418
 8508TIP3    H147015   4.930   2.733   6.050 -3.0659 -1.7026  1.5362
 8508TIP3    H247016   4.840   2.704   5.931 -0.9657  1.2161 -0.8313
 8509TIP3   OH247017   1.497   4.028   4.089 -0.1160 -0.4388  0.5421
 8509TIP3    H147018   1.493   4.124   4.083 -1.5955 -0.4480  1.1096
 8509TIP3    H247019   1.576   4.011   4.140 -0.2664  0.5115  1.1133
 8510TIP3   OH247020   4.989   0.798  13.955 -0.4428 -0.1635 -0.0337
 8510TIP3    H147021   4.893   0.801  13.953 -0.5512  1.2032  3.8688
 8510TIP3    H247022   5.015   0.874  13.902 -1.5664  0.8904  0.8814
 8511TIP3   OH247023   3.069   1.857   1.838  0.4545 -0.4561 -0.1523
 8511TIP3    H147024   3.125   1.834   1.913  0.6056  0.4740  0.0266
 8511TIP3    H247025   3.083   1.951   1.826 -2.0843  0.0665  0.7283
 8512TIP3   OH247026   2.426   6.818   2.107  0.1341 -0.5893  0.3918
 8512TIP3    H147027   2.457   6.850   2.023  0.8860 -2.1674  0.0460
 8512TIP3    H247028   2.331   6.829   2.104  0.4334  2.3535  0.6294
 8513TIP3   OH247029   0.596   4.445  15.514  0.0288  0.3151 -0.1747
 8513TIP3    H147030   0.582   4.383  15.585 -0.3136  0.4067 -0.1581
 8513TIP3    H247031   0.551   4.525  15.542 -0.3325  0.2699 -0.6045
 8514TIP3   OH247032   0.851   4.728   3.284 -0.6873 -0.6381 -0.8322
 8514TIP3    H147033   0.788   4.733   3.213 -1.3697 -1.3062 -0.2776
 8514TIP3    H247034   0.861   4.819   3.314 -0.9595 -0.4629 -1.2849
 8515TIP3   OH247035   5.199   5.145  15.568 -0.4842  0.2349 -0.1623
 8515TIP3    H147036   5.254   5.090  15.624  1.8743  4.3576  1.7568
 8515TIP3    H247037   5.116   5.154  15.616 -0.0587  0.1909  0.5812
 8516TIP3   OH247038   3.582   6.049   5.796 -0.5500 -0.1442 -0.3099
 8516TIP3    H147039   3.529   6.024   5.872  1.2099  1.2533  1.4338
 8516TIP3    H247040   3.570   6.144   5.788 -0.2210 -0.1887 -1.4043
 8517TIP3   OH247041   3.097   3.899  14.058 -0.2647 -0.4386  0.4683
 8517TIP3    H147042   3.012   3.866  14.088  0.7077 -2.1253  1.4259
 8517TIP3    H247043   3.101   3.873  13.966 -1.9674  2.1265 -0.3883
 8518TIP3   OH247044   3.402   5.824  14.173 -0.4435  0.0859  0.6357
 8518TIP3    H147045   3.407   5.807  14.267  0.6289 -0.5686  0.4725
 8518TIP3    H247046   3.347   5.754  14.138 -0.0353 -0.2407  0.6430
 8519TIP3   OH247047   6.421   0.817  11.027 -0.3529 -0.3516 -0.0720
 8519TIP3    H147048   6.349   0.860  11.073  0.2436  0.6555 -0.0629
 8519TIP3    H247049   6.384   0.791  10.943 -0.1984  1.8964 -0.8416
 8520TIP3   OH247050   2.376   5.664  17.174 -0.5731  0.1978 -0.3237
 8520TIP3    H147051   2.290   5.676  17.214 -0.6261 -1.3221  0.0687
 8520TIP3    H247052   2.362   5.596  17.107  0.4041 -0.4093  0.0730
 8521TIP3   OH247053   5.480   6.670   2.380  0.3122  0.6548 -0.2655
 8521TIP3    H147054   5.465   6.754   2.423 -0.1208  1.1722 -1.3818
 8521TIP3    H247055   5.426   6.674   2.301  0.4444 -0.5944 -0.4366
 8522TIP3   OH247056   2.497   5.323  16.715 -0.3089  0.0870 -0.2371
 8522TIP3    H147057   2.593   5.318  16.721 -0.3825  0.3286  1.2793
 8522TIP3    H247058   2.480   5.330  16.621  1.1371 -0.4325 -0.5603
 8523TIP3   OH247059   4.998   0.208  14.348  0.0597  0.1363 -0.9227
 8523TIP3    H147060   5.051   0.258  14.410  0.8564 -1.5945 -0.1572
 8523TIP3    H247061   4.909   0.214  14.381  0.3568 -0.0561 -0.0767
 8524TIP3   OH247062   2.935   1.027   3.361 -0.0147  0.1904 -0.2640
 8524TIP3    H147063   2.906   0.946   3.321 -1.2176  0.4264  0.1054
 8524TIP3    H247064   2.854   1.073   3.385  0.6528  0.8196  0.8713
 8525TIP3   OH247065   2.473   4.715   4.607  0.0386 -0.4719 -0.0195
 8525TIP3    H147066   2.508   4.785   4.662 -0.6267 -0.3811  0.3013
 8525TIP3    H247067   2.505   4.634   4.646 -1.5678 -0.4775  1.3538
 8526TIP3   OH247068   4.623   5.293  15.453 -0.5744  0.2092  0.2075
 8526TIP3    H147069   4.659   5.341  15.527  2.5952 -1.4368 -0.2123
 8526TIP3    H247070   4.572   5.223  15.493  0.6731 -0.3444  0.8382
 8527TIP3   OH247071   1.341   4.461   5.064 -0.2753 -0.4354  0.0004
 8527TIP3    H147072   1.422   4.412   5.046 -1.1431 -2.0215  0.2837
 8527TIP3    H247073   1.308   4.485   4.977 -0.2945 -1.1139 -0.1838
 8528TIP3   OH247074   6.473   2.942   1.958 -0.1698 -0.0264 -0.1076
 8528TIP3    H147075   6.488   3.033   1.934  0.1425 -0.7109 -2.6595
 8528TIP3    H247076   6.381   2.926   1.936 -0.0301 -0.5011 -0.3760
 8529TIP3   OH247077   5.252   4.323  12.391 -0.2698  0.5073  0.3180
 8529TIP3    H147078   5.218   4.274  12.316  1.7412 -2.2065  1.1201
 8529TIP3    H247079   5.176   4.335  12.448 -1.3649  0.7407 -1.1549
 8530TIP3   OH247080   5.056   1.698   6.020  0.0151 -0.3496 -0.2588
 8530TIP3    H147081   5.100   1.730   6.098  2.7457 -0.4263 -1.6947
 8530TIP3    H247082   5.087   1.756   5.950  0.1476 -2.2363 -1.8088
 8531TIP3   OH247083   1.716   4.864  16.305 -0.5442  0.2889 -0.3807
 8531TIP3    H147084   1.753   4.836  16.221 -0.3279 -1.6340  0.3189
 8531TIP3    H247085   1.789   4.904  16.352 -0.4969  0.7422 -0.8483
 8532TIP3   OH247086   4.017   0.981   4.095  0.6742 -0.2210 -0.1578
 8532TIP3    H147087   4.088   0.925   4.125  0.2012 -0.8514 -0.1969
 8532TIP3    H247088   3.944   0.961   4.153  1.2531  2.2411  1.4921
 8533TIP3   OH247089   2.854   0.171   0.512  0.3548 -0.5702 -0.0735
 8533TIP3    H147090   2.889   0.137   0.430  0.7235  0.0512 -0.1764
 8533TIP3    H247091   2.931   0.205   0.558 -0.1121  0.8820 -0.3367
 8534TIP3   OH247092   5.805   1.868  14.373  0.1376  0.3701 -0.2293
 8534TIP3    H147093   5.858   1.937  14.413  4.1146 -0.5550 -3.5476
 8534TIP3    H247094   5.795   1.895  14.282  0.7943 -2.8737 -1.3193
 8535TIP3   OH247095   0.541   1.827   5.877 -0.5402 -0.4112  0.3900
 8535TIP3    H147096   0.559   1.833   5.971 -2.5803  0.9724  0.7203
 8535TIP3    H247097   0.493   1.907   5.856 -2.5324 -1.9829 -1.2674
 8536TIP3   OH247098   6.270   6.733  14.012 -0.1822 -0.9820 -0.0799
 8536TIP3    H147099   6.327   6.697  13.944 -1.2884 -0.9349 -1.0474
 8536TIP3    H247100   6.212   6.661  14.036 -0.2557 -0.7933  0.3092
 8537TIP3   OH247101   5.789   0.494   4.658 -0.3696 -0.0301  0.3326
 8537TIP3    H147102   5.752   0.516   4.743  1.2263 -1.6424  1.4840
 8537TIP3    H247103   5.824   0.406   4.670  1.6776  0.5181 -1.4113
 8538TIP3   OH247104   2.478   5.156  17.256 -0.0236 -0.2809  0.2928
 8538TIP3    H147105   2.492   5.064  17.237  1.2138 -0.1558  0.5752
 8538TIP3    H247106   2.503   5.202  17.176 -0.8193 -0.1907  0.0829
 8539TIP3   OH247107   3.622   3.660   0.828 -0.0783  0.5535 -0.0889
 8539TIP3    H147108   3.629   3.612   0.911 -0.1460  1.7284  0.6112
 8539TIP3    H247109   3.710   3.654   0.790  0.4868  1.6609  1.0123
 8540TIP3   OH247110   3.238   6.269   0.238  0.3308  0.3345  0.1607
 8540TIP3    H147111   3.263   6.356   0.209  0.4687  0.8836  1.8328
 8540TIP3    H247112   3.163   6.284   0.297 -0.3823 -0.7768 -0.4393
 8541TIP3   OH247113   3.240   5.528  17.083  0.0113  0.6607  0.2176
 8541TIP3    H147114   3.311   5.512  17.021  0.2720  1.8101  0.2223
 8541TIP3    H247115   3.236   5.623  17.092 -2.0988  0.6794 -0.4753
 8542TIP3   OH247116   1.535   2.463  13.387 -0.4002  0.1173 -0.2085
 8542TIP3    H147117   1.570   2.388  13.434 -0.9886  0.5449  0.9348
 8542TIP3    H247118   1.608   2.494  13.332  0.6945  0.3645  1.3526
 8543TIP3   OH247119   0.961   0.338   5.659 -0.1243 -0.1046  0.1496
 8543TIP3    H147120   1.033   0.373   5.606 -0.8675 -0.0256 -0.8352
 8543TIP3    H247121   0.882   0.375   5.619 -0.7202 -0.3015  1.1284
 8544TIP3   OH247122   2.669   5.416   2.480  0.0211 -0.3789  0.1475
 8544TIP3    H147123   2.693   5.357   2.552  1.3082  0.3898  0.3691
 8544TIP3    H247124   2.747   5.419   2.425  0.0417  1.2753  0.2501
 8545TIP3   OH247125   0.577   6.541   3.993 -0.0681 -1.0832 -0.1468
 8545TIP3    H147126   0.638   6.490   4.047  1.8201 -0.1209 -1.3385
 8545TIP3    H247127   0.604   6.523   3.903 -1.8936 -1.0372 -0.7342
 8546TIP3   OH247128   4.338   0.386   2.091  0.3627 -0.1586 -0.3534
 8546TIP3    H147129   4.258   0.414   2.046 -0.4015  0.0493  1.1032
 8546TIP3    H247130   4.384   0.467   2.111 -0.3861 -0.1020  1.1974
 8547TIP3   OH247131   6.366   1.942   0.725 -0.5216  0.8176 -0.3853
 8547TIP3    H147132   6.271   1.933   0.719 -0.3927 -0.8818  0.1191
 8547TIP3    H247133   6.383   2.030   0.691 -2.5524  2.3134  2.2127
 8548TIP3   OH247134   5.228   0.226   1.333  0.2133  0.4484 -0.1761
 8548TIP3    H147135   5.209   0.312   1.370 -0.5133 -0.4231  1.5064
 8548TIP3    H247136   5.258   0.174   1.408  1.9248 -0.3964 -1.4089
 8549TIP3   OH247137   1.805   4.428   3.589 -0.2991 -0.4878 -0.3761
 8549TIP3    H147138   1.847   4.513   3.574  0.2021 -0.7650 -0.5556
 8549TIP3    H247139   1.876   4.364   3.579 -0.5978 -0.9004  0.1486
 8550TIP3   OH247140   1.449   2.986   3.505  0.6803  0.4502  0.3921
 8550TIP3    H147141   1.450   3.071   3.461  0.4463  1.1698  1.7465
 8550TIP3    H247142   1.514   2.934   3.459  0.8520  1.3851 -0.4268
 8551TIP3   OH247143   2.139   2.181  14.875 -0.5299  0.6793  0.7899
 8551TIP3    H147144   2.225   2.145  14.852 -0.5375  0.6847  0.7530
 8551TIP3    H247145   2.147   2.275  14.863 -1.2762  0.4559 -1.6555
 8552TIP3   OH247146   1.206   2.634   2.859  0.1988 -0.5374  0.1997
 8552TIP3    H147147   1.292   2.620   2.820  1.6864  0.8020  2.8716
 8552TIP3    H247148   1.171   2.710   2.813  2.0585  1.2160  1.5800
 8553TIP3   OH247149   5.246   2.752  13.639  0.2889 -0.3540  0.0897
 8553TIP3    H147150   5.247   2.841  13.605  0.1242 -0.6591 -0.7231
 8553TIP3    H247151   5.280   2.760  13.728  2.2890  0.2159 -0.7184
 8554TIP3   OH247152   1.582   3.825   6.657 -0.0766 -0.4195  0.3506
 8554TIP3    H147153   1.659   3.774   6.632  0.5565 -0.2143  1.8312
 8554TIP3    H247154   1.617   3.896   6.711 -1.1031  0.7730 -0.5216
 8555TIP3   OH247155   1.768   3.207   4.339 -0.2037  0.0802  0.0788
 8555TIP3    H147156   1.698   3.264   4.371  0.0522  0.0414  0.7038
 8555TIP3    H247157   1.761   3.214   4.243 -1.7168 -0.7178  0.1149
 8556TIP3   OH247158   0.323   5.750  14.879 -0.6274  0.2693  0.7248
 8556TIP3    H147159   0.346   5.699  14.957 -2.6330 -3.6042 -1.0602
 8556TIP3    H247160   0.388   5.725  14.813 -0.4040  1.6437  0.4089
 8557TIP3   OH247161   6.094   1.296  11.314 -0.0514 -0.6828  0.1492
 8557TIP3    H147162   6.178   1.297  11.268  0.0821 -1.1088  0.3785
 8557TIP3    H247163   6.029   1.287  11.244  0.0333  0.6370 -0.0998
 8558TIP3   OH247164   4.342   4.900   5.097  0.5237 -0.3333  0.1935
 8558TIP3    H147165   4.354   4.936   5.010 -1.1710  0.2251  0.1734
 8558TIP3    H247166   4.423   4.852   5.115  2.1600  2.0837 -0.4506
 8559TIP3   OH247167   2.714   4.795  14.385 -0.3053 -0.1739 -0.5013
 8559TIP3    H147168   2.758   4.853  14.323 -0.7523  2.7423  1.8070
 8559TIP3    H247169   2.655   4.743  14.331  2.3567 -0.6743 -3.0185
 8560TIP3   OH247170   1.755   6.498  17.162  0.3563 -0.3823  0.1807
 8560TIP3    H147171   1.743   6.411  17.200 -0.9376 -0.8847 -1.3043
 8560TIP3    H247172   1.670   6.541  17.174  0.8003  0.4664  0.3525
 8561TIP3   OH247173   4.383   0.706   1.251 -0.4178 -0.0506  0.3780
 8561TIP3    H147174   4.358   0.718   1.343 -2.3981 -0.6780 -0.0463
 8561TIP3    H247175   4.447   0.636   1.252  2.1226  2.2098  1.6113
 8562TIP3   OH247176   2.775   0.639   4.017  0.1460 -0.7482  0.0088
 8562TIP3    H147177   2.681   0.625   4.009 -0.1259  0.5464  0.8468
 8562TIP3    H247178   2.790   0.651   4.110  1.2629 -1.7189 -0.0383
 8563TIP3   OH247179   3.658   2.621  12.955 -0.0723 -0.3218 -0.5132
 8563TIP3    H147180   3.622   2.536  12.931  0.4756 -0.6702 -0.1329
 8563TIP3    H247181   3.741   2.600  12.998 -0.4600  0.3453  0.5771
 8564TIP3   OH247182   1.324   4.733   4.558 -0.1424  0.5334 -0.1696
 8564TIP3    H147183   1.414   4.706   4.569 -0.4722 -0.7929 -0.6095
 8564TIP3    H247184   1.294   4.686   4.480 -2.0396 -1.2027  1.5504
 8565TIP3   OH247185   0.079   1.276  12.361 -0.0571 -0.3922  0.5334
 8565TIP3    H147186   0.077   1.280  12.456  0.1360 -1.3334  0.5785
 8565TIP3    H247187   0.094   1.367  12.334 -0.6016 -0.0376  1.3765
 8566TIP3   OH247188   4.015   0.117   3.279  0.0161  0.6165 -0.0825
 8566TIP3    H147189   4.092   0.170   3.256 -1.2242  2.3073 -0.3915
 8566TIP3    H247190   3.995   0.068   3.199  0.6053  0.3794 -0.0865
 8567TIP3   OH247191   1.681   5.742   4.370 -0.1851  0.0419 -0.4436
 8567TIP3    H147192   1.719   5.773   4.287  0.7747  0.5462  0.1648
 8567TIP3    H247193   1.670   5.648   4.358  1.2631 -0.1110 -0.6477
 8568TIP3   OH247194   6.817   6.097   3.198 -0.6036 -0.1254  0.1540
 8568TIP3    H147195   6.908   6.094   3.228 -1.0081 -0.9600  1.3572
 8568TIP3    H247196   6.784   6.182   3.228 -0.0808  0.3990 -0.7378
 8569TIP3   OH247197   5.573   2.907   6.065  0.5212 -0.0527 -0.1354
 8569TIP3    H147198   5.606   2.985   6.109 -1.6367 -0.6810  2.7367
 8569TIP3    H247199   5.489   2.933   6.028  0.5515 -0.5629 -0.5751
 8570TIP3   OH247200   5.911   6.040  16.153  0.0712  0.2391 -0.2774
 8570TIP3    H147201   5.853   6.014  16.224 -1.1892 -2.4906 -2.1684
 8570TIP3    H247202   5.942   5.957  16.116 -1.4691  1.4322 -4.5816
 8571TIP3   OH247203   2.976   4.374   2.421  0.5716 -0.0978  0.6505
 8571TIP3    H147204   2.936   4.303   2.471  1.7041 -0.8437  0.5215
 8571TIP3    H247205   2.936   4.367   2.334 -0.2862  0.2551  1.0095
 8572TIP3   OH247206   6.478   3.791   3.223 -0.4605 -0.0291  0.1624
 8572TIP3    H147207   6.450   3.854   3.157  0.8366 -0.9234 -1.2594
 8572TIP3    H247208   6.399   3.742   3.244 -0.9525  0.4724 -0.4872
 8573TIP3   OH247209   5.093   0.628   1.201  0.6934 -0.1608  0.0374
 8573TIP3    H147210   5.063   0.712   1.165 -1.2468 -1.2114 -0.8562
 8573TIP3    H247211   5.138   0.586   1.128 -0.4891 -0.9406 -0.2563
 8574TIP3   OH247212   3.172   2.773   3.079 -0.6080  0.0271  0.4328
 8574TIP3    H147213   3.105   2.828   3.120 -0.9917  0.7909 -1.1736
 8574TIP3    H247214   3.243   2.833   3.057  0.2254 -0.6273  1.2851
 8575TIP3   OH247215   0.751   0.328  13.739 -0.1591  0.0158  0.3057
 8575TIP3    H147216   0.672   0.309  13.688  0.4296 -0.4751 -0.4438
 8575TIP3    H247217   0.820   0.279  13.694  0.6780  0.9225  0.5951
 8576TIP3   OH247218   4.476   4.063   5.346  0.0289  0.3572 -0.0212
 8576TIP3    H147219   4.474   4.073   5.251  0.4492  1.3388  0.0689
 8576TIP3    H247220   4.383   4.065   5.372 -0.0739  0.4066 -0.3820
 8577TIP3   OH247221   0.969   3.724   0.262 -0.3139  0.1572 -0.1401
 8577TIP3    H147222   0.900   3.671   0.223  0.9908 -0.6880 -1.3797
 8577TIP3    H247223   1.042   3.663   0.273  0.0868  0.9329  1.5592
 8578TIP3   OH247224   4.481   0.579   4.398  0.1861  0.3048 -0.4922
 8578TIP3    H147225   4.535   0.601   4.473  0.8578 -1.3623 -0.4593
 8578TIP3    H247226   4.504   0.645   4.332  0.3465  1.1563  0.4059
 8579TIP3   OH247227   5.363   3.455   2.238 -0.5286 -0.2050  0.0044
 8579TIP3    H147228   5.327   3.376   2.278  0.5044  0.3987  2.1583
 8579TIP3    H247229   5.308   3.526   2.271 -0.6537  0.1530 -0.9313
 8580TIP3   OH247230   1.984   5.903   2.426  0.0869  0.0370 -0.0078
 8580TIP3    H147231   1.967   5.849   2.503  2.1051  2.5400  2.2859
 8580TIP3    H247232   1.931   5.982   2.439  0.9480  0.7689 -0.8571
 8581TIP3   OH247233   2.457   5.422  12.038  0.1112  0.2272 -0.0671
 8581TIP3    H147234   2.446   5.515  12.056  1.7105 -0.0141  2.5268
 8581TIP3    H247235   2.544   5.415  11.999 -1.1716  0.1121 -2.9905
 8582TIP3   OH247236   0.098   4.958   4.278 -0.1222  0.5720 -0.3935
 8582TIP3    H147237   0.187   4.931   4.254 -0.3581 -0.7459  0.1328
 8582TIP3    H247238   0.102   4.974   4.372 -0.7423 -0.8128 -0.1197
 8583TIP3   OH247239   3.798   3.079  12.437  0.0395  0.6893  0.5707
 8583TIP3    H147240   3.758   2.997  12.465 -1.1238  1.0271 -0.0686
 8583TIP3    H247241   3.887   3.077  12.473  0.1702 -1.0520  0.1799
 8584TIP3   OH247242   6.113   5.548   5.222  0.1166 -0.1473 -0.0763
 8584TIP3    H147243   6.034   5.502   5.195  0.1710  0.1156 -0.6902
 8584TIP3    H247244   6.108   5.632   5.178  0.1239  0.3568  0.8796
 8585TIP3   OH247245   3.546   6.001  15.069 -0.5343  0.0188 -0.8740
 8585TIP3    H147246   3.485   5.987  14.996  0.2554  3.3513 -2.2576
 8585TIP3    H247247   3.528   6.090  15.098  1.1128 -0.2874  1.2191
 8586TIP3   OH247248   3.806   3.190  13.555  0.2427 -0.4223 -0.1597
 8586TIP3    H147249   3.793   3.107  13.602  0.7746 -0.3391  0.1332
 8586TIP3    H247250   3.796   3.166  13.462  1.7936 -1.0933 -0.1670
 8587TIP3   OH247251   6.133   6.587  11.212 -0.4567  0.0815  0.3692
 8587TIP3    H147252   6.153   6.663  11.156 -0.1004 -0.4493 -0.2280
 8587TIP3    H247253   6.189   6.517  11.178 -4.1904 -1.8530 -2.1850
 8588TIP3   OH247254   5.470   1.924   4.177 -0.5106 -0.2539  0.7482
 8588TIP3    H147255   5.383   1.951   4.148 -0.6956 -0.7674  0.8165
 8588TIP3    H247256   5.465   1.925   4.272  0.1220  1.5189  0.7843
 8589TIP3   OH247257   2.230   5.637   0.453  0.0281  0.5155  0.1545
 8589TIP3    H147258   2.135   5.648   0.459  0.1176  1.2149  0.3541
 8589TIP3    H247259   2.264   5.727   0.447  0.6323  0.2410 -0.5359
 8590TIP3   OH247260   6.813   0.356  15.986 -0.0729  0.1204 -0.3264
 8590TIP3    H147261   6.841   0.354  16.077 -1.4237  0.9984  0.1252
 8590TIP3    H247262   6.884   0.401  15.940  0.5522 -0.2071  0.3119
 8591TIP3   OH247263   6.454   4.202  12.863  0.1483  0.0065 -0.1061
 8591TIP3    H147264   6.451   4.296  12.880  0.8726 -0.1297  0.8304
 8591TIP3    H247265   6.528   4.189  12.805  0.6915 -0.1042  0.6057
 8592TIP3   OH247266   5.308   5.497   6.116  0.0384 -0.3061 -0.4529
 8592TIP3    H147267   5.238   5.562   6.115 -0.0333 -0.3400  0.9107
 8592TIP3    H247268   5.300   5.455   6.202  1.3826 -0.6930 -0.5054
 8593TIP3   OH247269   6.066   3.308  13.813  0.2522 -0.4150 -0.3464
 8593TIP3    H147270   6.106   3.302  13.900 -0.0414 -1.8134 -0.2965
 8593TIP3    H247271   6.138   3.290  13.752  0.2251 -0.4711 -0.3616
 8594TIP3   OH247272   0.152   1.122  14.871 -0.1425 -0.3269  0.1463
 8594TIP3    H147273   0.110   1.160  14.948 -0.4740 -1.6965  0.6461
 8594TIP3    H247274   0.137   1.028  14.879 -1.7508 -0.3484 -2.5188
 8595TIP3   OH247275   0.391   3.813  14.006  0.1998  0.0365  0.3299
 8595TIP3    H147276   0.415   3.901  14.033  0.1651  0.2949 -0.4534
 8595TIP3    H247277   0.323   3.786  14.068  2.4470 -0.6949  2.5459
 8596TIP3   OH247278   2.822   4.038   3.819  0.1410  0.6297  0.1078
 8596TIP3    H147279   2.836   3.960   3.872 -0.0306  0.0318 -0.7188
 8596TIP3    H247280   2.729   4.056   3.827  0.4719  1.7059  1.6115
 8597TIP3   OH247281   2.917   6.197   1.628 -0.1137  0.2259 -0.0489
 8597TIP3    H147282   2.946   6.112   1.663  1.2232  0.6340 -0.1552
 8597TIP3    H247283   2.980   6.217   1.560 -1.6899  0.2839 -1.5305
 8598TIP3   OH247284   5.599   5.532   0.475  0.4824  0.2194 -0.0409
 8598TIP3    H147285   5.552   5.530   0.558  2.1235 -0.5149  0.9159
 8598TIP3    H247286   5.645   5.447   0.472  1.4287  0.7551 -1.0844
 8599TIP3   OH247287   5.903   3.939   3.177  0.4880  0.6145 -0.3828
 8599TIP3    H147288   5.929   3.972   3.091 -0.2237  0.8489 -0.5144
 8599TIP3    H247289   5.825   3.989   3.199 -1.0403 -1.4420 -0.9167
 8600TIP3   OH247290   1.586   3.456   3.293 -0.1600  0.0838  0.1647
 8600TIP3    H147291   1.547   3.457   3.381  0.5614 -0.2731  0.4868
 8600TIP3    H247292   1.668   3.504   3.302 -0.7730  1.3103 -0.6438
 8601TIP3   OH247293   3.125   4.800  14.166  0.1057  0.3317 -0.0272
 8601TIP3    H147294   3.165   4.724  14.124 -0.4214  0.7046 -1.2445
 8601TIP3    H247295   3.199   4.853  14.196  0.5465  0.5861 -1.4709
 8602TIP3   OH247296   0.456   3.276  14.719 -0.0775  0.6223  0.4522
 8602TIP3    H147297   0.498   3.219  14.654  0.0097  0.0409  1.0184
 8602TIP3    H247298   0.444   3.221  14.796 -0.8059  1.1158  0.7063
 8603TIP3   OH247299   6.416   6.227   2.201  0.2078  0.2756  0.2108
 8603TIP3    H147300   6.341   6.175   2.173  1.4704 -0.9167 -1.0274
 8603TIP3    H247301   6.457   6.256   2.120  1.1170  0.8537  0.8690
 8604TIP3   OH247302   3.432   4.709   5.328 -0.8601 -0.6602  0.3346
 8604TIP3    H147303   3.518   4.743   5.353 -2.2468  1.8380  1.9514
 8604TIP3    H247304   3.434   4.705   5.233  1.0496 -0.7281  0.3568
 8605TIP3   OH247305   6.300   3.317  13.662  0.9442  0.3021  0.0040
 8605TIP3    H147306   6.271   3.399  13.621 -2.6223 -0.7893  0.1765
 8605TIP3    H247307   6.297   3.253  13.591  1.4321 -0.1633  0.4039
 8606TIP3   OH247308   3.192   5.147  12.874 -0.2245  0.1726  0.4366
 8606TIP3    H147309   3.223   5.095  12.948 -1.7194  1.3982  1.9372
 8606TIP3    H247310   3.265   5.204  12.852 -0.7289  1.8099  2.8302
 8607TIP3   OH247311   5.242   0.769  16.400 -0.4552 -0.1709  0.5005
 8607TIP3    H147312   5.181   0.767  16.326  0.6753  0.2215 -0.4584
 8607TIP3    H247313   5.222   0.690  16.450 -1.8996  0.0738  0.3255
 8608TIP3   OH247314   5.947   1.478  12.451 -0.0971  0.6291 -0.2322
 8608TIP3    H147315   6.038   1.499  12.473 -0.2983  1.7123 -0.4053
 8608TIP3    H247316   5.938   1.503  12.359 -1.3542  3.2831  0.5615
 8609TIP3   OH247317   1.064   0.900  11.745  0.3610  0.4668  0.4739
 8609TIP3    H147318   0.985   0.858  11.780 -0.2776 -0.6562 -2.1719
 8609TIP3    H247319   1.127   0.829  11.738  0.5375  0.7066 -0.4217
 8610TIP3   OH247320   1.110   1.107  11.575 -0.5941  0.2452 -0.2927
 8610TIP3    H147321   1.114   1.165  11.651  0.1781  0.9238 -0.8393
 8610TIP3    H247322   1.112   1.019  11.611 -1.1692  0.5562  0.5167
 8611TIP3   OH247323   3.106   2.821  17.171 -0.2030  1.0677  0.3840
 8611TIP3    H147324   3.146   2.865  17.096 -1.1233  2.5917  0.7460
 8611TIP3    H247325   3.121   2.728  17.156  1.3681  1.4700 -0.6714
 8612TIP3   OH247326   1.558   3.181   2.508  0.1412  0.5020 -0.0147
 8612TIP3    H147327   1.614   3.104   2.500  2.8895  2.3829  0.7091
 8612TIP3    H247328   1.515   3.170   2.593  0.9110  0.0228  0.3199
 8613TIP3   OH247329   2.350   2.494  11.969  0.0368  0.3647 -0.1607
 8613TIP3    H147330   2.440   2.462  11.954 -0.8582 -2.1983 -0.3849
 8613TIP3    H247331   2.332   2.469  12.060 -0.6979  0.1861 -0.3538
 8614TIP3   OH247332   2.274   3.414  13.841 -0.2190  0.3479  0.2684
 8614TIP3    H147333   2.292   3.322  13.861  2.9650  0.4595 -1.7119
 8614TIP3    H247334   2.229   3.412  13.756 -0.4070  0.5804  0.3629
 8615TIP3   OH247335   0.683   6.131   2.937  0.3887 -0.2775 -0.1608
 8615TIP3    H147336   0.659   6.198   3.002 -0.3603 -1.2004  0.5384
 8615TIP3    H247337   0.698   6.180   2.856  0.7764  0.8340  0.5630
 8616TIP3   OH247338   3.006   0.418   2.965  0.3369  0.3102  0.6979
 8616TIP3    H147339   2.983   0.499   2.919 -0.2757 -0.9111 -1.2161
 8616TIP3    H247340   3.100   0.424   2.978  0.1149  1.8843  1.6862
 8617TIP3   OH247341   6.209   2.937   1.940 -0.2268  0.7205  0.0355
 8617TIP3    H147342   6.172   2.915   1.854  1.9973  1.5140 -1.1448
 8617TIP3    H247343   6.167   2.875   2.000 -3.6247  1.7235 -1.1872
 8618TIP3   OH247344   5.531   3.015  13.558  0.0379 -0.2478  0.7328
 8618TIP3    H147345   5.441   3.027  13.528 -0.0366  1.1662  1.4866
 8618TIP3    H247346   5.578   3.091  13.522  0.4410  0.2083  2.1907
 8619TIP3   OH247347   4.047   5.353  10.810  0.6740 -0.6740  0.3576
 8619TIP3    H147348   3.994   5.288  10.856  0.0114 -0.1335  0.3511
 8619TIP3    H247349   3.989   5.389  10.743  1.5263 -1.2184 -0.7053
 8620TIP3   OH247350   2.738   0.151   4.963 -0.1249 -0.4362 -0.1953
 8620TIP3    H147351   2.666   0.096   4.996 -0.6762  0.4793  0.1414
 8620TIP3    H247352   2.725   0.153   4.868 -1.1532  0.5645 -0.0415
 8621TIP3   OH247353   5.645   1.865   1.816 -0.0770 -0.2743  0.5016
 8621TIP3    H147354   5.732   1.842   1.846  0.1155 -0.3495 -0.1088
 8621TIP3    H247355   5.643   1.838   1.724  1.0078  4.3412 -1.0146
 8622TIP3   OH247356   2.423   3.484  11.309 -0.4961  0.4441 -1.1151
 8622TIP3    H147357   2.445   3.444  11.225  0.4203  0.5643 -0.9441
 8622TIP3    H247358   2.496   3.545  11.325 -1.3695  1.4524 -0.9071
 8623TIP3   OH247359   1.027   0.201  11.712 -0.2796 -0.2194  0.2813
 8623TIP3    H147360   1.052   0.164  11.797 -0.9444  0.6727  0.8794
 8623TIP3    H247361   0.961   0.267  11.733  0.2070  0.6486 -0.8492
 8624TIP3   OH247362   1.861   5.552  15.973 -0.1866  0.7503  0.0081
 8624TIP3    H147363   1.860   5.638  16.015  1.4696  0.1478  1.3263
 8624TIP3    H247364   1.839   5.491  16.043 -1.3036  0.0872 -0.9091
 8625TIP3   OH247365   5.742   3.903   0.285 -0.1742 -0.2637 -0.3005
 8625TIP3    H147366   5.784   3.989   0.280 -1.7701  0.6174  0.8490
 8625TIP3    H247367   5.813   3.840   0.275  1.5606  1.1503  2.5622
 8626TIP3   OH247368   2.446   2.414   2.504 -0.3451  0.3238 -0.3673
 8626TIP3    H147369   2.395   2.408   2.423  0.4350 -0.5040 -0.8079
 8626TIP3    H247370   2.535   2.431   2.474 -0.1608  0.6288  0.3515
 8627TIP3   OH247371   4.322   3.618   6.124  0.4991  0.4513 -0.9603
 8627TIP3    H147372   4.310   3.651   6.213 -0.4287  0.7132 -1.1718
 8627TIP3    H247373   4.301   3.525   6.129 -1.4524  0.8410 -1.2628
 8628TIP3   OH247374   3.511   0.312  15.356  0.1395  0.0844  0.5284
 8628TIP3    H147375   3.512   0.312  15.452  0.1592  1.1491  0.5274
 8628TIP3    H247376   3.433   0.261  15.333  0.5046 -0.7463  1.0990
 8629TIP3   OH247377   2.300   6.176  13.258 -0.0262  0.0954  0.5124
 8629TIP3    H147378   2.300   6.118  13.182 -0.1116  1.3340 -0.4435
 8629TIP3    H247379   2.309   6.264  13.221  0.9908  0.6289  2.0017
 8630TIP3   OH247380   2.886   1.814  14.220 -0.6543  0.0885  0.1304
 8630TIP3    H147381   2.943   1.746  14.256 -0.3030 -0.0405 -0.6330
 8630TIP3    H247382   2.803   1.804  14.265 -0.4002 -0.4311  0.4803
 8631TIP3   OH247383   0.952   5.618  15.481 -0.6661  0.3367 -0.3453
 8631TIP3    H147384   1.001   5.607  15.563 -0.3555  3.2356 -0.0717
 8631TIP3    H247385   0.899   5.539  15.474  1.4369 -1.2742  1.1665
 8632TIP3   OH247386   5.191   5.205  11.406  0.2702 -0.6401  0.1228
 8632TIP3    H147387   5.164   5.119  11.438 -0.2233 -0.8880 -0.9393
 8632TIP3    H247388   5.111   5.243  11.369  0.8148 -0.3325 -0.7426
 8633TIP3   OH247389   4.334   0.995   3.261 -0.0195 -0.3766 -0.1998
 8633TIP3    H147390   4.300   0.998   3.172 -2.9723  1.2301  0.9220
 8633TIP3    H247391   4.343   0.901   3.280 -2.1159 -0.7983 -1.1780
 8634TIP3   OH247392   6.759   0.524   5.159 -0.4541 -0.5344 -0.5271
 8634TIP3    H147393   6.726   0.440   5.189  0.2311 -0.7975 -0.5056
 8634TIP3    H247394   6.767   0.515   5.064 -1.0400 -0.2565 -0.6080
 8635TIP3   OH247395   4.040   5.960   2.644  0.4658  0.1623 -0.3607
 8635TIP3    H147396   4.007   5.871   2.658  0.1182  0.3878  0.2751
 8635TIP3    H247397   4.129   5.947   2.612  1.3142 -0.3887  2.0937
 8636TIP3   OH247398   0.667   5.337   4.657 -0.4077 -0.2870 -0.2307
 8636TIP3    H147399   0.696   5.415   4.704 -2.1705  0.8202 -0.9235
 8636TIP3    H247400   0.654   5.271   4.725  0.1148  0.3328  0.4772
 8637TIP3   OH247401   2.167   0.425  16.222 -0.2451 -0.1896 -0.0351
 8637TIP3    H147402   2.188   0.345  16.175  1.0550  0.2289 -0.2014
 8637TIP3    H247403   2.208   0.414  16.308  1.3966  0.9766 -0.6431
 8638TIP3   OH247404   0.464   2.228  12.794 -0.6215 -0.7958 -0.1834
 8638TIP3    H147405   0.378   2.252  12.759 -0.0349  0.3572 -0.8564
 8638TIP3    H247406   0.525   2.246  12.723  0.5000  0.8346  1.1308
 8639TIP3   OH247407   6.486   5.466   4.347  0.0943  0.3300 -0.1332
 8639TIP3    H147408   6.530   5.551   4.337  0.9026 -0.1386 -0.6365
 8639TIP3    H247409   6.546   5.415   4.401 -0.6312  0.2421  0.5996
 8640TIP3   OH247410   4.137   3.933  10.396  0.2778 -0.3469 -0.3581
 8640TIP3    H147411   4.207   3.943  10.333  0.2068  1.6625 -0.1317
 8640TIP3    H247412   4.112   4.022  10.421 -2.7892 -0.9735 -0.9148
 8641TIP3   OH247413   5.222   0.963  11.313  0.0560 -0.0584  0.8417
 8641TIP3    H147414   5.148   1.023  11.312 -0.7808 -1.0983 -0.9989
 8641TIP3    H247415   5.268   0.984  11.394 -0.9935  2.1064  0.9153
 8642TIP3   OH247416   2.472   0.811  15.617  0.1958 -0.6471  0.0981
 8642TIP3    H147417   2.542   0.868  15.647  0.6960 -1.6056  0.7512
 8642TIP3    H247418   2.505   0.723  15.630 -0.9357 -1.1004 -0.0454
 8643TIP3   OH247419   5.676   4.676   2.996  0.3623  0.3268 -0.1823
 8643TIP3    H147420   5.691   4.582   3.013  1.0998  0.3227 -0.8397
 8643TIP3    H247421   5.758   4.718   3.023 -0.4275  0.9452  1.3494
 8644TIP3   OH247422   2.901   5.341   3.522  0.1065 -0.3625  0.1637
 8644TIP3    H147423   2.939   5.262   3.561  0.0923  0.4261  1.7693
 8644TIP3    H247424   2.959   5.412   3.550 -1.1299  0.5095  0.5527
 8645TIP3   OH247425   6.439   2.890   2.843 -0.2600 -0.4259  0.5069
 8645TIP3    H147426   6.375   2.945   2.888  0.5256 -0.0894  1.2305
 8645TIP3    H247427   6.454   2.933   2.759  0.3192  0.4499  1.0521
 8646TIP3   OH247428   5.884   5.122  10.784  0.2468 -0.3778  0.3246
 8646TIP3    H147429   5.858   5.191  10.723  0.1552 -0.2275  0.5345
 8646TIP3    H247430   5.804   5.101  10.832  1.1271  2.1206  2.9983
 8647TIP3   OH247431   4.605   4.515  15.666 -0.2944 -0.4646 -0.5785
 8647TIP3    H147432   4.651   4.539  15.747 -1.1634 -2.1064  0.4139
 8647TIP3    H247433   4.653   4.438  15.634 -0.1642 -0.0229 -1.4593
 8648TIP3   OH247434   0.783   4.424  17.017  0.2295  0.0666 -0.4764
 8648TIP3    H147435   0.785   4.364  17.091 -0.4526  0.9518  0.2678
 8648TIP3    H247436   0.721   4.384  16.955  1.6648 -1.2547 -1.0932
 8649TIP3   OH247437   4.932   4.558   4.978 -1.2121  0.1483  0.2429
 8649TIP3    H147438   4.937   4.543   5.072  1.1061 -0.3764  0.0709
 8649TIP3    H247439   4.925   4.470   4.940  1.0128  0.1204 -0.1943
 8650TIP3   OH247440   0.032   4.482  16.895 -0.1320 -0.2941  0.2069
 8650TIP3    H147441   0.010   4.406  16.842  1.3471 -0.9513  0.5035
 8650TIP3    H247442  -0.031   4.481  16.967 -0.1516 -1.1997  0.1744
 8651TIP3   OH247443   0.581   3.562  12.055 -0.6362 -0.1432 -0.6295
 8651TIP3    H147444   0.647   3.621  12.091 -0.4796 -1.0155  0.5537
 8651TIP3    H247445   0.594   3.565  11.961  0.2711  0.6529 -0.4769
 8652TIP3   OH247446   2.235   0.248  16.858 -0.2642 -0.3114  0.2242
 8652TIP3    H147447   2.232   0.192  16.936  0.6865 -0.4882  0.1371
 8652TIP3    H247448   2.288   0.324  16.886  0.9694 -0.8694 -0.5665
 8653TIP3   OH247449   1.375   5.854   5.140 -0.6163  0.2436  0.2896
 8653TIP3    H147450   1.358   5.916   5.212  0.5477 -0.2018  0.9616
 8653TIP3    H247451   1.305   5.871   5.077 -0.4045  2.1245  0.5414
 8654TIP3   OH247452   5.060   3.500   5.709 -0.2605  0.0413 -0.2289
 8654TIP3    H147453   5.011   3.446   5.770 -0.2736 -0.4199 -0.6484
 8654TIP3    H247454   5.011   3.493   5.626 -0.2290  0.6362 -0.3019
 8655TIP3   OH247455   6.498   3.163  15.442 -0.1482  0.1082 -0.4667
 8655TIP3    H147456   6.458   3.225  15.502  1.1825  1.9164 -1.4042
 8655TIP3    H247457   6.525   3.089  15.497 -1.8173  0.3178  0.6400
 8656TIP3   OH247458   4.494   4.420  14.652 -0.0409  0.5903 -0.0668
 8656TIP3    H147459   4.488   4.507  14.690 -2.5174  1.0686 -1.4317
 8656TIP3    H247460   4.441   4.365  14.709  0.5259  0.2149  0.1041
 8657TIP3   OH247461   5.400   4.050  12.589  0.1415 -0.2773  0.0949
 8657TIP3    H147462   5.415   4.038  12.683 -0.2122 -0.6285  0.1073
 8657TIP3    H247463   5.485   4.031  12.548  0.4776  0.5573  0.3988
 8658TIP3   OH247464   5.983   6.432   3.978  0.7101  0.3084 -0.1575
 8658TIP3    H147465   5.903   6.379   3.979  0.9322 -0.0396 -0.6316
 8658TIP3    H247466   5.995   6.460   4.069  0.2550  0.0526 -0.0203
 8659TIP3   OH247467   4.747   0.270   5.247 -0.1948 -0.2639  0.0392
 8659TIP3    H147468   4.705   0.214   5.181 -0.2106 -0.1974 -0.0074
 8659TIP3    H247469   4.784   0.342   5.196 -0.0429 -0.3122  0.0830
 8660TIP3   OH247470   0.017   3.025  16.107 -0.8555 -0.0608 -0.2521
 8660TIP3    H147471  -0.072   3.048  16.080 -1.0210 -0.3060  0.0702
 8660TIP3    H247472   0.022   2.930  16.092 -0.1705  0.1780 -1.6179
 8661TIP3   OH247473   2.296   1.901   3.934  0.1503 -0.2481 -0.0302
 8661TIP3    H147474   2.352   1.906   4.012  0.9464  1.1370 -0.6678
 8661TIP3    H247475   2.259   1.989   3.925 -1.1821 -0.8146 -0.3316
 8662TIP3   OH247476   0.008   2.058   1.755  0.3945 -0.1613 -0.1516
 8662TIP3    H147477   0.099   2.080   1.775  0.5448 -0.3458 -0.6350
 8662TIP3    H247478   0.007   1.963   1.747 -0.5159 -0.4882  3.2321
 8663TIP3   OH247479   0.624   0.273   3.570  0.0332  0.5642  0.4797
 8663TIP3    H147480   0.644   0.306   3.657  0.6014  1.2748  0.0865
 8663TIP3    H247481   0.646   0.180   3.574 -1.2353  0.2865  1.4854
 8664TIP3   OH247482   5.800   0.659  14.085 -0.0297  0.3018  0.8322
 8664TIP3    H147483   5.738   0.717  14.129 -1.7213 -1.0162  0.2075
 8664TIP3    H247484   5.803   0.581  14.140  0.9515  0.2754  0.7569
 8665TIP3   OH247485   1.277   3.140   2.635  0.4645 -0.1777 -0.0964
 8665TIP3    H147486   1.253   3.105   2.550 -0.1566  1.1185 -0.4761
 8665TIP3    H247487   1.343   3.080   2.669 -0.5116 -1.6429 -0.7498
 8666TIP3   OH247488   3.563   5.183  14.947 -0.2618  1.1653  0.2925
 8666TIP3    H147489   3.547   5.096  14.911 -0.6905  0.0207  3.0748
 8666TIP3    H247490   3.649   5.207  14.914  1.6546 -2.0645  2.5425
 8667TIP3   OH247491   1.203   3.822   4.729 -0.4313  0.2371  0.6485
 8667TIP3    H147492   1.299   3.813   4.726 -0.5928 -1.5541  0.0122
 8667TIP3    H247493   1.187   3.879   4.804  1.1800  1.3515  0.1824
 8668TIP3   OH247494   2.359   2.655   4.384  0.4458 -0.4701  0.1433
 8668TIP3    H147495   2.297   2.702   4.441 -0.5878 -0.8528 -0.6607
 8668TIP3    H247496   2.410   2.725   4.343  0.9492 -0.1713  1.2315
 8669TIP3   OH247497   1.004   0.460  14.481  0.3317  0.2554 -0.5278
 8669TIP3    H147498   0.960   0.445  14.397 -0.0062  1.0751 -0.5079
 8669TIP3    H247499   1.092   0.426  14.468 -0.1427 -0.8967 -0.7485
 8670TIP3   OH247500   1.190   4.126   4.248  0.0952 -0.3138  0.3687
 8670TIP3    H147501   1.216   4.058   4.310  0.6920 -1.2691 -0.8978
 8670TIP3    H247502   1.273   4.160   4.214 -0.2025  0.9487  0.8822
 8671TIP3   OH247503   2.158   6.054   0.010  0.3164  0.1481 -0.2780
 8671TIP3    H147504   2.239   6.004   0.019  0.7056  0.9626  0.8203
 8671TIP3    H247505   2.101   5.997  -0.040  0.8666 -1.2735  0.6717
 8672TIP3   OH247506   4.419   6.153  16.487 -0.5988 -0.4388  0.0808
 8672TIP3    H147507   4.507   6.122  16.466 -0.3902  0.6798 -0.7421
 8672TIP3    H247508   4.422   6.247  16.471 -1.5005 -0.1354  1.5715
 8673TIP3   OH247509   0.484   5.978  15.544 -0.0676  0.2619  0.3842
 8673TIP3    H147510   0.468   6.071  15.558 -2.1739  0.3106 -1.9158
 8673TIP3    H247511   0.568   5.961  15.585  0.0767  3.0530  1.3212
 8674TIP3   OH247512   3.875   5.447   4.247 -0.4942 -0.7593 -0.1310
 8674TIP3    H147513   3.826   5.512   4.196  1.1134  1.1446  0.6870
 8674TIP3    H247514   3.966   5.459   4.219  0.3716  0.0477  2.8700
 8675TIP3   OH247515   5.374   4.930  12.468  0.4075 -0.2969  0.4672
 8675TIP3    H147516   5.307   4.866  12.448 -0.9828  1.1254  0.4532
 8675TIP3    H247517   5.439   4.921  12.399  0.4418 -1.9714  0.7153
 8676TIP3   OH247518   4.690   6.793   3.056 -0.2639 -0.3807  0.0903
 8676TIP3    H147519   4.767   6.779   2.999 -0.2552  1.8018 -0.4942
 8676TIP3    H247520   4.619   6.748   3.011 -0.3873  1.8220 -2.0359
 8677TIP3   OH247521   6.173   4.067  12.008 -1.4612 -0.1909 -0.1038
 8677TIP3    H147522   6.212   4.147  12.044 -1.5984  0.4650 -1.3689
 8677TIP3    H247523   6.083   4.066  12.043 -1.5824  0.4174 -0.3877
 8678TIP3   OH247524   2.596   0.575   6.575 -0.1275  0.6441  0.5433
 8678TIP3    H147525   2.527   0.640   6.566 -1.3388 -0.6341  0.3441
 8678TIP3    H247526   2.603   0.559   6.669 -0.6994  0.1470  0.5002
 8679TIP3   OH247527   3.873   1.214  13.059  0.5478  0.0582 -0.1016
 8679TIP3    H147528   3.914   1.195  12.975  0.5582 -0.5650  0.0396
 8679TIP3    H247529   3.780   1.225  13.039  0.5022 -0.4095 -0.1493
 8680TIP3   OH247530   3.513   6.335   4.409  0.6709  0.2525  0.6071
 8680TIP3    H147531   3.562   6.281   4.347  0.1063  0.3339  0.0870
 8680TIP3    H247532   3.535   6.299   4.495  1.6811  0.3247  0.3742
 8681TIP3   OH247533   2.539   2.410  14.503 -0.5244 -0.0182 -0.0735
 8681TIP3    H147534   2.468   2.369  14.455 -0.6684  1.3919 -1.0976
 8681TIP3    H247535   2.541   2.500  14.471  2.1376 -0.2002 -0.5621
 8682TIP3   OH247536   5.865   5.737   4.338  0.1623 -0.4387  0.1043
 8682TIP3    H147537   5.842   5.828   4.359 -0.9201 -0.7306  0.1646
 8682TIP3    H247538   5.932   5.714   4.402  1.4114  0.7493 -0.7350
 8683TIP3   OH247539   4.345   2.532  15.037 -0.2100  0.4802  0.3430
 8683TIP3    H147540   4.438   2.541  15.061 -0.1938 -0.5658  0.6989
 8683TIP3    H247541   4.315   2.622  15.023  0.9868  0.7937 -0.2711
 8684TIP3   OH247542   2.852   3.819   1.848 -0.0425  0.4963 -0.3406
 8684TIP3    H147543   2.767   3.807   1.889 -0.0022  0.2662 -0.3248
 8684TIP3    H247544   2.832   3.860   1.764 -0.2067  0.0508 -0.5239
 8685TIP3   OH247545   6.770   5.376   4.107  0.1091 -0.6192  0.5881
 8685TIP3    H147546   6.800   5.351   4.194  0.1014  1.4138  1.2085
 8685TIP3    H247547   6.691   5.323   4.092 -0.0987 -0.7137  1.9818
 8686TIP3   OH247548   5.100   1.970   5.613  0.1335 -0.2775  0.1633
 8686TIP3    H147549   5.038   2.022   5.663 -0.1275  1.3665 -1.7983
 8686TIP3    H247550   5.128   2.028   5.542  2.7725 -1.5141  0.1531
 8687TIP3   OH247551   5.232   2.613   2.308  0.3970 -0.0096  0.5669
 8687TIP3    H147552   5.236   2.680   2.239  0.5766  1.7584  2.2392
 8687TIP3    H247553   5.302   2.638   2.369  0.9372 -2.1557  0.8598
 8688TIP3   OH247554   2.974   1.628   1.962 -0.6841 -0.6531  0.3653
 8688TIP3    H147555   2.956   1.703   2.019  0.0831 -0.7278  0.7113
 8688TIP3    H247556   3.031   1.664   1.894  0.3910 -1.1063  1.0136
 8689TIP3   OH247557   0.050   4.817  14.415  0.0673 -0.0688  0.5951
 8689TIP3    H147558   0.117   4.749  14.420  1.2806  1.0725  0.0060
 8689TIP3    H247559   0.040   4.834  14.322 -0.4880  0.3043  0.7221
 8690TIP3   OH247560   5.979   4.811  13.812 -0.3284  0.2743  0.5176
 8690TIP3    H147561   5.978   4.717  13.793  0.0633  0.3016  0.3582
 8690TIP3    H247562   5.902   4.845  13.765  0.0188  0.1681 -0.1382
 8691TIP3   OH247563   3.143   2.374   2.522 -0.4584 -0.6331  0.3261
 8691TIP3    H147564   3.087   2.297   2.508 -1.1365 -0.5295  2.2648
 8691TIP3    H247565   3.201   2.348   2.594  0.2172  0.1839  0.0721
 8692TIP3   OH247566   6.018   5.199  12.864  0.2402 -0.0164 -0.6013
 8692TIP3    H147567   6.050   5.282  12.899  0.8119 -0.5373  0.1371
 8692TIP3    H247568   5.927   5.215  12.842  0.6750  1.1606 -1.6294
 8693TIP3   OH247569   5.563   5.539   6.274 -0.2711  0.0270  0.0165
 8693TIP3    H147570   5.627   5.514   6.340 -1.9140  2.1389  2.5245
 8693TIP3    H247571   5.489   5.481   6.289  0.1299 -0.8584 -1.3499
 8694TIP3   OH247572   2.490   4.628  11.359 -0.1887  0.1169 -0.0180
 8694TIP3    H147573   2.467   4.661  11.272 -2.1354  0.2335  0.5097
 8694TIP3    H247574   2.475   4.534  11.354 -1.6553  0.3006  0.5686
 8695TIP3   OH247575   4.528   2.077   0.146  0.0981  0.0890 -0.0092
 8695TIP3    H147576   4.433   2.088   0.149  0.0687  0.1280 -0.9030
 8695TIP3    H247577   4.558   2.142   0.082  0.8164  0.6522  0.8935
 8696TIP3   OH247578   3.749   5.200  14.050  0.1796  0.3787  0.8473
 8696TIP3    H147579   3.710   5.267  13.993  2.1058  1.8770  1.2300
 8696TIP3    H247580   3.778   5.132  13.990  0.7113  1.1827  0.1847
 8697TIP3   OH247581   6.672   0.839  11.998  0.5525  0.0123  0.3131
 8697TIP3    H147582   6.662   0.785  11.920  0.0345 -0.5891  0.7867
 8697TIP3    H247583   6.754   0.887  11.984  1.7164 -1.8786  0.4649
 8698TIP3   OH247584   6.770   6.493  16.143  0.0042  0.1128 -0.0668
 8698TIP3    H147585   6.725   6.577  16.152 -0.8830 -0.2513 -0.9528
 8698TIP3    H247586   6.721   6.434  16.201 -1.2644 -0.5122 -1.7541
 8699TIP3   OH247587   1.465   6.669  12.922  0.3820  1.2594  0.3472
 8699TIP3    H147588   1.427   6.740  12.974  0.9159  0.3629  2.0156
 8699TIP3    H247589   1.559   6.688  12.921  0.4130  1.0876  0.0074
 8700TIP3   OH247590   1.812   1.770   0.024  0.2941  0.3506  0.5141
 8700TIP3    H147591   1.861   1.708   0.077  1.8752  1.0350 -0.1253
 8700TIP3    H247592   1.768   1.716  -0.042 -1.5117 -0.4797  2.3328
 8701TIP3   OH247593   5.490   1.147  11.912 -0.2463  0.9766 -0.3204
 8701TIP3    H147594   5.525   1.170  11.826  0.6403  0.6646 -0.0412
 8701TIP3    H247595   5.561   1.165  11.973 -0.4372  0.0075  0.2066
 8702TIP3   OH247596   5.955   6.164   5.172 -0.6378  0.0335  0.5430
 8702TIP3    H147597   5.919   6.120   5.249  1.6888 -1.4010  0.8451
 8702TIP3    H247598   6.049   6.166   5.187 -0.2640  0.9107 -1.6916
 8703TIP3   OH247599   5.947   1.701   0.319 -0.0917 -0.2093  0.3857
 8703TIP3    H147600   5.904   1.664   0.242  0.0267 -3.5322  1.8399
 8703TIP3    H247601   6.033   1.728   0.287 -1.4721  2.3020 -1.5062
 8704TIP3   OH247602   3.964   1.354  17.176  0.2437 -0.1197 -0.4482
 8704TIP3    H147603   3.956   1.422  17.109 -1.2834  0.3380  0.1786
 8704TIP3    H247604   4.058   1.346  17.191  0.5140  0.8214 -1.5764
 8705TIP3   OH247605   1.265   3.054   1.323  0.0013  0.9500 -0.0481
 8705TIP3    H147606   1.198   3.027   1.386  0.3199  1.6261  0.5939
 8705TIP3    H247607   1.306   3.130   1.364  1.5981  0.1495 -0.1138
 8706TIP3   OH247608   5.979   0.216  15.526 -0.7288 -0.5585 -0.3195
 8706TIP3    H147609   5.978   0.241  15.434 -0.6235  0.9454  0.0707
 8706TIP3    H247610   6.059   0.256  15.561 -0.9751 -0.7841  0.5160
 8707TIP3   OH247611   1.172   5.273   3.433  0.3811 -0.1558 -0.7674
 8707TIP3    H147612   1.172   5.239   3.344  1.2604 -0.5524 -0.6203
 8707TIP3    H247613   1.117   5.211   3.482  2.0095 -1.4190 -0.4926
 8708TIP3   OH247614   3.362   0.573  12.927 -0.4475 -0.7085  0.1405
 8708TIP3    H147615   3.300   0.631  12.972 -0.2135 -1.1169  1.0106
 8708TIP3    H247616   3.313   0.491  12.916 -0.5046 -0.6079 -0.3563
 8709TIP3   OH247617   1.392   3.188  15.018 -0.4234  0.0761  0.2623
 8709TIP3    H147618   1.445   3.128  15.070  0.4384  1.8668  1.5044
 8709TIP3    H247619   1.383   3.145  14.933  1.3327 -1.1706  0.6920
 8710TIP3   OH247620   1.751   1.669  17.080  0.1103  0.0664 -0.5649
 8710TIP3    H147621   1.784   1.693  16.993 -2.3646  1.4715 -1.1604
 8710TIP3    H247622   1.688   1.599  17.063  1.1872 -1.1489  0.3486
 8711TIP3   OH247623   5.475   0.374   5.104  0.3200  0.4635  0.6781
 8711TIP3    H147624   5.421   0.306   5.144  3.6620 -1.7547  1.6319
 8711TIP3    H247625   5.527   0.410   5.176  1.0866  1.6242 -0.4137
 8712TIP3   OH247626   0.122   4.113  15.116  0.0778  0.6679 -0.3772
 8712TIP3    H147627   0.193   4.163  15.077  1.5201 -0.2493  1.0097
 8712TIP3    H247628   0.145   4.021  15.100 -0.4642  0.3446  0.6246
 8713TIP3   OH247629   5.658   3.040  15.339 -0.3373  0.2693  0.3569
 8713TIP3    H147630   5.625   2.980  15.272 -2.2626  0.8164  0.7685
 8713TIP3    H247631   5.689   2.983  15.410 -1.7368 -0.2733  0.5523
 8714TIP3   OH247632   3.346   3.667  16.327 -0.2184 -0.4991  0.2105
 8714TIP3    H147633   3.375   3.738  16.383 -0.9248  0.9419 -1.1956
 8714TIP3    H247634   3.259   3.643  16.360 -0.5917  0.2836 -0.1743
 8715TIP3   OH247635   5.427   0.762   3.423 -0.2588  1.2973 -0.3071
 8715TIP3    H147636   5.347   0.715   3.444  0.6382  0.1156  0.4805
 8715TIP3    H247637   5.475   0.767   3.505 -0.5546  4.0439 -0.2463
 8716TIP3   OH247638   2.546   6.475  11.881 -0.6782 -0.4744 -0.3112
 8716TIP3    H147639   2.533   6.385  11.912 -0.5817 -0.3147  0.2051
 8716TIP3    H247640   2.637   6.495  11.905 -0.7814 -0.1486 -0.1934
 8717TIP3   OH247641   0.308   1.142  11.903 -0.3617  0.7318 -0.6717
 8717TIP3    H147642   0.289   1.113  11.993  0.2435 -1.4640 -1.2336
 8717TIP3    H247643   0.323   1.236  11.912  2.4992  0.1246  2.0078
 8718TIP3   OH247644   3.892   5.184  12.553  0.2394  0.6051  0.3754
 8718TIP3    H147645   3.916   5.109  12.607  0.4058  0.1650 -0.3056
 8718TIP3    H247646   3.846   5.146  12.478 -0.3006  1.2403  0.3843
 8719TIP3   OH247647   5.476   5.994  12.557 -0.2250 -0.0057 -0.0493
 8719TIP3    H147648   5.499   6.003  12.465 -3.9898 -0.7603 -1.1131
 8719TIP3    H247649   5.472   6.083  12.590 -1.2080  0.4064 -1.2430
 8720TIP3   OH247650   6.062   0.128  15.837  0.3664  0.5570  0.2665
 8720TIP3    H147651   6.086   0.208  15.791  0.8209  0.7800  0.8802
 8720TIP3    H247652   6.026   0.070  15.769  1.4931  0.6896 -0.4464
 8721TIP3   OH247653   1.651   4.065  16.718  0.1498 -0.4007  0.0867
 8721TIP3    H147654   1.740   4.098  16.705 -0.2004  0.7851  0.5646
 8721TIP3    H247655   1.614   4.060  16.630 -0.4392  2.4544  0.0983
 8722TIP3   OH247656   4.104   4.964   0.113 -0.0134  0.6390 -0.1923
 8722TIP3    H147657   4.141   4.984   0.199 -0.0844 -1.1973  0.2957
 8722TIP3    H247658   4.165   4.901   0.075 -0.5920  0.5598 -0.9997
 8723TIP3   OH247659   5.003   2.490   2.385  0.5911 -1.0040  0.0520
 8723TIP3    H147660   5.088   2.530   2.373  0.8751 -0.9536  2.0567
 8723TIP3    H247661   4.940   2.560   2.368  0.9991 -0.5541  0.3970
 8724TIP3   OH247662   2.607   0.219   0.888 -0.6483  0.1258 -0.2427
 8724TIP3    H147663   2.577   0.291   0.944 -2.3664  0.2829 -1.3143
 8724TIP3    H247664   2.678   0.258   0.836 -2.1618  1.3462 -1.4475
 8725TIP3   OH247665   1.438   4.060  10.762 -0.8013 -0.7362  0.2130
 8725TIP3    H147666   1.403   4.145  10.736 -0.2094 -0.4281  0.4224
 8725TIP3    H247667   1.457   4.016  10.679  0.1555 -0.1377  0.1105
 8726TIP3   OH247668   5.450   3.925  16.625  0.2696 -0.0169  0.7862
 8726TIP3    H147669   5.472   3.843  16.582 -0.4556  0.3235 -0.2478
 8726TIP3    H247670   5.478   3.913  16.716 -0.5105 -1.6735  0.8202
 8727TIP3   OH247671   3.039   6.646  15.616 -0.2261 -0.0160  0.1632
 8727TIP3    H147672   2.973   6.663  15.684 -0.6494  1.6236 -0.6223
 8727TIP3    H247673   3.019   6.710  15.548  0.3332 -1.5124 -1.4228
 8728TIP3   OH247674   2.230   4.828   0.246  0.3548 -0.3570 -0.3327
 8728TIP3    H147675   2.264   4.914   0.221 -0.3289  0.6054  1.9302
 8728TIP3    H247676   2.249   4.772   0.170  2.7832  1.2463 -0.9738
 8729TIP3   OH247677   2.213   1.311  14.753  0.2024  0.0181 -0.4612
 8729TIP3    H147678   2.273   1.385  14.741 -0.5157  0.4373 -1.4924
 8729TIP3    H247679   2.136   1.348  14.795 -0.1850 -0.1286 -1.0360
 8730TIP3   OH247680   5.697   3.234   6.459  0.2429  0.6173 -0.4067
 8730TIP3    H147681   5.760   3.212   6.527 -2.4969 -0.7990  1.8003
 8730TIP3    H247682   5.700   3.330   6.453 -0.4386  0.9030  2.7621
 8731TIP3   OH247683   1.437   3.561  11.413  0.2206  0.4515  0.1671
 8731TIP3    H147684   1.435   3.639  11.359 -3.1864  0.4064  0.1363
 8731TIP3    H247685   1.370   3.503  11.376  1.3866 -1.7328  1.3196
 8732TIP3   OH247686   2.019   3.216  13.101  0.1461  0.0409  0.3118
 8732TIP3    H147687   2.023   3.304  13.063 -0.0532  0.0705  0.3554
 8732TIP3    H247688   1.974   3.228  13.184 -1.3418 -0.3338 -0.4172
 8733TIP3   OH247689   4.812   3.121  14.684 -0.6914  0.5381  0.0437
 8733TIP3    H147690   4.752   3.188  14.718 -0.0549  0.5162  1.2367
 8733TIP3    H247691   4.773   3.093  14.601 -1.0544  2.2807 -0.3950
 8734TIP3   OH247692   4.473   3.207  16.991  0.2243  0.0561 -0.2170
 8734TIP3    H147693   4.492   3.161  17.073  1.5707 -0.1184 -0.6128
 8734TIP3    H247694   4.546   3.267  16.980  0.9640 -1.1381 -2.1537
 8735TIP3   OH247695   4.700   1.139   0.979  0.0690  0.2374 -0.3774
 8735TIP3    H147696   4.765   1.209   0.978  0.2107  0.1870  2.2041
 8735TIP3    H247697   4.745   1.065   1.018 -1.0831 -0.2570  0.0250
 8736TIP3   OH247698   0.208   6.700   6.378  0.6111 -0.4801 -0.5883
 8736TIP3    H147699   0.204   6.641   6.453  1.0434 -0.7637 -0.7869
 8736TIP3    H247700   0.200   6.643   6.302 -2.9734  0.0845 -0.7253
 8737TIP3   OH247701   5.955   5.203   3.988  0.2681  0.2868  0.1780
 8737TIP3    H147702   5.996   5.283   3.954 -2.0106  1.7084  0.6952
 8737TIP3    H247703   5.867   5.230   4.013 -0.7176 -2.5363 -0.1385
 8738TIP3   OH247704   5.736   0.550   2.570 -0.2199  0.4895 -0.0886
 8738TIP3    H147705   5.669   0.619   2.570  0.3293  1.0253  0.2389
 8738TIP3    H247706   5.815   0.594   2.538  0.0654 -0.0543 -0.1258
 8739TIP3   OH247707   3.576   3.532   0.106  0.3215  0.3357 -0.1251
 8739TIP3    H147708   3.646   3.597   0.105 -0.7426  1.4893 -2.6754
 8739TIP3    H247709   3.515   3.560   0.038 -1.6668 -1.7167  0.7135
 8740TIP3   OH247710   3.445   4.038   2.289  0.2018 -0.4146  0.2346
 8740TIP3    H147711   3.517   4.069   2.344 -1.1883  1.3800  1.0584
 8740TIP3    H247712   3.376   4.013   2.350 -0.3643 -0.9096 -0.5954
 8741TIP3   OH247713   5.256   4.633  15.743 -0.1415  0.4769 -0.1287
 8741TIP3    H147714   5.288   4.644  15.654  1.7977  0.5696  0.5661
 8741TIP3    H247715   5.253   4.721  15.779  1.7838  0.1676  0.8108
 8742TIP3   OH247716   4.692   4.893  13.832  0.3902  0.6133  0.4071
 8742TIP3    H147717   4.657   4.978  13.859 -0.8610  0.4984 -0.7660
 8742TIP3    H247718   4.762   4.914  13.770  1.5791  0.8299  1.8267
 8743TIP3   OH247719   4.384   4.228   1.858 -0.0897  0.1904 -0.2211
 8743TIP3    H147720   4.291   4.245   1.875 -0.4274 -0.9567 -0.8777
 8743TIP3    H247721   4.385   4.183   1.773  1.1613  1.2209 -0.7778
 8744TIP3   OH247722   3.761   4.612  15.029 -0.2281 -0.3674 -0.2876
 8744TIP3    H147723   3.844   4.652  15.054 -0.4865  0.6823 -1.0752
 8744TIP3    H247724   3.695   4.679  15.048 -0.8321 -0.9715 -0.2138
 8745TIP3   OH247725   0.788   0.432   2.872 -0.5093  0.3517  0.3671
 8745TIP3    H147726   0.879   0.454   2.856 -0.2774 -0.3622  0.6978
 8745TIP3    H247727   0.784   0.410   2.965 -1.0103  0.3395  0.3456
 8746TIP3   OH247728   1.602   6.391   6.383 -0.7914 -0.2525  0.4531
 8746TIP3    H147729   1.561   6.459   6.328  0.2213 -0.5795 -0.7392
 8746TIP3    H247730   1.670   6.438   6.432  2.1246 -0.8983 -2.7696
 8747TIP3   OH247731   0.419   2.534   4.542  0.1366  0.0930  0.4976
 8747TIP3    H147732   0.484   2.587   4.496 -1.0305 -0.0216 -1.3639
 8747TIP3    H247733   0.368   2.596   4.594  0.4110  0.4609  0.3220
 8748TIP3   OH247734   3.222   3.170  11.621  0.2058  0.4211  0.0708
 8748TIP3    H147735   3.152   3.133  11.567  0.0561 -0.8891  1.1270
 8748TIP3    H247736   3.253   3.096  11.673  3.0023  0.7608 -1.0164
 8749TIP3   OH247737   2.862   5.030   3.128  0.2124  0.1538 -0.3084
 8749TIP3    H147738   2.778   5.022   3.084  0.6191 -1.4395 -0.8154
 8749TIP3    H247739   2.914   4.956   3.096  1.4062  0.4498  0.8753
 8750TIP3   OH247740   1.830   1.688  14.534  0.5298  0.0885 -0.1881
 8750TIP3    H147741   1.800   1.690  14.624  0.0622 -1.7755 -0.2810
 8750TIP3    H247742   1.877   1.770  14.522  1.6013 -0.1588  2.1003
 8751TIP3   OH247743   3.830   4.216   4.081 -0.0863 -0.3724 -0.3360
 8751TIP3    H147744   3.811   4.304   4.047 -1.1965 -0.5973 -0.2860
 8751TIP3    H247745   3.815   4.223   4.175  2.3520  0.0725  0.0521
 8752TIP3   OH247746   1.273   1.026  12.478  0.1812 -0.6188 -0.1572
 8752TIP3    H147747   1.344   1.081  12.443  0.5940 -1.1182 -0.1087
 8752TIP3    H247748   1.210   1.089  12.513  0.8483 -0.1829  0.2765
 8753TIP3   OH247749   5.653   3.108   5.631  0.8589 -0.1642  0.2737
 8753TIP3    H147750   5.740   3.072   5.617  1.1989  0.2441  1.2733
 8753TIP3    H247751   5.654   3.139   5.722  0.1972  1.2972 -0.1986
 8754TIP3   OH247752   4.820   4.796   0.441 -0.2853  0.1955 -0.0927
 8754TIP3    H147753   4.780   4.709   0.450  1.5072 -0.7180 -0.7698
 8754TIP3    H247754   4.793   4.843   0.520 -1.0996 -1.0389  0.3811
 8755TIP3   OH247755   5.576   5.359   3.767 -0.3192  0.4232  0.2771
 8755TIP3    H147756   5.527   5.320   3.694  0.7707 -1.4436  0.5175
 8755TIP3    H247757   5.519   5.348   3.842  0.5831 -2.1275  0.6370
 8756TIP3   OH247758   4.380   6.163   4.028 -0.2716  0.5111  0.1311
 8756TIP3    H147759   4.363   6.244   3.980 -1.1154  1.6401  2.2257
 8756TIP3    H247760   4.461   6.181   4.076 -0.5492  0.1939  0.7238
 8757TIP3   OH247761   5.560   5.381   4.869 -0.3029  0.3124 -0.0327
 8757TIP3    H147762   5.543   5.414   4.957 -2.3100  0.3364 -0.4214
 8757TIP3    H247763   5.485   5.410   4.817  1.1199  0.7692 -1.8810
 8758TIP3   OH247764   2.267   0.322   0.047  0.1631 -0.0454  0.1983
 8758TIP3    H147765   2.306   0.242   0.011  1.9572  0.6690  0.4612
 8758TIP3    H247766   2.340   0.384   0.050 -0.9585  1.2592  1.0101
 8759TIP3   OH247767   5.371   3.609  11.738 -0.2822  0.5125  0.4336
 8759TIP3    H147768   5.307   3.621  11.809  0.1805  0.7743  0.8099
 8759TIP3    H247769   5.454   3.636  11.776  0.3035 -1.1515  0.3886
 8760TIP3   OH247770   0.501   4.940  16.869  0.2112  0.2155 -0.0706
 8760TIP3    H147771   0.556   4.897  16.804 -0.6616 -1.1100  0.0584
 8760TIP3    H247772   0.442   4.995  16.819  0.1012 -0.1588 -0.3567
 8761TIP3   OH247773   2.553   5.480  13.406 -0.0194  0.3095  0.3655
 8761TIP3    H147774   2.573   5.459  13.315 -0.4956  2.3087 -0.2334
 8761TIP3    H247775   2.457   5.474  13.411  0.0785 -0.8210  1.0119
 8762TIP3   OH247776   3.887   6.594  16.820 -0.5415 -0.7024  0.1283
 8762TIP3    H147777   3.954   6.605  16.752 -1.8225 -1.0488 -1.1995
 8762TIP3    H247778   3.877   6.500  16.829 -1.4229 -0.6382 -0.2242
 8763TIP3   OH247779   6.265   4.878   4.441 -0.2507  0.2028 -0.4126
 8763TIP3    H147780   6.193   4.936   4.467  0.5229  0.5318  1.0922
 8763TIP3    H247781   6.341   4.914   4.487  0.9475  0.0615 -2.2522
 8764TIP3   OH247782   2.916   1.682   0.907 -0.3003 -0.4274  0.4512
 8764TIP3    H147783   2.852   1.696   0.976 -1.7176 -0.2269 -0.8739
 8764TIP3    H247784   2.880   1.611   0.854  1.0049 -0.9152  0.1889
 8765TIP3   OH247785   6.481   3.075   0.985 -0.4737 -0.3045  0.4058
 8765TIP3    H147786   6.481   3.149   1.045  1.3371  0.5646 -0.6291
 8765TIP3    H247787   6.503   3.113   0.900 -0.4327 -1.8848 -0.3070
 8766TIP3   OH247788   3.750   1.911  15.090  0.7015 -0.2300 -0.0217
 8766TIP3    H147789   3.749   2.002  15.119 -0.0854 -0.2459  0.0272
 8766TIP3    H247790   3.839   1.896  15.060  0.8677  0.5202  0.0836
 8767TIP3   OH247791   4.805   6.192  14.952  0.4090 -0.4933 -0.0602
 8767TIP3    H147792   4.776   6.281  14.935  1.2311 -0.5371 -1.7294
 8767TIP3    H247793   4.793   6.146  14.868  0.8779 -1.7094  0.5217
 8768TIP3   OH247794   4.145   5.429   3.377  0.0996  0.3120 -0.4350
 8768TIP3    H147795   4.226   5.442   3.426 -0.8699 -1.8389  1.8323
 8768TIP3    H247796   4.171   5.381   3.299  0.7554 -2.2577  1.3242
 8769TIP3   OH247797   2.551   5.842  17.085  0.4493 -0.5808 -0.2950
 8769TIP3    H147798   2.531   5.752  17.111 -1.9569 -0.0438 -0.1208
 8769TIP3    H247799   2.517   5.849  16.996  1.1572 -0.0087 -0.5259
 8770TIP3   OH247800   1.395   2.017  11.419  0.4193  0.2713 -0.2365
 8770TIP3    H147801   1.331   1.964  11.467  0.6133  0.3408  0.1029
 8770TIP3    H247802   1.344   2.090  11.384 -0.2490 -1.2229 -2.4555
 8771TIP3   OH247803   6.056   3.197   4.003  0.0521  0.1748  0.0238
 8771TIP3    H147804   6.056   3.255   4.079  0.8056  0.5845 -0.2905
 8771TIP3    H247805   6.059   3.255   3.927 -0.8510 -0.2303 -0.3362
 8772TIP3   OH247806   2.901   1.253   5.601  0.1542 -0.1153  0.5852
 8772TIP3    H147807   2.945   1.290   5.677  1.4248  0.5641 -0.4694
 8772TIP3    H247808   2.949   1.173   5.581  0.3167  0.1268  0.0072
 8773TIP3   OH247809   2.177   3.028  16.516 -0.1368  0.4828  0.3905
 8773TIP3    H147810   2.237   2.967  16.561  1.4881  1.1724 -0.7878
 8773TIP3    H247811   2.221   3.113  16.523 -1.7027  1.2756  0.7636
 8774TIP3   OH247812   6.095   1.511   5.820  0.3068 -0.4095  0.2366
 8774TIP3    H147813   6.183   1.501   5.782 -0.1498  0.1626 -0.9946
 8774TIP3    H247814   6.109   1.567   5.897  1.2063 -1.3974  0.8047
 8775TIP3   OH247815   5.964   3.356   5.626 -0.0871  0.3042 -0.2692
 8775TIP3    H147816   5.935   3.325   5.540  0.7912  0.9753 -0.8070
 8775TIP3    H247817   6.036   3.415   5.608 -0.3309  0.9778  0.8993
 8776TIP3   OH247818   6.171   1.941   5.558 -0.7591  0.4045  0.2816
 8776TIP3    H147819   6.215   2.016   5.598  1.1661  0.1235 -1.2014
 8776TIP3    H247820   6.082   1.943   5.592  0.1075  1.6393  2.5416
 8777TIP3   OH247821   6.264   3.414   3.862 -0.1919  0.1416 -0.1450
 8777TIP3    H147822   6.189   3.384   3.810  0.3778  0.1966 -1.0033
 8777TIP3    H247823   6.263   3.509   3.852 -1.7698  0.4151  2.2635
 8778TIP3   OH247824   2.427   2.688  16.403 -0.1021  0.0403  0.8764
 8778TIP3    H147825   2.420   2.626  16.330 -0.5273 -1.9801  2.5757
 8778TIP3    H247826   2.512   2.669  16.442  1.9280  3.8586 -1.4472
 8779TIP3   OH247827   6.510   5.701   5.614 -0.1764  0.3225 -0.3098
 8779TIP3    H147828   6.438   5.677   5.672 -0.2611 -0.3637 -0.7031
 8779TIP3    H247829   6.588   5.696   5.669 -0.3481  0.4473 -0.0522
 8780TIP3   OH247830   5.323   3.242  14.272  0.0361 -0.3232 -0.7168
 8780TIP3    H147831   5.331   3.175  14.205 -1.9579  1.1284 -2.4958
 8780TIP3    H247832   5.289   3.197  14.349 -2.4275 -1.1427 -2.2690
 8781TIP3   OH247833   3.270   2.092  10.587 -0.3690  0.7478 -0.4859
 8781TIP3    H147834   3.307   2.022  10.640 -1.2632  0.3100 -0.4260
 8781TIP3    H247835   3.178   2.097  10.614 -0.6880  0.9269 -1.5542
 8782TIP3   OH247836   3.574   6.594   1.998  0.2385 -0.0619  0.3263
 8782TIP3    H147837   3.661   6.630   2.011  0.7269 -2.0090  2.5804
 8782TIP3    H247838   3.570   6.575   1.904  1.3410  2.1989 -0.2246
 8783TIP3   OH247839   4.391   4.553   2.601  0.8596 -0.1115  0.1342
 8783TIP3    H147840   4.379   4.642   2.569 -0.4964 -0.1703  0.4402
 8783TIP3    H247841   4.302   4.517   2.605  1.4671 -1.7595 -0.8143
 8784TIP3   OH247842   0.045   1.434   0.235 -0.8833 -0.3313 -0.6685
 8784TIP3    H147843  -0.017   1.464   0.169 -0.5230  0.4512 -0.6659
 8784TIP3    H247844   0.101   1.372   0.188  0.1064  1.0888 -1.4336
 8785TIP3   OH247845   1.890   2.244  11.806  0.3279 -0.5131  0.7927
 8785TIP3    H147846   1.864   2.298  11.880 -2.6034 -1.2813  0.3730
 8785TIP3    H247847   1.947   2.300  11.753  0.8746  0.6630  2.5954
 8786TIP3   OH247848   1.041   0.098   1.464  0.3700 -0.2630  0.0005
 8786TIP3    H147849   1.014   0.186   1.491  0.9903  0.4710 -1.6591
 8786TIP3    H247850   1.096   0.113   1.387 -0.9486 -2.1973 -1.3761
 8787TIP3   OH247851   4.998   1.955  16.394  0.0708  0.1594  0.1675
 8787TIP3    H147852   5.046   2.036  16.377 -0.7505  0.7183  0.4876
 8787TIP3    H247853   4.914   1.984  16.428  0.3203 -0.8588  1.6872
 8788TIP3   OH247854   0.802   2.460  14.385  0.0850 -0.2061  0.6733
 8788TIP3    H147855   0.803   2.449  14.289  1.8520 -1.5987  0.8150
 8788TIP3    H247856   0.760   2.380  14.417 -1.6667  0.8292  1.0281
 8789TIP3   OH247857   2.732   5.076   5.543  0.0703  0.3650 -0.1944
 8789TIP3    H147858   2.720   5.101   5.634  2.3328  0.9425 -0.0271
 8789TIP3    H247859   2.746   5.159   5.496 -0.3959  0.0260 -0.9479
 8790TIP3   OH247860   4.880   0.112  16.441 -0.6255  0.1528 -0.1238
 8790TIP3    H147861   4.809   0.164  16.478 -0.5522  1.4208 -1.7278
 8790TIP3    H247862   4.887   0.036  16.500 -0.9755  1.7491  2.0463
 8791TIP3   OH247863   4.035   1.244   6.701 -0.0993  0.3567  0.2112
 8791TIP3    H147864   4.090   1.169   6.727  0.3874  0.7241  0.2505
 8791TIP3    H247865   3.945   1.212   6.710 -0.0210  0.7966  3.4285
 8792TIP3   OH247866   3.646   2.377  12.814 -0.5358 -0.1883 -0.5135
 8792TIP3    H147867   3.675   2.434  12.742  0.8939  0.1055  0.2835
 8792TIP3    H247868   3.720   2.319  12.830 -0.9790 -0.4761  0.5057
 8793TIP3   OH247869   4.866   1.990   4.201  0.0977 -0.4598 -0.6185
 8793TIP3    H147870   4.917   2.021   4.277 -0.0541  0.4669 -0.8903
 8793TIP3    H247871   4.796   1.937   4.239 -0.9381  1.3221  0.0049
 8794TIP3   OH247872   2.105   4.334  14.958 -0.7445 -0.1686 -0.0050
 8794TIP3    H147873   2.054   4.316  15.037  1.0148 -0.8617  0.9867
 8794TIP3    H247874   2.142   4.421  14.973  0.5310 -0.7817  0.4489
 8795TIP3   OH247875   5.822   4.902   2.453  0.3002  0.0220  0.4124
 8795TIP3    H147876   5.770   4.980   2.433  2.3775  1.3604  0.0246
 8795TIP3    H247877   5.877   4.891   2.375 -0.9250 -2.6561 -0.1071
 8796TIP3   OH247878   1.913   6.623  16.150 -0.6407 -1.0496  0.4800
 8796TIP3    H147879   1.958   6.706  16.165 -0.0587 -1.3556  0.4305
 8796TIP3    H247880   1.837   6.647  16.096 -1.3659 -0.3173  1.8093
 8797TIP3   OH247881   0.906   3.998  16.375 -0.1960  0.2701 -0.0977
 8797TIP3    H147882   0.891   3.956  16.459  0.6379  2.8773  1.4154
 8797TIP3    H247883   0.822   4.039  16.353 -0.5722 -0.8822 -0.8139
 8798TIP3   OH247884   2.438   4.730  13.443 -0.3229  0.1084 -0.8495
 8798TIP3    H147885   2.407   4.714  13.354  0.8102  0.8837 -1.3882
 8798TIP3    H247886   2.469   4.644  13.473  2.5711  0.4881 -2.5011
 8799TIP3   OH247887   2.622   4.761   5.426  0.4498 -0.3177 -0.6859
 8799TIP3    H147888   2.599   4.805   5.345  2.1148  0.6973 -0.6291
 8799TIP3    H247889   2.599   4.823   5.495  1.1176 -0.2542 -0.5123
 8800TIP3   OH247890   5.111   1.095  13.526  0.0196 -0.1388 -0.2629
 8800TIP3    H147891   5.194   1.140  13.510  1.1083 -2.0361 -0.1041
 8800TIP3    H247892   5.047   1.145  13.476  1.2861  1.2690 -0.5083
 8801TIP3   OH247893   1.326   1.576   0.256  0.2947 -0.5365  0.1917
 8801TIP3    H147894   1.350   1.487   0.284 -1.6567 -1.8961 -2.3037
 8801TIP3    H247895   1.383   1.593   0.181  0.1462  0.0189  0.2079
 8802TIP3   OH247896   1.799   5.822   1.055  0.6397 -0.4544  0.1076
 8802TIP3    H147897   1.893   5.819   1.039  0.8255  2.0024  0.4142
 8802TIP3    H247898   1.790   5.883   1.128 -1.0799 -2.0349  1.2501
 8803TIP3   OH247899   2.525   3.707   0.511 -0.5955 -1.0067  0.0149
 8803TIP3    H147900   2.454   3.760   0.474 -2.0932 -2.8858  0.1590
 8803TIP3    H247901   2.586   3.772   0.546 -2.1470  0.6564 -0.2510
 8804TIP3   OH247902   6.100   1.078   3.804 -0.0282 -0.2955 -0.1131
 8804TIP3    H147903   6.029   1.052   3.862 -0.6007  0.9861 -0.2151
 8804TIP3    H247904   6.108   1.173   3.816  1.2432 -0.3249 -0.5685
 8805TIP3   OH247905   6.346   0.410   1.681 -0.8673 -0.0315 -0.2149
 8805TIP3    H147906   6.404   0.418   1.605 -1.5067 -1.7136 -0.9113
 8805TIP3    H247907   6.403   0.423   1.757  0.1893 -0.4059 -0.9384
 8806TIP3   OH247908   4.926   4.464  15.313  0.5128 -0.1253 -0.1601
 8806TIP3    H147909   4.834   4.459  15.285  0.6898 -1.5489 -0.4865
 8806TIP3    H247910   4.976   4.448  15.233  1.0667  1.6126 -0.1862
 8807TIP3   OH247911   3.799   4.833  13.405  0.0723 -0.1480  0.9437
 8807TIP3    H147912   3.886   4.865  13.380  0.8459 -1.3486  2.0488
 8807TIP3    H247913   3.770   4.895  13.472  0.6855 -0.5360  1.5811
 8808TIP3   OH247914   0.653   2.997  17.008 -0.1799  0.1660  0.0160
 8808TIP3    H147915   0.643   3.091  17.024  1.5099  0.6378 -1.4784
 8808TIP3    H247916   0.577   2.973  16.955 -0.5806  0.7025  0.3494
 8809TIP3   OH247917   2.269   5.860   5.176 -0.2286 -0.3881 -0.3026
 8809TIP3    H147918   2.341   5.819   5.224  1.0768 -1.5824 -3.1934
 8809TIP3    H247919   2.199   5.794   5.178  0.1661 -0.8251 -0.8645
 8810TIP3   OH247920   3.178   5.991   3.546 -0.4686  0.1950  0.0296
 8810TIP3    H147921   3.143   5.922   3.602 -0.7487  0.9658  0.8081
 8810TIP3    H247922   3.218   5.944   3.473 -1.3832 -0.7652  0.1287
 8811TIP3   OH247923   2.243   2.965   3.904 -0.3045  0.4884 -0.2530
 8811TIP3    H147924   2.247   3.030   3.834  1.6145 -1.9108 -2.4641
 8811TIP3    H247925   2.165   2.914   3.884  0.3664 -0.3363 -0.7717
 8812TIP3   OH247926   0.882   0.508  13.180  0.3995  0.4142 -0.0090
 8812TIP3    H147927   0.918   0.506  13.092 -2.3609 -1.2786 -1.1925
 8812TIP3    H247928   0.853   0.598  13.192 -1.4601  0.1274 -1.8824
 8813TIP3   OH247929   1.352   0.362   5.971  0.5093  0.2764 -0.2680
 8813TIP3    H147930   1.328   0.271   5.952  0.6940  0.5669 -1.9744
 8813TIP3    H247931   1.323   0.376   6.061  0.5440 -1.4940  0.0421
 8814TIP3   OH247932   4.692   1.079  16.853  0.4535 -0.7405  0.1547
 8814TIP3    H147933   4.640   1.072  16.933 -0.3695 -2.0526 -0.4747
 8814TIP3    H247934   4.637   1.127  16.791  1.2187  0.5651  0.4668
 8815TIP3   OH247935   5.130   2.436  16.349  0.4546 -1.0234 -0.7578
 8815TIP3    H147936   5.206   2.492  16.333  0.8481 -1.8351 -1.7689
 8815TIP3    H247937   5.057   2.497  16.360  1.0389 -0.2836 -0.9101
 8816TIP3   OH247938   1.956   6.024  14.775  0.0995  0.0858  0.1397
 8816TIP3    H147939   1.978   6.113  14.748  0.1071 -0.4914 -1.8174
 8816TIP3    H247940   1.865   6.012  14.749  1.1595 -1.7031 -3.0100
 8817TIP3   OH247941   1.565   1.494   3.877 -0.2388  0.2481  0.4507
 8817TIP3    H147942   1.611   1.572   3.906 -1.1311 -0.0346  2.7087
 8817TIP3    H247943   1.480   1.526   3.846 -1.2303  0.0354  2.8706
 8818TIP3   OH247944   1.411   1.144   6.579 -0.1379 -0.0860 -0.2160
 8818TIP3    H147945   1.402   1.049   6.565 -2.4371  0.1176 -0.4586
 8818TIP3    H247946   1.386   1.183   6.495  0.8132  0.7448 -0.1213
 8819TIP3   OH247947   0.582   1.930   6.650  0.1984  0.0655  0.2049
 8819TIP3    H147948   0.498   1.965   6.620 -0.4962 -1.9520 -0.2885
 8819TIP3    H247949   0.559   1.872   6.723  1.0708 -1.0694 -0.4021
 8820TIP3   OH247950   3.057   4.640  14.568 -0.0572 -0.4136  0.0287
 8820TIP3    H147951   3.131   4.668  14.514 -0.6880  0.3504 -0.4566
 8820TIP3    H247952   3.098   4.603  14.646  0.8418  0.9061  0.2159
 8821TIP3   OH247953   5.073   6.710   4.476 -0.3757  0.9345 -0.3998
 8821TIP3    H147954   5.141   6.774   4.460  0.0983  0.8664  1.2204
 8821TIP3    H247955   5.002   6.760   4.517 -0.1542  0.5036  0.5240
 8822TIP3   OH247956   6.635   0.459  13.959 -0.0886  0.3596 -0.5366
 8822TIP3    H147957   6.588   0.401  13.899  0.4978 -2.5773  1.7280
 8822TIP3    H247958   6.566   0.513  13.998 -0.9345 -0.3702 -0.9986
 8823TIP3   OH247959   2.213   1.409  10.737 -1.0443  0.5007 -0.1481
 8823TIP3    H147960   2.305   1.394  10.758 -1.3479  0.4034  1.1371
 8823TIP3    H247961   2.212   1.421  10.642 -0.0182 -1.8953 -0.5095
 8824TIP3   OH247962   6.144   6.550  17.253 -0.1386 -0.0384 -0.0335
 8824TIP3    H147963   6.066   6.587  17.212  0.3709  1.7691  0.5842
 8824TIP3    H247964   6.211   6.551  17.184 -0.5186 -1.1416 -0.4233
 8825TIP3   OH247965   3.293   6.441   1.200  0.2820 -0.0754  0.3522
 8825TIP3    H147966   3.330   6.476   1.281 -1.2424  2.2811  0.0825
 8825TIP3    H247967   3.199   6.458   1.207  0.3474  1.8987 -2.6870
 8826TIP3   OH247968   6.719   2.569  15.554  0.0964  0.3615 -0.6732
 8826TIP3    H147969   6.651   2.574  15.487 -0.4007  0.3646 -0.1805
 8826TIP3    H247970   6.686   2.624  15.625 -0.0086 -0.6909  0.1131
 8827TIP3   OH247971   5.140   5.007  17.292  0.3213 -0.4766 -0.5341
 8827TIP3    H147972   5.096   4.969  17.216 -1.5781 -0.3149  0.4549
 8827TIP3    H247973   5.104   4.959  17.366 -0.1647  1.4517  0.5108
 8828TIP3   OH247974   1.032   0.002  16.921 -0.1652  0.3495 -0.1000
 8828TIP3    H147975   1.098  -0.021  16.987 -0.8223  1.9754  1.1786
 8828TIP3    H247976   1.083   0.043  16.851  0.3756  0.1263  0.1588
 8829TIP3   OH247977   4.580   4.489  12.098 -0.0052 -0.1201 -0.4349
 8829TIP3    H147978   4.537   4.416  12.143 -0.5451  1.0861  1.0391
 8829TIP3    H247979   4.586   4.460  12.007 -2.7024 -0.8844 -0.4130
 8830TIP3   OH247980   5.893   5.518  12.289 -0.2213  0.3555  0.0519
 8830TIP3    H147981   5.985   5.519  12.314 -0.6489 -2.0891  1.9873
 8830TIP3    H247982   5.891   5.556  12.201  1.9037  5.7213  2.0859
 8831TIP3   OH247983   3.071   6.561  16.115  0.5363 -0.2725 -0.1352
 8831TIP3    H147984   3.067   6.596  16.204  0.5894 -1.0464  0.1756
 8831TIP3    H247985   3.158   6.521  16.108  1.4414  1.8541 -1.3250
 8832TIP3   OH247986   6.722   6.163  16.204 -0.4491  0.9453 -0.2493
 8832TIP3    H147987   6.729   6.068  16.214  1.6492  0.9947 -1.0228
 8832TIP3    H247988   6.697   6.195  16.291 -0.6559 -0.2561  0.1443
 8833TIP3   OH247989   2.597   3.557   3.445  0.0334  0.4368  0.3928
 8833TIP3    H147990   2.630   3.552   3.535  0.0650 -0.2448  0.3410
 8833TIP3    H247991   2.676   3.568   3.391 -0.0155  1.2998  0.4762
 8834TIP3   OH247992   0.630   6.624  15.297 -0.2060 -0.3781 -0.4876
 8834TIP3    H147993   0.656   6.623  15.389 -1.0428 -0.4298 -0.2459
 8834TIP3    H247994   0.694   6.568  15.253 -0.2159 -0.9177  0.1759
 8835TIP3   OH247995   5.612   4.396  15.841  0.0143 -0.0428  0.0184
 8835TIP3    H147996   5.663   4.354  15.772  0.2957 -0.7144  0.6249
 8835TIP3    H247997   5.584   4.323  15.897 -2.0701  0.2561 -0.6139
 8836TIP3   OH247998   2.144   4.550  15.753  0.1599 -0.4761 -0.3020
 8836TIP3    H147999   2.111   4.504  15.675 -1.8609  1.3148 -0.5524
 8836TIP3    H248000   2.071   4.545  15.815  0.8048  0.3435  0.5275
 8837TIP3   OH248001   1.763   2.092   6.130 -0.3666  0.2980 -0.3966
 8837TIP3    H148002   1.853   2.100   6.164  0.0163 -1.7706 -0.8958
 8837TIP3    H248003   1.708   2.124   6.201  0.7378  1.1455  0.0937
 8838TIP3   OH248004   0.999   0.967   1.386 -0.2642  0.5438  0.2451
 8838TIP3    H148005   0.988   0.889   1.331 -0.9082  1.1735 -0.5136
 8838TIP3    H248006   1.093   0.986   1.382 -0.3389  0.7148 -0.8091
 8839TIP3   OH248007   0.555   2.655   2.877 -0.3331  0.2619 -0.7911
 8839TIP3    H148008   0.585   2.574   2.837 -0.3733 -0.7471  1.1437
 8839TIP3    H248009   0.621   2.676   2.943 -2.2988 -0.4609  1.5432
 8840TIP3   OH248010   4.636   1.235  12.656  0.0888 -0.4753  0.6157
 8840TIP3    H148011   4.559   1.210  12.604  0.7197  1.3974 -1.2479
 8840TIP3    H248012   4.667   1.152  12.693  0.0688 -1.9840 -2.5994
 8841TIP3   OH248013   5.711   3.914   0.594  0.4586  0.2536 -0.1804
 8841TIP3    H148014   5.644   3.847   0.603  0.7518  0.1288  1.3626
 8841TIP3    H248015   5.768   3.883   0.524  0.7411 -1.2367  0.6942
 8842TIP3   OH248016   3.756   1.279  14.544 -0.4257  0.1907  0.3672
 8842TIP3    H148017   3.825   1.306  14.604 -0.9673  2.5067 -0.0318
 8842TIP3    H248018   3.693   1.232  14.599  0.3594  0.0247  1.1270
 8843TIP3   OH248019   6.440   6.116   4.285  0.1095  0.1095 -0.0753
 8843TIP3    H148020   6.457   6.044   4.346 -0.5014 -0.7980 -0.9644
 8843TIP3    H248021   6.481   6.192   4.326 -2.7372  0.1591  2.9212
 8844TIP3   OH248022   3.788   1.587  17.118 -0.1421  0.3169 -0.4354
 8844TIP3    H148023   3.785   1.589  17.214 -1.7272  0.2360 -0.4725
 8844TIP3    H248024   3.698   1.567  17.092  1.0169 -3.4620 -1.8353
 8845TIP3   OH248025   3.296   4.888   5.921 -0.6038  0.3936 -0.0972
 8845TIP3    H148026   3.366   4.871   5.984 -1.2872  2.0023  1.1126
 8845TIP3    H248027   3.237   4.814   5.930  0.2480 -0.3091 -0.1834
 8846TIP3   OH248028   5.538   3.160   1.358 -0.2966  0.2966  0.0302
 8846TIP3    H148029   5.579   3.229   1.306  0.3621 -0.0957  0.0174
 8846TIP3    H248030   5.451   3.151   1.321 -0.3396  1.0291 -0.0545
 8847TIP3   OH248031   5.094   6.468  12.540  0.1203  0.9517  0.0214
 8847TIP3    H148032   5.102   6.556  12.503  2.0994  2.0495  2.9410
 8847TIP3    H248033   5.184   6.436  12.547 -0.1806  0.7182  3.6413
 8848TIP3   OH248034   0.533   3.377   4.592  0.0336  0.2323  0.0461
 8848TIP3    H148035   0.545   3.318   4.666 -2.4211  0.5152  0.7133
 8848TIP3    H248036   0.458   3.342   4.544  1.0020  0.5843 -1.7944
 8849TIP3   OH248037   4.492   0.638  16.946 -0.3124 -0.3983  0.2737
 8849TIP3    H148038   4.535   0.591  16.874  0.4650  0.1211  0.3955
 8849TIP3    H248039   4.555   0.705  16.972  0.2494 -1.8606  2.7783
 8850TIP3   OH248040   6.335   2.371   2.494 -0.2183 -0.1942 -0.5767
 8850TIP3    H148041   6.395   2.389   2.566 -0.2003 -0.6113 -0.4878
 8850TIP3    H248042   6.311   2.458   2.461 -3.0095  0.2003  2.2200
 8851TIP3   OH248043   5.676   3.328  11.737 -0.0206  0.5577 -0.2227
 8851TIP3    H148044   5.688   3.394  11.670 -0.8384  1.7063  0.7386
 8851TIP3    H248045   5.701   3.371  11.819  3.6911 -1.6691 -0.0540
 8852TIP3   OH248046   0.936   4.055   5.532 -0.1839  0.3033 -0.5088
 8852TIP3    H148047   0.887   4.078   5.611  0.9444 -1.1485  0.6355
 8852TIP3    H248048   0.869   4.028   5.469 -1.0094  0.3203  0.3503
 8853TIP3   OH248049   4.281   1.169  16.649 -0.2264 -0.3149 -0.0438
 8853TIP3    H148050   4.265   1.190  16.557 -0.1520  0.8003  0.1876
 8853TIP3    H248051   4.201   1.196  16.693  0.2655  0.4178  0.4028
 8854TIP3   OH248052   3.244   0.341   1.282 -0.2408  0.0784  0.7148
 8854TIP3    H148053   3.187   0.418   1.282  1.9458  1.7335  0.4573
 8854TIP3    H248054   3.256   0.320   1.374  0.5554  1.1109  0.8500
 8855TIP3   OH248055   0.715   0.799  11.556 -0.7978  0.4706  0.2915
 8855TIP3    H148056   0.729   0.885  11.516 -1.3190  0.4105 -0.0247
 8855TIP3    H248057   0.634   0.808  11.605 -0.3981  0.4090  0.9727
 8856TIP3   OH248058   0.463   1.784   6.384 -0.6980 -0.0821  0.2761
 8856TIP3    H148059   0.472   1.832   6.466 -2.3199  0.2804  0.2716
 8856TIP3    H248060   0.368   1.772   6.373 -0.3634 -2.7558 -0.0551
 8857TIP3   OH248061   6.526   5.840  12.854  0.3135  0.5254  0.1170
 8857TIP3    H148062   6.485   5.871  12.934  0.0398  0.7396 -0.1028
 8857TIP3    H248063   6.455   5.837  12.790  0.8706  2.1183 -0.6200
 8858TIP3   OH248064   3.292   0.172   2.160 -0.1901 -0.0236  0.1030
 8858TIP3    H148065   3.256   0.179   2.248 -1.4455  2.9362 -0.5793
 8858TIP3    H248066   3.335   0.086   2.158  1.6093  0.6603  4.2322
 8859TIP3   OH248067   4.068   3.318  14.346  0.9032  0.3958 -0.7878
 8859TIP3    H148068   4.011   3.395  14.338 -0.5505 -0.6589 -0.7653
 8859TIP3    H248069   4.012   3.244  14.324  1.5002 -0.9488  1.9335
 8860TIP3   OH248070   1.584   2.435   1.262 -0.4994 -0.2316 -0.1284
 8860TIP3    H148071   1.557   2.526   1.254 -1.1854 -0.4088  0.1254
 8860TIP3    H248072   1.502   2.386   1.272 -0.1404 -0.8781 -0.2989
 8861TIP3   OH248073   6.424   6.557  10.215  0.4051  0.4057  0.2536
 8861TIP3    H148074   6.516   6.532  10.217  0.5877  1.1293  1.6543
 8861TIP3    H248075   6.377   6.477  10.240  0.7839  0.5420  1.4351
 8862TIP3   OH248076   2.288   6.157  17.064 -0.0542 -0.0877  0.2617
 8862TIP3    H148077   2.303   6.078  17.012  3.4577 -0.6467  1.9674
 8862TIP3    H248078   2.267   6.125  17.151  1.0850  0.8414  0.8905
 8863TIP3   OH248079   3.309   4.918   4.125 -0.5340 -0.3039 -0.2371
 8863TIP3    H148080   3.401   4.931   4.103  0.0010 -0.9588  1.5053
 8863TIP3    H248081   3.289   4.830   4.093 -0.3966 -0.3643 -0.1595
 8864TIP3   OH248082   1.493   1.932  14.637 -0.0986 -0.4580  0.4055
 8864TIP3    H148083   1.489   1.840  14.664 -0.8649 -0.8624 -1.0499
 8864TIP3    H248084   1.496   1.929  14.541  0.2929  1.0244  0.3589
 8865TIP3   OH248085   0.554   3.914  11.308 -0.1097 -0.4028  0.1133
 8865TIP3    H148086   0.479   3.923  11.366  0.7013 -1.3737  1.3391
 8865TIP3    H248087   0.532   3.839  11.252  0.0766 -0.8888  0.6852
 8866TIP3   OH248088   2.424   3.983   4.158 -0.0597 -0.7067  0.7344
 8866TIP3    H148089   2.515   4.015   4.159  0.8474 -3.1247  2.3738
 8866TIP3    H248090   2.389   4.014   4.075  1.2304  3.0061  1.4668
 8867TIP3   OH248091   1.413   5.089   1.547  0.2908  0.4245 -0.3611
 8867TIP3    H148092   1.419   5.143   1.626  0.9927 -1.3784  0.8380
 8867TIP3    H248093   1.492   5.035   1.548 -1.2287 -1.8632 -0.6222
 8868TIP3   OH248094   2.717   2.384  10.281  0.1745  0.0680 -0.3402
 8868TIP3    H148095   2.795   2.339  10.248 -0.7117 -1.6901 -0.1012
 8868TIP3    H248096   2.644   2.342  10.236 -0.8440 -0.2415  1.5441
 8869TIP3   OH248097   1.464   6.746   5.686  0.2000 -0.2500  0.0038
 8869TIP3    H148098   1.523   6.705   5.749  2.1020  3.5210  0.8356
 8869TIP3    H248099   1.522   6.781   5.618 -1.3706  0.6531 -0.9005
 8870TIP3   OH248100   0.385   2.424  15.249  0.1275  0.1736  0.5007
 8870TIP3    H148101   0.472   2.412  15.287 -0.1619  1.4126  1.5611
 8870TIP3    H248102   0.325   2.391  15.315 -0.3231  1.4416  0.7407
 8871TIP3   OH248103   6.744   4.875  11.160  0.0454 -0.3948 -0.3104
 8871TIP3    H148104   6.703   4.876  11.246  1.2204  1.6550  0.2381
 8871TIP3    H248105   6.673   4.893  11.099 -0.6514 -1.1286  0.2819
 8872TIP3   OH248106   3.517   1.836  16.599  0.1076 -0.4387 -0.6028
 8872TIP3    H148107   3.555   1.917  16.566 -0.8963  0.0026 -0.6788
 8872TIP3    H248108   3.592   1.778  16.610  1.3489  1.7271  3.0963
 8873TIP3   OH248109   2.189   2.100  15.712  0.3543 -0.2826  0.4571
 8873TIP3    H148110   2.211   2.017  15.670  0.0002  0.1913 -0.6780
 8873TIP3    H248111   2.197   2.165  15.643 -1.0241  0.4064  0.9270
 8874TIP3   OH248112   3.296   4.543  15.692  0.0018 -0.1264  0.2499
 8874TIP3    H148113   3.334   4.621  15.653  0.3543 -0.4538 -0.0535
 8874TIP3    H248114   3.262   4.493  15.618 -0.2933 -0.2269  0.4510
 8875TIP3   OH248115   3.866   3.280   1.471 -0.0471  0.4119  0.1398
 8875TIP3    H148116   3.827   3.197   1.499  0.5765 -0.2857 -0.9939
 8875TIP3    H248117   3.953   3.255   1.438  0.3230  1.5772  0.2223
 8876TIP3   OH248118   3.490   4.758  12.163 -0.1777  0.1022  0.0638
 8876TIP3    H148119   3.419   4.698  12.141  0.5254 -0.3780 -0.9245
 8876TIP3    H248120   3.558   4.739  12.099  0.6570  0.8935  0.7081
 8877TIP3   OH248121   6.215   0.081  11.676 -0.6998  0.0583  0.0395
 8877TIP3    H148122   6.144   0.141  11.702 -0.8234 -1.1168  2.5110
 8877TIP3    H248123   6.271   0.134  11.619 -1.8175  1.9606  0.6582
 8878TIP3   OH248124   0.944   5.647   0.153 -0.0782 -0.0280 -0.2837
 8878TIP3    H148125   1.014   5.625   0.092  1.2065 -2.6504  2.0143
 8878TIP3    H248126   0.988   5.693   0.225 -1.1845  0.9676 -0.2294
 8879TIP3   OH248127   0.882   2.019   4.556 -0.7315  0.1014 -0.0404
 8879TIP3    H148128   0.842   1.940   4.591 -2.9890  0.9232 -0.6657
 8879TIP3    H248129   0.959   2.034   4.612  0.3105 -3.0342 -0.5449
 8880TIP3   OH248130   1.531   5.299  14.013 -0.1676 -0.3055 -0.0154
 8880TIP3    H148131   1.607   5.346  13.978 -0.9092  1.0840  0.2099
 8880TIP3    H248132   1.562   5.262  14.095  0.8080 -1.3401 -0.8308
 8881TIP3   OH248133   0.375   2.142  15.650 -0.0318 -0.1103 -0.8511
 8881TIP3    H148134   0.438   2.174  15.714 -2.2053  2.9150 -0.1142
 8881TIP3    H248135   0.331   2.069  15.694 -0.4875  1.0066  0.5657
 8882TIP3   OH248136   6.350   3.160   1.654 -0.1524 -0.9153  0.8296
 8882TIP3    H148137   6.310   3.074   1.663 -1.4708 -0.2119  1.8398
 8882TIP3    H248138   6.314   3.195   1.572  1.5237 -1.8940 -0.3642
 8883TIP3   OH248139   3.888   2.473  14.626 -0.1563 -0.4850 -0.3638
 8883TIP3    H148140   3.948   2.456  14.554 -0.9692 -0.5852 -1.0284
 8883TIP3    H248141   3.802   2.482  14.584 -0.3935  1.0530  0.4193
 8884TIP3   OH248142   3.562   2.222  16.250  0.5508 -0.6543 -0.4062
 8884TIP3    H148143   3.613   2.148  16.218  0.0287 -1.6588  1.0461
 8884TIP3    H248144   3.483   2.222  16.196  1.3884  0.0064 -1.6625
 8885TIP3   OH248145   4.412   2.424  15.464 -0.1075  0.5044 -0.4627
 8885TIP3    H148146   4.370   2.398  15.546  0.1861 -3.5737 -1.5344
 8885TIP3    H248147   4.500   2.452  15.490 -0.3565  0.2045  0.7196
 8886TIP3   OH248148   0.907   2.982  12.846  0.2203 -0.1312 -0.0739
 8886TIP3    H148149   0.875   3.064  12.882 -1.5989 -1.1514  0.7225
 8886TIP3    H248150   1.002   2.987  12.857  0.0756  1.5534  0.6155
 8887TIP3   OH248151   0.684   3.761   3.257  0.3738  0.0447  0.2439
 8887TIP3    H148152   0.740   3.755   3.180  1.5824  0.1948  1.0856
 8887TIP3    H248153   0.723   3.831   3.309 -1.3195  0.9737  0.2892
 8888TIP3   OH248154   6.219   5.215   6.012  0.4886  1.1400 -0.1973
 8888TIP3    H148155   6.175   5.165   5.943  1.9759  1.3555 -1.3388
 8888TIP3    H248156   6.148   5.258   6.059 -0.7561 -1.1985  0.1576
 8889TIP3   OH248157   3.429   0.950   2.647  0.0360  0.4510 -0.0469
 8889TIP3    H148158   3.480   0.959   2.567 -2.9304  0.6388 -2.0089
 8889TIP3    H248159   3.439   0.859   2.672  0.2898  0.1735 -1.1235
 8890TIP3   OH248160   2.880   3.363  17.079  0.5495 -0.1602 -0.1418
 8890TIP3    H148161   2.939   3.319  17.141  0.4137 -0.4128 -0.1922
 8890TIP3    H248162   2.909   3.332  16.993 -0.0447 -0.7460 -0.1303
 8891TIP3   OH248163   2.867   1.013   3.794 -0.1101 -0.3189  0.3148
 8891TIP3    H148164   2.884   0.975   3.708 -1.1266 -0.5608  0.2108
 8891TIP3    H248165   2.931   0.972   3.852  0.2075 -0.5733 -0.2130
 8892TIP3   OH248166   3.126   6.432   6.235 -0.3785 -0.1593 -0.0086
 8892TIP3    H148167   3.183   6.365   6.273  1.6371  0.2189 -2.2444
 8892TIP3    H248168   3.041   6.416   6.276  0.5116 -2.8600  0.9505
 8893TIP3   OH248169   1.881   1.453  16.148 -0.2487  0.3903 -0.2398
 8893TIP3    H148170   1.946   1.454  16.219  0.8402 -1.7083 -1.1853
 8893TIP3    H248171   1.932   1.468  16.069 -0.6155 -3.1077 -1.1890
 8894TIP3   OH248172   3.347   5.418   1.030  0.1036 -0.3490 -0.7827
 8894TIP3    H148173   3.257   5.391   1.047  0.0229 -0.0900 -0.8041
 8894TIP3    H248174   3.346   5.513   1.040  0.3806 -0.3499 -0.7538
 8895TIP3   OH248175   4.575   4.242  13.871  0.2889  0.7628 -0.2466
 8895TIP3    H148176   4.655   4.189  13.865  1.3229  2.2143  0.2262
 8895TIP3    H248177   4.536   4.237  13.784  0.7760 -0.1393 -0.4260
 8896TIP3   OH248178   3.718   0.160  12.198  0.3762 -0.2119  0.5962
 8896TIP3    H148179   3.786   0.110  12.155 -1.0274 -2.3606  0.8094
 8896TIP3    H248180   3.699   0.111  12.278 -1.9564 -0.0966  0.1490
 8897TIP3   OH248181   1.823   5.824   3.770 -0.3361  0.1347 -0.0928
 8897TIP3    H148182   1.740   5.777   3.759 -0.5257  0.3975  0.1793
 8897TIP3    H248183   1.884   5.759   3.803 -0.8420  0.2805  1.1610
 8898TIP3   OH248184   5.919   1.366   0.026 -0.6486 -0.1832  0.2879
 8898TIP3    H148185   5.994   1.425   0.027  1.7288 -3.0473 -1.2789
 8898TIP3    H248186   5.886   1.369  -0.063 -0.7493 -0.8790  0.2934
 8899TIP3   OH248187   4.887   0.058  13.365 -0.2335 -0.1290 -0.3181
 8899TIP3    H148188   4.938   0.101  13.433 -1.1261  1.4996 -0.6433
 8899TIP3    H248189   4.932   0.079  13.283 -0.7913  0.3746 -0.5020
 8900TIP3   OH248190   6.125   1.220  15.798 -0.4479 -0.2265 -0.4376
 8900TIP3    H148191   6.114   1.308  15.762 -0.0302 -1.0305 -2.6242
 8900TIP3    H248192   6.098   1.161  15.727  2.2737 -1.9208 -0.1656
 8901TIP3   OH248193   5.301   2.831  16.455  0.5041 -0.6689  0.0818
 8901TIP3    H148194   5.355   2.889  16.401  0.5811 -0.0721  0.7891
 8901TIP3    H248195   5.220   2.819  16.405  0.3023  0.4220  0.1354
 8902TIP3   OH248196   1.511   5.078  14.272  0.7664  0.0795 -0.3090
 8902TIP3    H148197   1.524   5.014  14.342 -0.2085 -1.7256 -1.7304
 8902TIP3    H248198   1.445   5.139  14.307 -0.7526 -1.6191 -0.1531
 8903TIP3   OH248199   3.288   3.240  14.671 -0.6378  0.3490  0.0986
 8903TIP3    H148200   3.322   3.291  14.597  0.8616 -1.9196 -0.8464
 8903TIP3    H248201   3.193   3.244  14.662 -0.4907  1.2255 -1.1941
 8904TIP3   OH248202   6.228   5.194   2.936  0.4349  0.2229 -0.2628
 8904TIP3    H148203   6.160   5.177   3.002  0.1793 -0.2915 -0.6492
 8904TIP3    H248204   6.295   5.128   2.954 -0.2482 -0.7969 -1.3434
 8905TIP3   OH248205   6.780   0.423   1.228 -0.3290  0.2710  0.2233
 8905TIP3    H148206   6.707   0.447   1.285 -0.3019  0.7085  0.0758
 8905TIP3    H248207   6.818   0.345   1.269 -1.5786 -0.6444 -0.3123
 8906TIP3   OH248208   0.816   1.363  12.930  0.2930  0.7643 -0.0803
 8906TIP3    H148209   0.741   1.361  12.870 -0.9293  1.2732  1.3917
 8906TIP3    H248210   0.883   1.311  12.886 -0.3445  1.6569 -2.1859
 8907TIP3   OH248211   5.655   1.420  13.613 -0.5065  0.4651 -0.3779
 8907TIP3    H148212   5.731   1.417  13.555 -1.3479  0.7071 -1.5053
 8907TIP3    H248213   5.587   1.371  13.567 -0.4992 -1.3209  1.4493
 8908TIP3   OH248214   5.588   4.403   4.317 -0.2580  0.3188  0.5881
 8908TIP3    H148215   5.632   4.476   4.361 -1.1906  0.9427  0.5062
 8908TIP3    H248216   5.621   4.325   4.362  3.5039  0.4792 -1.6687
 8909TIP3   OH248217   3.091   3.213   0.827 -0.3687  0.1311 -0.1058
 8909TIP3    H148218   3.045   3.188   0.746 -1.0441  1.5437 -0.1832
 8909TIP3    H248219   3.090   3.134   0.880 -0.7687 -0.5471 -1.0977
 8910TIP3   OH248220   6.390   4.728   0.792  0.6185 -0.3509  0.2288
 8910TIP3    H148221   6.436   4.698   0.714  1.0587  1.1400 -0.1020
 8910TIP3    H248222   6.318   4.667   0.802 -1.2711  1.2102 -3.1292
 8911TIP3   OH248223   4.111   1.976  13.006  0.4136  0.5801 -0.3287
 8911TIP3    H148224   4.062   1.898  12.981  0.0669  0.2783  1.2778
 8911TIP3    H248225   4.187   1.943  13.054 -0.5920  1.2958  1.7922
 8912TIP3   OH248226   6.221   2.214   3.534 -0.2707  0.3721 -0.3590
 8912TIP3    H148227   6.129   2.232   3.550  0.0808  2.4002 -0.4517
 8912TIP3    H248228   6.222   2.133   3.485 -1.9550 -0.1823  0.4872
 8913TIP3   OH248229   4.588   4.330  11.876  0.1002 -0.4596  0.1663
 8913TIP3    H148230   4.499   4.301  11.855 -0.3444  0.0598  1.2824
 8913TIP3    H248231   4.613   4.275  11.950  0.9326 -0.9917 -0.5008
 8914TIP3   OH248232   0.251   0.448  12.231 -0.5512  0.2350  0.0445
 8914TIP3    H148233   0.211   0.518  12.180 -1.1361  0.8498  1.3210
 8914TIP3    H248234   0.177   0.402  12.272 -0.3237 -2.5365 -2.5326
 8915TIP3   OH248235   3.160   5.782   3.756 -0.4332 -0.1958 -0.3179
 8915TIP3    H148236   3.117   5.698   3.736  1.0016 -0.3510 -3.0701
 8915TIP3    H248237   3.251   5.768   3.731  0.3561  1.4342  1.5476
 8916TIP3   OH248238   1.168   4.483   1.165 -0.0338 -0.2916 -0.1471
 8916TIP3    H148239   1.147   4.435   1.246 -0.2638  0.6782  0.3664
 8916TIP3    H248240   1.094   4.466   1.107 -0.7170  0.4853  0.4955
 8917TIP3   OH248241   0.493   5.397  12.042  0.0588 -0.4616  0.6986
 8917TIP3    H148242   0.458   5.482  12.015 -0.3935 -1.2580 -1.3695
 8917TIP3    H248243   0.537   5.414  12.125 -1.2566  1.4943  1.0262
 8918TIP3   OH248244   5.403   3.391  13.527 -0.2693  0.0694 -0.3465
 8918TIP3    H148245   5.457   3.386  13.607 -1.7405  1.2692  0.7493
 8918TIP3    H248246   5.460   3.433  13.463  1.2686 -1.7944 -0.2447
 8919TIP3   OH248247   5.858   3.220   3.521  0.2827 -0.3450  0.7241
 8919TIP3    H148248   5.806   3.200   3.443  1.3423 -3.8059  0.8031
 8919TIP3    H248249   5.796   3.257   3.583 -0.8986  0.9432 -1.1750
 8920TIP3   OH248250   6.062   5.205   2.281 -0.2072 -0.1114  0.6232
 8920TIP3    H148251   6.156   5.201   2.296  0.1266 -1.0840 -1.5069
 8920TIP3    H248252   6.027   5.129   2.327  0.0571  0.1880  1.3219
 8921TIP3   OH248253   4.639   6.708   5.716  0.9468  0.8008 -0.3730
 8921TIP3    H148254   4.597   6.629   5.682  1.6966 -0.2692  1.1688
 8921TIP3    H248255   4.577   6.743   5.779  2.4179 -0.9123  2.0857
 8922TIP3   OH248256   4.488   0.275  17.249  0.1787 -0.3487  0.1135
 8922TIP3    H148257   4.511   0.240  17.163 -0.1785 -3.7702  1.3744
 8922TIP3    H248258   4.571   0.281  17.296  0.1381 -0.1944  0.1678
 8923TIP3   OH248259   4.068   1.016  12.235  0.4568  0.3574  0.3176
 8923TIP3    H148260   3.990   1.065  12.262  0.7108  0.4947  0.8038
 8923TIP3    H248261   4.137   1.082  12.229  0.8660  0.0158  1.2377
 8924TIP3   OH248262   0.345   1.576  10.987  0.1335  0.0392  0.2518
 8924TIP3    H148263   0.344   1.613  10.899  0.1172 -0.2196  0.1407
 8924TIP3    H248264   0.348   1.481  10.973  0.3131  0.0027  0.5287
 8925TIP3   OH248265   6.566   4.398   3.398 -0.0139  0.2698 -1.1734
 8925TIP3    H148266   6.545   4.483   3.360  0.1563  0.9585  0.2388
 8925TIP3    H248267   6.489   4.344   3.379 -1.5731  1.7126  0.7728
 8926TIP3   OH248268   0.906   0.420   0.311 -0.2720  0.1131 -0.0471
 8926TIP3    H148269   0.849   0.364   0.259  0.1626  0.4491 -0.8873
 8926TIP3    H248270   0.987   0.424   0.261 -0.0702  0.9546  0.3496
 8927TIP3   OH248271   3.758   2.316  16.613 -0.4784  0.1264 -0.0663
 8927TIP3    H148272   3.716   2.400  16.632 -1.5022 -0.7604  1.7202
 8927TIP3    H248273   3.851   2.331  16.632 -0.6792  0.8055  0.4062
 8928TIP3   OH248274   0.689   1.933  13.233  0.1812 -0.6502 -0.1281
 8928TIP3    H148275   0.709   2.002  13.296  2.6082 -0.4227 -1.0832
 8928TIP3    H248276   0.638   1.977  13.165 -0.1883 -0.2999  0.3730
 8929TIP3   OH248277   6.031   4.463  12.466  0.4546  0.1878 -0.6371
 8929TIP3    H148278   5.987   4.419  12.539 -0.6020  0.2964 -1.2067
 8929TIP3    H248279   5.995   4.422  12.388  0.3654  1.2351 -1.1470
 8930TIP3   OH248280   0.390   0.279  16.130 -0.0696 -0.1696  0.1498
 8930TIP3    H148281   0.403   0.366  16.092 -0.2880 -0.4938 -0.6862
 8930TIP3    H248282   0.398   0.219  16.056  1.5101 -0.9866  0.9495
 8931TIP3   OH248283   3.795   2.975   1.293 -0.0191 -0.1184  0.6700
 8931TIP3    H148284   3.739   3.019   1.357  0.5091  0.6387  0.6175
 8931TIP3    H248285   3.836   3.046   1.244 -1.8883 -0.6984 -1.8256
 8932TIP3   OH248286   1.317   1.750  15.251 -0.1685  0.0000 -0.4800
 8932TIP3    H148287   1.300   1.790  15.337 -1.7989  1.2623 -1.3716
 8932TIP3    H248288   1.382   1.806  15.211  1.6850 -1.4011  0.4700
 8933TIP3   OH248289   5.845   4.503   2.724 -0.2249  0.1594 -0.2543
 8933TIP3    H148290   5.838   4.532   2.815  0.4002 -1.7445  0.4375
 8933TIP3    H248291   5.755   4.504   2.691 -0.4319  1.0454  0.3219
 8934TIP3   OH248292   3.995   6.469   5.377 -0.4473  0.3680 -0.1929
 8934TIP3    H148293   3.933   6.542   5.366 -1.7374 -0.5424  0.8962
 8934TIP3    H248294   4.030   6.480   5.465  0.4680  0.5105 -0.5719
 8935TIP3   OH248295   2.040   1.831  12.830  0.2671 -0.0171  0.1890
 8935TIP3    H148296   2.103   1.902  12.821  0.5976 -0.1964  1.0910
 8935TIP3    H248297   2.054   1.797  12.918  2.4623 -3.4507 -1.4023
 8936TIP3   OH248298   0.282   2.037   1.777 -0.7141  0.2455 -0.2792
 8936TIP3    H148299   0.328   2.062   1.697 -1.0124 -0.2269 -0.6020
 8936TIP3    H248300   0.342   1.978   1.822 -1.2706 -0.9290 -1.0403
 8937TIP3   OH248301   1.281   4.898  14.067 -0.4240  0.1131 -0.6984
 8937TIP3    H148302   1.223   4.853  14.129 -0.0928  1.7842  0.8658
 8937TIP3    H248303   1.368   4.864  14.086 -0.5574 -0.6743 -1.4641
 8938TIP3   OH248304   5.273   0.332  14.803 -0.1013 -0.3472  0.2307
 8938TIP3    H148305   5.348   0.390  14.812  0.4540 -0.6759 -1.9136
 8938TIP3    H248306   5.272   0.280  14.884 -0.0813  2.0052  1.7784
 8939TIP3   OH248307   1.082   0.187   0.471 -0.0375 -0.0256 -0.3673
 8939TIP3    H148308   1.071   0.158   0.380 -0.0289  0.6321 -0.5800
 8939TIP3    H248309   1.160   0.241   0.469  0.5671 -0.8685  0.2428
 8940TIP3   OH248310   3.443   3.343  15.724 -0.1244 -0.4718  0.0029
 8940TIP3    H148311   3.379   3.360  15.655  1.4772  0.3139 -1.3291
 8940TIP3    H248312   3.442   3.422  15.778  0.6216  0.0596 -0.7534
 8941TIP3   OH248313   0.722   5.399  15.082 -0.0020 -0.0953  0.2246
 8941TIP3    H148314   0.809   5.380  15.118  0.0689 -0.5897 -0.2060
 8941TIP3    H248315   0.678   5.448  15.152  0.8592  0.7690  0.1683
 8942TIP3   OH248316   2.607   6.110  13.082 -0.0703 -0.0709  0.2200
 8942TIP3    H148317   2.700   6.108  13.058 -0.0103  0.7763  0.3846
 8942TIP3    H248318   2.605   6.161  13.163 -0.4160 -1.8791  1.3754
 8943TIP3   OH248319   4.491   3.165   3.563  0.2841 -0.0476 -0.1072
 8943TIP3    H148320   4.576   3.196   3.595  0.5838  0.3329 -1.2480
 8943TIP3    H248321   4.501   3.164   3.468 -0.3684 -1.7764 -0.1677
 8944TIP3   OH248322   3.047   1.915  13.969  0.0716 -0.1611  0.0924
 8944TIP3    H148323   3.069   1.984  14.032  1.2367 -0.0270 -0.4359
 8944TIP3    H248324   3.019   1.841  14.022 -0.0164  0.3213  0.7236
 8945TIP3   OH248325   3.898   5.364  11.989  0.7008  0.0135 -0.2834
 8945TIP3    H148326   3.897   5.457  12.013  1.4131  0.5873 -2.3135
 8945TIP3    H248327   3.809   5.347  11.957  0.5001 -0.0757  0.3142
 8946TIP3   OH248328   1.180   1.431  14.663  0.7020  1.0612  0.4401
 8946TIP3    H148329   1.139   1.488  14.598 -1.3038 -1.1673 -0.3618
 8946TIP3    H248330   1.136   1.453  14.745  0.5454  1.2547  0.3046
 8947TIP3   OH248331   4.251   3.598  16.686 -0.2537  0.4800 -0.1830
 8947TIP3    H148332   4.289   3.534  16.745 -1.3289 -0.1163 -0.1249
 8947TIP3    H248333   4.170   3.557  16.655  1.6550 -0.4437 -4.2792
 8948TIP3   OH248334   4.003   2.484  16.604 -0.0168 -0.0389 -0.6784
 8948TIP3    H148335   4.019   2.502  16.511  2.2581  1.5884  0.0041
 8948TIP3    H248336   3.940   2.551  16.631 -0.1086 -0.0586 -0.8403
 8949TIP3   OH248337   5.242   0.112   3.712 -0.4602  0.0342 -0.4628
 8949TIP3    H148338   5.247   0.104   3.807 -0.3839  1.3432 -0.3379
 8949TIP3    H248339   5.218   0.204   3.698  1.4574  0.3579 -1.7598
 8950TIP3   OH248340   0.831   2.625  13.773 -0.5112 -0.3677  0.8367
 8950TIP3    H148341   0.800   2.668  13.853  0.1831  0.1342  0.8406
 8950TIP3    H248342   0.752   2.612  13.721 -0.6758  1.5114  0.5550
 8951TIP3   OH248343   3.599   1.499   0.044 -0.2098 -0.7590 -0.1714
 8951TIP3    H148344   3.562   1.410   0.050  0.7290 -1.1087  0.4805
 8951TIP3    H248345   3.684   1.492   0.086  0.6002  0.0500 -1.6603
 8952TIP3   OH248346   5.721   4.963  14.062  0.0601  0.4970 -0.2720
 8952TIP3    H148347   5.713   5.057  14.075  0.1220  0.3864  0.5637
 8952TIP3    H248348   5.713   4.925  14.150 -3.1696 -0.4854 -0.9091
 8953TIP3   OH248349   6.370   2.493   6.249  0.2210 -0.8520 -0.0713
 8953TIP3    H148350   6.331   2.417   6.292  0.2624 -0.9471 -0.2024
 8953TIP3    H248351   6.464   2.487   6.268  0.5028 -1.9193 -1.7461
 8954TIP3   OH248352   6.614   2.907   4.251 -0.5002  0.5816 -0.1029
 8954TIP3    H148353   6.641   2.897   4.159  0.8160 -0.4549  0.3795
 8954TIP3    H248354   6.550   2.836   4.264 -0.0860  0.2226 -0.0041
 8955TIP3   OH248355   5.714   1.974   0.045 -0.0592  0.6579  0.6652
 8955TIP3    H148356   5.672   1.946   0.127  0.4392 -0.5849  0.5041
 8955TIP3    H248357   5.655   1.941  -0.024  0.2104  0.5414  0.4905
 8956TIP3   OH248358   6.271   6.512  14.556  0.5179 -0.1416  0.6759
 8956TIP3    H148359   6.223   6.540  14.478 -0.1707 -4.9157 -0.8218
 8956TIP3    H248360   6.358   6.551  14.546  0.1138  0.1699 -1.9759
 8957TIP3   OH248361   1.863   6.083  12.843  0.1209 -0.1455  0.1525
 8957TIP3    H148362   1.872   6.004  12.897 -1.5946  0.0162  0.6960
 8957TIP3    H248363   1.769   6.098  12.837  0.3905  1.3287 -0.7401
 8958TIP3   OH248364   5.860   2.462  12.339 -0.5744  0.0563  0.5029
 8958TIP3    H148365   5.800   2.412  12.395  1.5098 -1.7669  1.1502
 8958TIP3    H248366   5.945   2.457  12.383  0.5163  0.9133 -1.4299
 8959TIP3   OH248367   1.961   0.207  16.037 -0.2848 -0.0937  0.3179
 8959TIP3    H148368   1.894   0.253  16.088 -1.3012 -0.5089 -0.6351
 8959TIP3    H248369   1.979   0.264  15.963  0.6650  0.1655  0.7289
 8960TIP3   OH248370   3.454   4.928   1.877  0.5132 -0.4160  0.4661
 8960TIP3    H148371   3.382   4.866   1.870 -1.0656  1.4582 -0.4125
 8960TIP3    H248372   3.469   4.959   1.788  0.2735  1.5378  1.0747
 8961TIP3   OH248373   3.584   6.253  16.198 -0.4134 -1.0700  0.1603
 8961TIP3    H148374   3.636   6.328  16.167 -2.4761  1.7805  3.1557
 8961TIP3    H248375   3.643   6.178  16.192  2.1513  1.0124 -1.8008
 8962TIP3   OH248376   0.048   3.670  15.466  0.6043  0.0520 -0.3719
 8962TIP3    H148377   0.017   3.758  15.489 -0.8744 -0.9289  1.5969
 8962TIP3    H248378   0.141   3.671  15.487  0.2457  0.6575  1.2888
 8963TIP3   OH248379   2.618   6.230   4.222 -0.4840  0.3648 -0.6797
 8963TIP3    H148380   2.568   6.155   4.190 -0.2574  0.0284 -0.2382
 8963TIP3    H248381   2.622   6.289   4.146  0.6071 -0.7195 -1.5008
 8964TIP3   OH248382   2.475   3.535   3.875  0.1366  0.4697 -0.7622
 8964TIP3    H148383   2.517   3.530   3.961 -1.2507  0.8378 -0.0494
 8964TIP3    H248384   2.531   3.483   3.818 -0.4944 -2.1953  0.9939
 8965TIP3   OH248385   1.171   0.073  10.953 -0.3376 -0.2192  0.1248
 8965TIP3    H148386   1.076   0.062  10.957 -0.0623 -2.8052  0.3624
 8965TIP3    H248387   1.197   0.097  11.042 -0.8777  1.6223 -0.2009
 8966TIP3   OH248388   4.807   4.017   2.483 -0.4299  0.9109  0.0547
 8966TIP3    H148389   4.877   3.994   2.544 -0.9006  0.4778  0.4392
 8966TIP3    H248390   4.726   4.000   2.532 -0.8180  0.4119 -0.7403
 8967TIP3   OH248391   2.506   5.521   0.681 -0.2226  0.2543  0.2022
 8967TIP3    H148392   2.485   5.525   0.775  0.7094 -0.1992  0.4348
 8967TIP3    H248393   2.506   5.612   0.653 -3.3109  0.2632 -0.0098
 8968TIP3   OH248394   1.478   3.022   4.886 -0.4192  0.0390  0.7496
 8968TIP3    H148395   1.503   3.044   4.976  0.4753 -0.5022  0.6388
 8968TIP3    H248396   1.551   3.053   4.833 -1.2944  1.0698  0.1167
 8969TIP3   OH248397   3.053   0.754   2.057  0.0062 -0.4010 -0.1925
 8969TIP3    H148398   2.995   0.686   2.024  1.0089 -1.0607 -0.6233
 8969TIP3    H248399   3.133   0.708   2.082 -0.4018  0.2033  2.3703
 8970TIP3   OH248400   4.783   0.122  12.411 -0.3645 -0.5461 -0.7213
 8970TIP3    H148401   4.803   0.034  12.442 -0.9661 -0.6754 -0.6968
 8970TIP3    H248402   4.846   0.138  12.341 -0.6186 -1.2062 -1.1001
 8971TIP3   OH248403   4.120   2.301  12.592  0.0917 -0.4336  0.1776
 8971TIP3    H148404   4.111   2.223  12.538 -1.5645  0.4535 -0.8661
 8971TIP3    H248405   4.163   2.270  12.672 -0.6955 -2.4392 -0.1500
 8972TIP3   OH248406   5.559   2.771  15.457  0.3331  0.4681  0.0842
 8972TIP3    H148407   5.558   2.698  15.519  0.2392  0.4438  0.0550
 8972TIP3    H248408   5.601   2.736  15.379  2.4729  1.1408  0.9044
 8973TIP3   OH248409   3.926   6.397   1.437 -0.1691  0.4206 -0.3533
 8973TIP3    H148410   3.850   6.342   1.418 -0.2472  0.2592  0.4334
 8973TIP3    H248411   3.995   6.363   1.380 -0.4737  0.0813 -0.5194
 8974TIP3   OH248412   0.689   4.533  14.535  0.5663  0.2604 -0.1188
 8974TIP3    H148413   0.782   4.518  14.517  0.6020  1.1929 -0.7365
 8974TIP3    H248414   0.656   4.577  14.457 -0.1548  0.8894  0.5352
 8975TIP3   OH248415   6.682   6.301   1.691  0.0089 -0.4332 -0.2382
 8975TIP3    H148416   6.723   6.382   1.659 -1.7029  1.1552  1.4759
 8975TIP3    H248417   6.622   6.275   1.622  2.3104 -1.6087 -1.8520
 8976TIP3   OH248418   5.253   2.590  11.593  0.0774  0.0502  0.3220
 8976TIP3    H148419   5.196   2.665  11.572 -0.6666  0.0701  2.3348
 8976TIP3    H248420   5.238   2.528  11.522 -1.4180  0.6521  0.0972
 8977TIP3   OH248421   3.456   4.285   2.111 -0.1912  0.3695  0.4527
 8977TIP3    H148422   3.430   4.357   2.168 -0.1625  0.1100  0.7982
 8977TIP3    H248423   3.445   4.207   2.165 -1.3961  0.0017 -0.3041
 8978TIP3   OH248424   0.757   0.249   4.227  0.3720  0.5414  0.3414
 8978TIP3    H148425   0.754   0.153   4.226 -2.2137  0.5724  0.8579
 8978TIP3    H248426   0.814   0.271   4.300 -1.9931 -0.6086  2.5933
 8979TIP3   OH248427   5.730   0.519  12.880  0.2987 -0.0228 -0.5059
 8979TIP3    H148428   5.772   0.551  12.959 -1.6303  1.7916 -0.1723
 8979TIP3    H248429   5.802   0.502  12.819  1.8682 -2.3257  1.8979
 8980TIP3   OH248430   4.642   3.496   0.918 -0.4802  0.4637 -0.6449
 8980TIP3    H148431   4.558   3.457   0.944 -0.0201  0.0950  0.3360
 8980TIP3    H248432   4.665   3.553   0.991  0.7641 -0.4579 -0.3157
 8981TIP3   OH248433   2.065   0.044  16.245  0.7948  0.3143 -0.2772
 8981TIP3    H148434   2.044   0.078  16.332  0.7082 -1.7051  0.5267
 8981TIP3    H248435   2.039   0.114  16.184 -1.1917  0.8662  1.1715
 8982TIP3   OH248436   4.531   0.963   2.426  0.4327  0.0504  0.2130
 8982TIP3    H148437   4.590   1.038   2.425  0.7724 -0.1314  3.0114
 8982TIP3    H248438   4.587   0.888   2.447 -0.2563 -0.6554 -0.4171
 8983TIP3   OH248439   5.432   2.974   3.129 -0.2131  0.3704 -0.4821
 8983TIP3    H148440   5.430   2.897   3.187 -2.0658 -1.7711 -3.2448
 8983TIP3    H248441   5.512   2.964   3.078  0.1169  0.9102 -0.0815
 8984TIP3   OH248442   3.803   1.018  17.014 -0.4476 -0.2294  0.6720
 8984TIP3    H148443   3.762   1.102  17.035 -1.2497 -0.4918  0.1844
 8984TIP3    H248444   3.729   0.960  16.992  0.2346 -0.3770 -1.3599
 8985TIP3   OH248445   0.406   4.646   0.123 -0.4947 -0.3946  0.1635
 8985TIP3    H148446   0.471   4.714   0.143  0.1487 -0.3452 -1.9382
 8985TIP3    H248447   0.328   4.695   0.099 -0.6619 -0.4229  0.6558
 8986TIP3   OH248448   0.203   5.608  11.343  0.1778  0.3530 -0.3567
 8986TIP3    H148449   0.203   5.522  11.300 -1.1109  0.1547  0.0228
 8986TIP3    H248450   0.263   5.597  11.417  1.2464  0.2576 -1.2184
 8987TIP3   OH248451   5.323   1.988   1.108 -0.4835 -0.2903  0.5409
 8987TIP3    H148452   5.419   1.992   1.101 -0.5589 -1.9641 -1.9234
 8987TIP3    H248453   5.308   1.935   1.186  0.5744  0.5965  1.3733
 8988TIP3   OH248454   1.518   5.171  12.417  0.2377 -0.0955  0.0296
 8988TIP3    H148455   1.589   5.234  12.426  0.2378 -0.1287  0.2477
 8988TIP3    H248456   1.446   5.222  12.378  0.8798 -0.4198 -1.6342
 8989TIP3   OH248457   5.276   3.953   3.802 -0.1132  0.2914  0.0105
 8989TIP3    H148458   5.204   4.016   3.798 -0.8565 -0.5557 -0.1426
 8989TIP3    H248459   5.313   3.965   3.890 -1.9300 -0.8628  0.9821
 8990TIP3   OH248460   6.144   3.309  17.069 -0.0532 -0.1436  0.3579
 8990TIP3    H148461   6.232   3.348  17.068 -1.4560  3.1469 -1.2331
 8990TIP3    H248462   6.138   3.261  16.987  0.6143 -1.1971  0.9241
 8991TIP3   OH248463   6.380   1.504   1.626  0.2392 -0.1093  0.2589
 8991TIP3    H148464   6.396   1.440   1.695  1.0170 -1.2791 -0.9933
 8991TIP3    H248465   6.459   1.503   1.573 -1.0228 -0.5111 -1.6758
 8992TIP3   OH248466   5.170   1.368  15.880 -0.0106  0.0316 -0.3169
 8992TIP3    H148467   5.125   1.443  15.920 -3.0287 -0.6081 -2.3008
 8992TIP3    H248468   5.144   1.293  15.933  2.0480  0.1689  0.9463
 8993TIP3   OH248469   2.270   3.412   3.346  0.2259  0.3664  0.1371
 8993TIP3    H148470   2.308   3.477   3.287  2.3524 -0.2427  0.7867
 8993TIP3    H248471   2.226   3.464   3.413  3.2002  1.2217  1.5075
 8994TIP3   OH248472   4.960   2.281   5.327 -0.1255 -0.1209 -0.1253
 8994TIP3    H148473   5.024   2.322   5.386  1.0840 -3.4880  1.0375
 8994TIP3    H248474   4.875   2.305   5.364  0.5367  0.9269  0.7666
 8995TIP3   OH248475   3.652   6.018   1.277  0.4315  0.9164 -0.1098
 8995TIP3    H148476   3.628   6.008   1.184 -2.5841  1.6060  0.5502
 8995TIP3    H248477   3.655   5.928   1.310  2.5519  0.5878 -1.0569
 8996TIP3   OH248478   4.317   0.707   0.716 -0.0773  0.1811  0.6178
 8996TIP3    H148479   4.346   0.756   0.793  0.3786  0.0955  0.4976
 8996TIP3    H248480   4.293   0.621   0.750 -2.1898  0.9119  1.0557
 8997TIP3   OH248481   4.641   1.156  12.271  0.3640 -0.0019 -0.8718
 8997TIP3    H148482   4.629   1.231  12.330  0.1844 -1.3097  0.7926
 8997TIP3    H248483   4.692   1.191  12.198  1.0570  1.5371  0.3255
 8998TIP3   OH248484   2.708   1.297   2.399  0.6152 -0.2299  0.1582
 8998TIP3    H148485   2.765   1.220   2.394  0.8230  0.0168 -2.0146
 8998TIP3    H248486   2.768   1.370   2.412  0.7491 -0.0571 -1.3489
 8999TIP3   OH248487   3.023   3.259  12.653 -0.2587 -0.2049 -0.5432
 8999TIP3    H148488   3.116   3.267  12.635 -0.1965 -0.6845 -0.4528
 8999TIP3    H248489   2.981   3.327  12.601  0.1656  0.1630 -0.3986
 9000TIP3   OH248490   5.460   3.349  11.465  0.1130 -0.1894  0.0151
 9000TIP3    H148491   5.552   3.376  11.473 -0.2999  1.0485  0.6907
 9000TIP3    H248492   5.427   3.349  11.554 -1.3567  2.2813 -0.5010
 9001TIP3   OH248493   2.944   6.349  13.038 -0.4307  0.5984 -0.3533
 9001TIP3    H148494   2.892   6.417  12.995  1.4196  0.8500 -2.2648
 9001TIP3    H248495   2.929   6.271  12.985 -1.7419 -0.2803  1.2481
 9002TIP3   OH248496   3.908   1.386  14.728  0.2946  0.0032  0.2861
 9002TIP3    H148497   3.930   1.469  14.771  2.1393 -0.6704  0.6889
 9002TIP3    H248498   3.992   1.355  14.692 -0.7421 -0.7144 -1.5692
 9003TIP3   OH248499   6.400   0.186  13.179 -0.1361  0.5725  0.1730
 9003TIP3    H148500   6.322   0.134  13.162  0.2318 -0.1802  0.7782
 9003TIP3    H248501   6.397   0.256  13.113 -0.3178 -0.5431 -1.0286
 9004TIP3   OH248502   4.871   0.069  11.498  0.0824 -0.7296  0.2158
 9004TIP3    H148503   4.821   0.098  11.422 -1.6017 -1.6110  0.9421
 9004TIP3    H248504   4.907  -0.016  11.472  0.5249 -0.4632 -0.0322
 9005TIP3   OH248505   5.078   3.798  16.634 -0.3332  0.2722  0.1594
 9005TIP3    H148506   5.151   3.741  16.657 -0.5981 -0.1223  0.0315
 9005TIP3    H248507   5.051   3.838  16.717 -0.7265 -0.4804  0.4014
 9006TIP3   OH248508   0.561   5.672  14.733  0.3000  0.1787 -0.1474
 9006TIP3    H148509   0.584   5.758  14.766 -0.7366  0.4344 -0.0828
 9006TIP3    H248510   0.535   5.687  14.642  1.5148 -0.2858 -0.5935
 9007TIP3   OH248511   0.895   4.468  10.534 -0.1421 -0.6468 -0.7560
 9007TIP3    H148512   0.888   4.496  10.443 -1.0603 -0.2919 -0.5824
 9007TIP3    H248513   0.956   4.529  10.574 -2.1166  1.1534 -0.3810
 9008TIP3   OH248514   1.718   3.053   4.734 -0.4152 -0.2077  0.1624
 9008TIP3    H148515   1.733   3.146   4.713 -2.2300  0.4785  1.7524
 9008TIP3    H248516   1.748   3.044   4.824 -0.2447 -1.1740  0.0087
 9009TIP3   OH248517   6.594   1.048  17.129 -0.0792  0.4985 -0.1671
 9009TIP3    H148518   6.602   1.142  17.112 -1.1571  0.4916 -0.7709
 9009TIP3    H248519   6.655   1.007  17.068  1.0149  0.8496  0.6857
 9010TIP3   OH248520   2.956   4.266   4.561 -0.9128  0.6845 -0.4656
 9010TIP3    H148521   2.892   4.270   4.490 -1.0617  1.3451 -0.2989
 9010TIP3    H248522   3.025   4.209   4.528 -0.3523  2.0000 -1.6586
 9011TIP3   OH248523   4.891   0.787  16.470  0.1845  0.2217  0.4744
 9011TIP3    H148524   4.813   0.794  16.415  0.2652  0.5667  0.4043
 9011TIP3    H248525   4.858   0.795  16.560  0.1947  0.8257  0.4245
 9012TIP3   OH248526   4.009   0.533   1.515 -0.2375 -0.7991 -0.1293
 9012TIP3    H148527   4.027   0.626   1.528 -2.0906 -0.4504  0.1263
 9012TIP3    H248528   3.949   0.530   1.440 -0.0954 -1.7937 -0.2091
 9013TIP3   OH248529   1.951   2.014  16.639 -0.1728  0.0016  0.9042
 9013TIP3    H148530   1.923   2.032  16.729  1.0028 -1.1251  1.5034
 9013TIP3    H248531   2.042   2.042  16.636 -0.1394 -0.1751  0.1187
 9014TIP3   OH248532   6.695   5.734  10.384  0.0610  0.5807 -0.0794
 9014TIP3    H148533   6.609   5.757  10.419 -0.0253 -0.7065  0.5737
 9014TIP3    H248534   6.754   5.800  10.423 -0.5210  1.0597  0.0014
 9015TIP3   OH248535   3.461   0.708  15.460 -0.2109 -0.2171  0.7474
 9015TIP3    H148536   3.389   0.650  15.484 -0.0793 -0.8038 -0.2660
 9015TIP3    H248537   3.428   0.796  15.478 -0.6155 -0.5622  1.7441
 9016TIP3   OH248538   3.006   0.180   1.676  0.1182 -0.3498 -0.0260
 9016TIP3    H148539   2.995   0.223   1.592  1.4745  0.2556  0.0847
 9016TIP3    H248540   3.101   0.179   1.690 -0.1075 -0.0333  1.6958
 9017TIP3   OH248541   0.325   0.697  13.787  0.7644  0.0736  0.3514
 9017TIP3    H148542   0.390   0.661  13.727  0.7942 -0.5092  0.7360
 9017TIP3    H248543   0.297   0.623  13.840  1.2006  0.7149  1.4871
 9018TIP3   OH248544   2.359   6.152   4.502  0.0787 -0.1919 -0.2335
 9018TIP3    H148545   2.274   6.177   4.539  1.2655  0.0015  2.4612
 9018TIP3    H248546   2.336   6.097   4.427 -2.4547 -0.5013  0.6863
 9019TIP3   OH248547   6.357   4.241   1.786 -0.0089 -0.1083  0.2414
 9019TIP3    H148548   6.289   4.308   1.787  0.4223  0.3599 -1.5521
 9019TIP3    H248549   6.391   4.240   1.876 -0.9824  1.0752  0.6229
 9020TIP3   OH248550   0.431   5.823  12.756 -0.4010 -0.2578  0.3103
 9020TIP3    H148551   0.376   5.886  12.711 -0.8045 -0.1340  0.9796
 9020TIP3    H248552   0.424   5.743  12.703  0.3237  0.3239 -0.6849
 9021TIP3   OH248553   1.612   1.210   2.069  0.2329  0.4190 -0.1169
 9021TIP3    H148554   1.612   1.234   1.976  0.4080  1.9648  0.2806
 9021TIP3    H248555   1.703   1.188   2.088  0.4651  1.4818  0.0337
 9022TIP3   OH248556   6.157   0.906   2.148  0.0794  0.0638  0.2440
 9022TIP3    H148557   6.173   0.880   2.239  0.9783  1.6667  0.5511
 9022TIP3    H248558   6.068   0.940   2.148 -0.3888 -1.1158  0.2437
 9023TIP3   OH248559   4.290   1.756   4.339  0.3758 -0.4157  0.4838
 9023TIP3    H148560   4.243   1.838   4.355  0.1975 -0.1723 -1.2266
 9023TIP3    H248561   4.379   1.773   4.369 -0.0213 -0.1000  1.5201
 9024TIP3   OH248562   3.376   4.599   1.296 -0.1433  0.3517 -0.1995
 9024TIP3    H148563   3.404   4.690   1.307 -2.5406  1.2215 -0.8488
 9024TIP3    H248564   3.372   4.564   1.384  0.7673  0.8941  0.0621
 9025TIP3   OH248565   0.491   1.841   1.546 -0.3012 -0.5768 -0.0589
 9025TIP3    H148566   0.400   1.825   1.519 -1.4262  3.4273  1.0464
 9025TIP3    H248567   0.490   1.829   1.641 -0.6033  3.1242  0.4619
 9026TIP3   OH248568   4.020   3.875  11.236 -0.0569 -0.3928 -0.0490
 9026TIP3    H148569   4.028   3.780  11.230  0.0926 -0.4515  1.0221
 9026TIP3    H248570   4.084   3.909  11.173 -0.7191 -1.0021 -1.0586
 9027TIP3   OH248571   6.594   3.671   3.489  0.3318 -0.4034 -0.1625
 9027TIP3    H148572   6.641   3.599   3.530 -0.6310  0.0156  1.7443
 9027TIP3    H248573   6.507   3.636   3.470 -0.4915  0.5299  1.7511
 9028TIP3   OH248574   4.056   1.399  12.486 -0.1075  0.2814  0.2997
 9028TIP3    H148575   4.063   1.442  12.572  2.0887  0.7305 -0.0938
 9028TIP3    H248576   4.029   1.468  12.426 -2.0932 -0.1254  0.6597
 9029TIP3   OH248577   3.588   1.805  14.063  0.2568 -0.2411  0.0262
 9029TIP3    H148578   3.541   1.803  13.980 -0.1721  0.2706  0.2538
 9029TIP3    H248579   3.680   1.813  14.038  0.0959  0.3529 -0.4029
 9030TIP3   OH248580   6.236   1.103   5.959 -0.1971 -0.3041  0.3120
 9030TIP3    H148581   6.161   1.047   5.940  0.0485 -0.8582  0.9957
 9030TIP3    H248582   6.198   1.180   6.002 -0.2309 -1.1657  1.8374
 9031TIP3   OH248583   5.826   1.599   6.652  0.0723  0.4116  0.4596
 9031TIP3    H148584   5.766   1.651   6.598 -0.0220 -0.6718 -0.5042
 9031TIP3    H248585   5.908   1.648   6.650  0.6641 -0.5824 -2.3237
 9032TIP3   OH248586   5.786   3.209  16.879 -0.1768 -0.3691 -0.0384
 9032TIP3    H148587   5.799   3.299  16.849 -0.5005 -0.0685  0.7186
 9032TIP3    H248588   5.694   3.207  16.908  0.1786 -0.6121  1.0721
 9033TIP3   OH248589   1.406   3.611  14.098 -0.5900 -0.6239 -0.3486
 9033TIP3    H148590   1.437   3.692  14.059 -1.8277  1.3655  2.6762
 9033TIP3    H248591   1.382   3.556  14.023 -0.2578  1.9594 -2.4127
 9034TIP3   OH248592   4.719   3.116   2.403  0.3096  0.0239  0.0405
 9034TIP3    H148593   4.727   3.068   2.486 -0.5313  0.0569  0.1466
 9034TIP3    H248594   4.626   3.112   2.382  0.6546 -0.8617 -1.4304
 9035TIP3   OH248595   0.992   5.016  12.278  0.0897  1.0441  0.7379
 9035TIP3    H148596   0.974   5.106  12.305 -0.7602  0.6774  1.4079
 9035TIP3    H248597   0.920   4.993  12.219 -0.2070  0.4848  1.3093
 9036TIP3   OH248598   3.979   5.706   2.643 -0.0333 -0.6185 -0.1789
 9036TIP3    H148599   4.039   5.715   2.717  0.3217  0.3187 -0.5622
 9036TIP3    H248600   3.900   5.668   2.680 -0.4119  1.2498  0.9834
 9037TIP3   OH248601   1.170   1.392   3.271  0.8191 -0.1561  0.5530
 9037TIP3    H148602   1.153   1.305   3.310 -0.1609 -0.2523 -0.0873
 9037TIP3    H248603   1.115   1.452   3.321 -1.6300 -0.4944 -1.6446
 9038TIP3   OH248604   0.028   0.030   3.299  0.3328 -0.2713  0.2358
 9038TIP3    H148605   0.116   0.067   3.306  1.0360 -2.0094  0.9022
 9038TIP3    H248606  -0.017   0.061   3.377  0.3764  0.5680 -0.0707
 9039TIP3   OH248607   5.444   5.855   0.628 -0.1118 -0.1127 -0.1296
 9039TIP3    H148608   5.399   5.897   0.555 -1.5361 -1.1086  0.1441
 9039TIP3    H248609   5.514   5.804   0.587 -2.1566 -2.2968 -1.0339
 9040TIP3   OH248610   6.016   6.015  11.259 -0.4849 -0.6397 -0.5708
 9040TIP3    H148611   6.029   5.983  11.348  0.4357  1.7452  0.1980
 9040TIP3    H248612   5.924   6.039  11.254 -0.2189  0.5488  0.1985
 9041TIP3   OH248613   6.717   0.955  13.967  0.1727 -0.4885  0.3746
 9041TIP3    H148614   6.724   0.880  13.907 -1.2438  0.4008 -0.9531
 9041TIP3    H248615   6.668   1.020  13.917  1.3135  1.2983  1.5515
 9042TIP3   OH248616   1.239   4.294   0.361 -0.3035  0.4180  0.2498
 9042TIP3    H148617   1.250   4.342   0.278 -2.5727  0.0103 -0.3030
 9042TIP3    H248618   1.167   4.338   0.404  0.9646  0.7146  2.1204
 9043TIP3   OH248619   6.755   1.177  12.793  0.2406 -0.3238 -0.1993
 9043TIP3    H148620   6.832   1.189  12.848  1.3987 -0.8171 -1.6776
 9043TIP3    H248621   6.705   1.108  12.837  0.3537  0.3675  1.0488
 9044TIP3   OH248622   3.599   5.106   2.007  0.2333 -0.4127  0.1779
 9044TIP3    H148623   3.574   5.138   2.094 -0.4336  2.1176 -0.9223
 9044TIP3    H248624   3.530   5.043   1.984  0.5753 -1.3235  1.5846
 9045TIP3   OH248625   5.847   5.971  10.928  0.5412  0.9055  0.6795
 9045TIP3    H148626   5.828   5.889  10.975  1.1445 -0.2599 -1.0406
 9045TIP3    H248627   5.777   5.979  10.864  2.4394 -0.2739 -1.6551
 9046TIP3   OH248628   1.851   6.558  14.118 -0.4656 -0.4430 -0.6497
 9046TIP3    H148629   1.922   6.620  14.133  0.3508 -1.5487  0.1223
 9046TIP3    H248630   1.795   6.601  14.054  1.4783 -0.0138 -2.1061
 9047TIP3   OH248631   2.606   4.461  11.067 -0.6203 -0.0814 -0.2884
 9047TIP3    H148632   2.679   4.506  11.024 -0.3967 -1.0182 -0.9025
 9047TIP3    H248633   2.528   4.501  11.028 -0.4442  0.9903  0.4438
 9048TIP3   OH248634   3.718   5.516  13.687  0.2844  0.1379 -0.2113
 9048TIP3    H148635   3.654   5.587  13.691  0.0381  0.2015 -3.7716
 9048TIP3    H248636   3.803   5.558  13.704 -0.2555  0.5218  1.7062
 9049TIP3   OH248637   4.597   0.141  13.070  0.4151 -0.8789 -0.4170
 9049TIP3    H148638   4.677   0.098  13.039  0.4365  0.2342 -1.9686
 9049TIP3    H248639   4.551   0.165  12.990 -1.1213 -0.8619  0.4688
 9050TIP3   OH248640   4.789   3.431  17.233 -0.5327 -0.1428 -0.3737
 9050TIP3    H148641   4.791   3.365  17.163 -0.6981 -1.3544  0.7358
 9050TIP3    H248642   4.696   3.445  17.250 -0.4942  0.2685 -0.5042
 9051TIP3   OH248643   3.626   4.267   0.262 -0.2312 -0.5916 -0.2205
 9051TIP3    H148644   3.538   4.296   0.238 -1.0888 -2.1839  1.0105
 9051TIP3    H248645   3.619   4.238   0.352  1.1153 -2.6039 -0.7353
 9052TIP3   OH248646   5.171   4.836  16.654  0.3094 -0.2666  0.1040
 9052TIP3    H148647   5.258   4.866  16.681 -0.0100  1.7596 -1.0813
 9052TIP3    H248648   5.111   4.873  16.718  0.1853 -0.7246  0.2595
 9053TIP3   OH248649   0.699   0.619  13.696 -0.2899 -0.1762  0.4265
 9053TIP3    H148650   0.623   0.587  13.646 -0.3888 -0.3370  0.6796
 9053TIP3    H248651   0.731   0.542  13.743  2.3724 -1.0328 -2.6313
 9054TIP3   OH248652   1.787   2.109   2.235  0.2057  0.2318  0.0377
 9054TIP3    H148653   1.873   2.094   2.273 -0.6896  1.0305  2.5032
 9054TIP3    H248654   1.803   2.165   2.160  1.6967  1.6767  1.3994
 9055TIP3   OH248655   3.359   2.557   5.918  0.0557 -0.4166  0.1612
 9055TIP3    H148656   3.413   2.482   5.892 -1.9391 -2.1035  0.7796
 9055TIP3    H248657   3.393   2.584   6.003  0.9582 -0.4352 -0.1929
 9056TIP3   OH248658   4.839   5.100   4.159 -0.0237  0.6210  0.1310
 9056TIP3    H148659   4.812   5.133   4.245 -0.9205  1.0542 -0.3156
 9056TIP3    H248660   4.766   5.121   4.101  0.5261  0.2130 -0.7153
 9057TIP3   OH248661   0.546   1.908  15.952 -0.6099 -0.0299  0.1470
 9057TIP3    H148662   0.463   1.956  15.947 -0.4443  0.1541 -0.9561
 9057TIP3    H248663   0.603   1.965  16.004 -0.0038  1.6040 -2.2277
 9058TIP3   OH248664   4.880   4.839  17.215  0.3295 -0.0475 -0.1276
 9058TIP3    H148665   4.828   4.859  17.293 -0.4632  0.1228 -0.6961
 9058TIP3    H248666   4.917   4.753  17.232  3.6920  1.7613  2.2963
 9059TIP3   OH248667   1.304   5.145   5.005  0.2332 -0.7153 -0.2543
 9059TIP3    H148668   1.383   5.091   5.009  0.7545  0.0080 -0.8028
 9059TIP3    H248669   1.250   5.104   4.937 -0.1739 -1.6177  0.6017
 9060TIP3   OH248670   4.190   3.843  10.714 -0.3421 -0.4555 -0.2054
 9060TIP3    H148671   4.119   3.882  10.663 -0.3738  0.0772  0.2470
 9060TIP3    H248672   4.156   3.839  10.803  0.5331  0.6529  0.1924
 9061TIP3   OH248673   3.744   3.692  10.785 -0.0064  0.2464  0.2472
 9061TIP3    H148674   3.659   3.735  10.797 -0.0795 -0.4903  2.4759
 9061TIP3    H248675   3.722   3.600  10.772  0.4934 -0.1700  2.1881
 9062TIP3   OH248676   5.376   3.528  12.943  0.4093  0.0930 -0.1076
 9062TIP3    H148677   5.444   3.461  12.946 -1.6346 -2.0439  0.9887
 9062TIP3    H248678   5.398   3.588  13.014  0.2330 -1.5712  1.3996
 9063TIP3   OH248679   3.407   0.823  16.618  0.1344 -0.6230  0.4948
 9063TIP3    H148680   3.497   0.799  16.639  0.4938  1.2977  1.2626
 9063TIP3    H248681   3.414   0.889  16.549 -0.7490 -1.2792 -0.2526
 9064TIP3   OH248682   0.151   2.318  10.845 -0.6892 -0.1245  0.7001
 9064TIP3    H148683   0.218   2.295  10.910  0.3891 -4.0615 -1.5816
 9064TIP3    H248684   0.073   2.272  10.875 -0.5973 -0.7305  0.0184
 9065TIP3   OH248685   6.113   6.000   2.600 -0.3150  0.1308 -0.3782
 9065TIP3    H148686   6.089   5.940   2.671  0.8152 -1.2707 -1.1895
 9065TIP3    H248687   6.068   6.082   2.623 -1.2628 -0.7863  1.1129
 9066TIP3   OH248688   2.600   5.667   4.088  0.7095  0.0356  0.1493
 9066TIP3    H148689   2.581   5.755   4.057 -0.3914 -0.2007  0.1436
 9066TIP3    H248690   2.531   5.649   4.153 -0.6849 -1.8390 -1.8096
 9067TIP3   OH248691   4.980   2.882   5.612  0.4400  0.8273 -0.1198
 9067TIP3    H148692   4.975   2.826   5.535  1.5793 -1.2447  1.2777
 9067TIP3    H248693   5.072   2.905   5.620  0.1908  1.7994  0.1044
 9068TIP3   OH248694   5.564   4.025   3.592 -0.0427  0.5809  0.1864
 9068TIP3    H148695   5.486   3.997   3.544  0.7637 -1.3080 -0.0481
 9068TIP3    H248696   5.531   4.087   3.657 -1.7132 -0.0291 -0.0552
 9069TIP3   OH248697   3.190   2.669  12.990 -0.1756 -0.0477 -0.8737
 9069TIP3    H148698   3.239   2.732  13.042  0.3972 -0.7393 -0.5582
 9069TIP3    H248699   3.113   2.716  12.961  1.8445  1.8165 -3.4069
 9070TIP3   OH248700   6.744   1.688  13.971  0.4269  0.2542  0.3787
 9070TIP3    H148701   6.674   1.737  13.929  0.6775  0.9431  0.7650
 9070TIP3    H248702   6.758   1.732  14.055 -0.2076 -1.2366  1.2824
 9071TIP3   OH248703   3.626   0.817  16.839 -0.2235 -0.3016  0.0124
 9071TIP3    H148704   3.538   0.779  16.837 -0.5434  0.4468 -1.9834
 9071TIP3    H248705   3.682   0.746  16.869 -1.0048 -1.9990 -2.3791
 9072TIP3   OH248706   5.028   5.044   0.790  0.3945  0.3456 -0.5670
 9072TIP3    H148707   5.064   5.119   0.743  0.1708  1.0010  0.3063
 9072TIP3    H248708   5.044   5.062   0.882 -0.2608 -0.3545 -0.3044
 9073TIP3   OH248709   1.569   2.835   5.805 -0.6617  0.0257 -0.2700
 9073TIP3    H148710   1.535   2.827   5.894 -1.2772 -0.6591 -0.5636
 9073TIP3    H248711   1.494   2.817   5.748  0.4132 -2.7321 -0.9322
 9074TIP3   OH248712   2.885   6.324  12.210 -0.1755 -0.5038  0.0599
 9074TIP3    H148713   2.971   6.317  12.251 -0.4124  2.1764  1.0895
 9074TIP3    H248714   2.890   6.403  12.157 -2.8724  1.2802  2.3679
 9075TIP3   OH248715   0.924   5.049  13.539 -0.0264  0.1496  0.1721
 9075TIP3    H148716   0.997   5.098  13.502 -1.1044  0.4434 -1.6112
 9075TIP3    H248717   0.908   4.978  13.477 -0.0283 -1.0498  1.5250
 9076TIP3   OH248718   3.516   2.272   1.283 -0.7826  0.1729  0.0921
 9076TIP3    H148719   3.509   2.361   1.315 -1.3373  0.1286  0.0919
 9076TIP3    H248720   3.473   2.273   1.197  0.3500  0.2012 -0.4987
 9077TIP3   OH248721   1.854   2.275  11.046 -0.7418 -0.0833  0.0538
 9077TIP3    H148722   1.917   2.301  10.980 -2.1031 -1.4406 -1.8247
 9077TIP3    H248723   1.810   2.357  11.071 -0.5451  0.3642 -1.0651
 9078TIP3   OH248724   3.601   5.454  16.360 -0.6821  0.0394  0.0422
 9078TIP3    H148725   3.669   5.519  16.341 -0.1084 -0.5113  0.2316
 9078TIP3    H248726   3.644   5.370  16.347 -1.5696 -0.3089 -0.7069
 9079TIP3   OH248727   0.306   0.409  10.847  0.2160  0.7289  0.5849
 9079TIP3    H148728   0.389   0.424  10.892  1.6038 -1.0497 -1.2961
 9079TIP3    H248729   0.276   0.324  10.880  0.4177  0.1884 -0.5963
 9080TIP3   OH248730   3.741   6.149   2.063 -0.3030 -0.1184  0.0274
 9080TIP3    H148731   3.706   6.238   2.067  0.5551  0.2464 -0.4874
 9080TIP3    H248732   3.709   6.114   1.979  0.8565  0.3399 -0.6079
 9081TIP3   OH248733   2.731   0.402  11.710 -0.5292  0.3407  0.8061
 9081TIP3    H148734   2.825   0.409  11.728 -0.7323 -0.4912  2.2837
 9081TIP3    H248735   2.692   0.475  11.759 -0.5165  1.6234 -1.0531
 9082TIP3   OH248736   0.010   1.889  14.498  0.3081 -0.1878  0.5039
 9082TIP3    H148737   0.041   1.838  14.574 -0.2388 -0.1498  0.7548
 9082TIP3    H248738   0.046   1.977  14.512  0.0806 -0.1406  0.8025
 9083TIP3   OH248739   5.650   4.076   5.133  0.0499  0.5204  0.6508
 9083TIP3    H148740   5.712   4.036   5.194 -1.1834  0.8121  2.1526
 9083TIP3    H248741   5.683   4.054   5.046  2.5879  1.2461  1.4172
 9084TIP3   OH248742   2.617   5.718  12.230 -0.0210  0.2918  0.0030
 9084TIP3    H148743   2.654   5.688  12.147 -0.2276  0.5089 -0.1735
 9084TIP3    H248744   2.525   5.735  12.210 -0.2296 -0.3114  0.4509
 9085TIP3   OH248745   1.428   6.600  13.311 -0.4099 -0.1277 -0.5864
 9085TIP3    H148746   1.492   6.529  13.321 -1.1815 -0.6440  0.9750
 9085TIP3    H248747   1.477   6.671  13.269  1.2335 -0.4461  0.7262
 9086TIP3   OH248748   0.913   6.281  15.374  0.3967 -0.0524  0.0350
 9086TIP3    H148749   0.999   6.249  15.345 -0.7010 -0.7902 -2.5458
 9086TIP3    H248750   0.889   6.224  15.447  0.9573 -1.5026 -0.9024
 9087TIP3   OH248751   5.014   4.236  16.320  0.5205  0.2306  0.1936
 9087TIP3    H148752   4.977   4.322  16.300 -0.9427 -0.3857  0.1700
 9087TIP3    H248753   5.098   4.255  16.361  1.5240  1.6366 -2.3856
 9088TIP3   OH248754   2.092   5.565   2.372 -0.2803  0.1351 -0.5276
 9088TIP3    H148755   2.086   5.622   2.295  2.7722  0.5113 -0.5459
 9088TIP3    H248756   2.172   5.595   2.417 -0.2491 -2.2203  1.0311
 9089TIP3   OH248757   5.676   5.383   0.092  0.2778 -0.6217 -0.0810
 9089TIP3    H148758   5.657   5.475   0.112  0.6390 -0.3086 -1.1248
 9089TIP3    H248759   5.593   5.348   0.061 -0.1921 -1.0117  1.5590
 9090TIP3   OH248760   6.010   1.952   3.204  0.3199 -0.6340 -0.0320
 9090TIP3    H148761   6.064   1.932   3.127  0.7199 -0.8954  0.3122
 9090TIP3    H248762   6.073   1.980   3.271 -0.0153 -0.5151  0.2365
 9091TIP3   OH248763   4.083   6.093  16.622  0.0406 -0.1662  0.4038
 9091TIP3    H148764   4.100   6.136  16.538 -0.6601  0.9730  0.8349
 9091TIP3    H248765   3.987   6.087  16.627  0.1071 -1.1033  0.6858
 9092TIP3   OH248766   5.039   2.589   0.711 -0.3927  0.3327  0.1761
 9092TIP3    H148767   4.989   2.566   0.789 -0.7895  0.2183 -0.1102
 9092TIP3    H248768   5.071   2.505   0.677  0.8093  0.4871  0.9001
 9093TIP3   OH248769   3.628   5.256  13.674  0.1325  0.2951 -0.7040
 9093TIP3    H148770   3.557   5.267  13.737 -1.4695  0.3152 -2.4731
 9093TIP3    H248771   3.650   5.345  13.647  0.7791  0.2850 -0.1930
 9094TIP3   OH248772   0.478   1.027   1.635 -0.1861 -0.6162 -0.2070
 9094TIP3    H148773   0.468   1.090   1.707  0.5843  0.9546 -1.4684
 9094TIP3    H248774   0.460   1.077   1.556  0.1908 -2.0512 -1.2180
 9095TIP3   OH248775   3.210   6.227   4.055  0.1999  0.1398 -0.1123
 9095TIP3    H148776   3.215   6.194   3.965  2.6238 -0.3553  0.1798
 9095TIP3    H248777   3.259   6.309   4.053 -1.8614  1.4380  0.2358
 9096TIP3   OH248778   4.697   2.722  14.057  0.0801 -0.1550  0.6951
 9096TIP3    H148779   4.780   2.770  14.063 -1.1085  2.2387 -1.4094
 9096TIP3    H248780   4.718   2.647  14.002  0.4907  1.3504 -1.2545
 9097TIP3   OH248781   2.106   3.084  17.108  0.2131 -0.7617  0.2075
 9097TIP3    H148782   2.095   3.005  17.161  2.5066 -0.5254  1.0894
 9097TIP3    H248783   2.195   3.077  17.073  0.4496  1.4344  0.3176
 9098TIP3   OH248784   0.273   0.531   0.017  0.3283 -0.3670 -0.6251
 9098TIP3    H148785   0.206   0.486   0.069 -0.2853  1.9132  0.6402
 9098TIP3    H248786   0.225   0.569  -0.056  0.2785  0.8856  0.0377
 9099TIP3   OH248787   0.230   2.984   6.527  0.5125 -0.2481  0.4982
 9099TIP3    H148788   0.204   2.907   6.476  0.4362  0.4048 -0.4697
 9099TIP3    H248789   0.239   2.952   6.617 -1.9766 -0.8614  0.5590
 9100TIP3   OH248790   0.790   2.664  17.051 -0.2501  0.0518 -0.5160
 9100TIP3    H148791   0.773   2.705  17.136  0.7682  0.3716 -0.4530
 9100TIP3    H248792   0.872   2.616  17.063  0.0383  0.3065 -1.3841
 9101TIP3   OH248793   6.485   2.631   0.319 -0.0963 -0.2349 -0.5732
 9101TIP3    H148794   6.513   2.713   0.361 -0.3054  0.2116 -1.3057
 9101TIP3    H248795   6.389   2.632   0.325 -0.1247 -0.1914 -1.0208
 9102TIP3   OH248796   3.289   1.863   2.006  0.1871  0.2864 -0.2746
 9102TIP3    H148797   3.318   1.947   1.972  0.4449 -0.2477 -1.3987
 9102TIP3    H248798   3.362   1.804   1.989 -1.0469 -0.8014 -2.0785
 9103TIP3   OH248799   3.627   4.608   5.594 -0.7693 -0.3245  0.0383
 9103TIP3    H148800   3.550   4.658   5.620 -0.8028  0.0333 -0.7297
 9103TIP3    H248801   3.700   4.669   5.603 -0.4116 -0.9773  1.7995
 9104TIP3   OH248802   0.748   3.027  11.122  0.5443 -1.0809  0.0676
 9104TIP3    H148803   0.687   3.096  11.147 -0.1894 -1.2311 -1.2463
 9104TIP3    H248804   0.746   3.026  11.026  2.8520 -0.8931 -0.0249
 9105TIP3   OH248805   0.863   4.809   1.624 -0.1288 -0.3547 -0.1377
 9105TIP3    H148806   0.778   4.767   1.610  0.2473 -0.8896 -0.8421
 9105TIP3    H248807   0.895   4.828   1.536 -0.4470  1.7407  0.1778
 9106TIP3   OH248808   1.446   0.688  15.293  0.0049 -0.1421  0.4222
 9106TIP3    H148809   1.500   0.629  15.241  0.8433  1.1598 -0.2097
 9106TIP3    H248810   1.432   0.765  15.236 -1.0808  0.2715  1.2174
 9107TIP3   OH248811   3.182   2.949  15.410 -0.9090 -0.4180 -0.3289
 9107TIP3    H148812   3.227   3.032  15.397 -0.4176 -0.4824  0.9041
 9107TIP3    H248813   3.109   2.970  15.468 -2.0380 -0.4645 -1.6939
 9108TIP3   OH248814   4.598   0.155  14.872 -0.0939 -0.2617  0.4883
 9108TIP3    H148815   4.656   0.210  14.925 -0.3467 -0.0235  0.5143
 9108TIP3    H248816   4.517   0.204  14.866 -0.8658 -1.3446  1.8269
 9109TIP3   OH248817   3.708   3.571  14.044  0.3978  0.3696 -0.5657
 9109TIP3    H148818   3.732   3.657  14.080  2.8144 -0.4435 -0.0919
 9109TIP3    H248819   3.637   3.540  14.100  2.1970  0.3617  1.7862
 9110TIP3   OH248820   2.402   2.998   3.389 -0.4863 -0.0278 -0.2068
 9110TIP3    H148821   2.331   2.956   3.438 -1.3689  1.8789  0.1872
 9110TIP3    H248822   2.402   2.953   3.304 -0.3204 -1.9225  0.7547
 9111TIP3   OH248823   3.376   3.261  13.417  0.0922  0.4132  0.3288
 9111TIP3    H148824   3.311   3.305  13.362  0.0279 -1.1733 -0.9100
 9111TIP3    H248825   3.458   3.271  13.369  0.5281  1.2682  1.2394
 9112TIP3   OH248826   1.460   0.342  16.528 -0.1574 -0.5983  0.4329
 9112TIP3    H148827   1.496   0.420  16.487  1.1442 -0.9510  0.8707
 9112TIP3    H248828   1.411   0.298  16.459 -2.0631  1.3002  0.5305
 9113TIP3   OH248829   1.651   4.589   5.066  0.5984  0.2926  0.1292
 9113TIP3    H148830   1.621   4.600   5.156  0.4175  0.0677  0.0958
 9113TIP3    H248831   1.615   4.505   5.038  2.2503 -0.5512  0.4870
 9114TIP3   OH248832   6.786   0.645   3.875 -0.4374  0.2835 -0.4769
 9114TIP3    H148833   6.848   0.612   3.810 -1.0153 -0.7690 -0.4954
 9114TIP3    H248834   6.790   0.581   3.947 -0.8017  0.7190 -0.0663
 9115TIP3   OH248835   1.338   3.369  13.268 -0.2917  0.7504 -0.2980
 9115TIP3    H148836   1.393   3.290  13.268 -0.7294  0.4359  0.6563
 9115TIP3    H248837   1.355   3.410  13.183 -0.0124 -0.3449 -0.7815
 9116TIP3   OH248838   0.457   0.671  12.597  0.3931 -0.5175  0.3924
 9116TIP3    H148839   0.486   0.741  12.537 -1.1376 -0.2407 -0.0458
 9116TIP3    H248840   0.375   0.641  12.559  1.5585 -3.3196 -0.0123
 9117TIP3   OH248841   4.078   4.708  14.485  0.9839 -0.2311  0.2581
 9117TIP3    H148842   4.095   4.788  14.435 -0.0607 -0.6240 -0.7450
 9117TIP3    H248843   4.145   4.647  14.456  0.0528 -0.6334 -1.0755
 9118TIP3   OH248844   3.830   5.721  15.670 -0.3527  0.0321  0.5923
 9118TIP3    H148845   3.810   5.656  15.602 -0.4392 -0.9325  1.5258
 9118TIP3    H248846   3.867   5.670  15.742 -0.0978  1.0678  1.2083
 9119TIP3   OH248847   6.212   2.576   0.908 -0.1245  0.3444 -0.0151
 9119TIP3    H148848   6.119   2.555   0.918 -0.2154  0.1156 -1.2724
 9119TIP3    H248849   6.232   2.633   0.983 -1.3961  0.8265 -0.0313
 9120TIP3   OH248850   1.445   6.498  11.610  0.6036  0.0182  0.0050
 9120TIP3    H148851   1.462   6.568  11.673  0.9854 -0.1180  0.0573
 9120TIP3    H248852   1.425   6.422  11.665  1.0131 -0.1201 -0.0372
 9121TIP3   OH248853   4.476   3.777   3.381 -0.5694  0.4860  0.4999
 9121TIP3    H148854   4.407   3.743   3.439  1.6724 -0.8534  2.4888
 9121TIP3    H248855   4.468   3.872   3.387 -1.5096  0.3437  1.6514
 9122TIP3   OH248856   4.583   4.829   4.381  0.3823  0.2244  0.2423
 9122TIP3    H148857   4.495   4.822   4.418 -0.2332  1.1729 -0.9733
 9122TIP3    H248858   4.581   4.770   4.305  0.9792 -0.1657  0.5245
 9123TIP3   OH248859   0.855   6.544  13.759 -0.6026  0.4914 -0.2752
 9123TIP3    H148860   0.874   6.517  13.669 -0.5854  1.3228 -0.5215
 9123TIP3    H248861   0.768   6.508  13.777  0.0149 -0.9286 -0.1145
 9124TIP3   OH248862   3.131   5.998  12.679  0.0208  0.2181 -0.2684
 9124TIP3    H148863   3.163   5.917  12.719  0.7387  1.4138  1.6653
 9124TIP3    H248864   3.037   5.998  12.697  0.6175  1.7123  3.3760
 9125TIP3   OH248865   5.120   3.366   6.380 -0.2762  0.0247 -0.2492
 9125TIP3    H148866   5.168   3.283   6.375  0.1875  0.3141 -0.5280
 9125TIP3    H248867   5.035   3.341   6.417 -0.1157 -0.5675 -0.2690
 9126TIP3   OH248868   5.536   5.464  12.322 -0.1031  0.2330 -0.4336
 9126TIP3    H148869   5.610   5.473  12.263 -0.6857 -0.8208 -1.3573
 9126TIP3    H248870   5.548   5.378  12.363  0.1741  0.8562  0.8245
 9127TIP3   OH248871   5.494   0.319   1.610  0.0928 -0.7156 -0.2275
 9127TIP3    H148872   5.401   0.319   1.632  0.2224 -1.1808  0.3607
 9127TIP3    H248873   5.521   0.410   1.617 -0.1463 -0.6878  0.4057
 9128TIP3   OH248874   1.430   2.694   3.561 -0.4228 -0.4521  0.1206
 9128TIP3    H148875   1.430   2.659   3.651  3.5053  1.3548  0.9363
 9128TIP3    H248876   1.434   2.789   3.572  1.8627 -0.2573 -1.8677
 9129TIP3   OH248877   0.883   0.597  14.213  0.7048 -0.0310 -0.3788
 9129TIP3    H148878   0.799   0.624  14.176  0.0701  0.2330  1.2249
 9129TIP3    H248879   0.892   0.504  14.190 -0.0884 -0.0863 -0.4498
 9130TIP3   OH248880   2.000   5.506  11.357  0.1371 -0.4486  0.5024
 9130TIP3    H148881   1.931   5.457  11.401 -1.4878  0.3774 -1.0442
 9130TIP3    H248882   1.977   5.500  11.264  2.2238 -0.2564 -0.0461
 9131TIP3   OH248883   2.044   5.036  15.146 -0.3154  0.3437  0.4731
 9131TIP3    H148884   2.047   4.943  15.168  1.9026  0.1284 -0.5877
 9131TIP3    H248885   2.134   5.067  15.161 -0.7272  2.0232 -0.3880
 9132TIP3   OH248886   2.786   3.846  13.598  0.0752 -0.0076 -0.3238
 9132TIP3    H148887   2.850   3.911  13.626 -0.0434  0.0340 -0.1489
 9132TIP3    H248888   2.727   3.836  13.673 -0.2253  0.0825 -0.5448
 9133TIP3   OH248889   4.061   2.269  15.042  0.0707  0.8583 -0.1498
 9133TIP3    H148890   4.097   2.221  15.117 -3.8862  0.3795  1.5815
 9133TIP3    H248891   4.082   2.361  15.061  1.8305  0.4727 -0.0953
 9134TIP3   OH248892   6.709   0.067  16.739  0.0994 -0.2655 -0.3512
 9134TIP3    H148893   6.629   0.051  16.690  0.7607 -1.6041 -1.0275
 9134TIP3    H248894   6.758   0.130  16.686 -0.4028  0.3967 -0.0357
 9135TIP3   OH248895   5.376   5.287   3.612 -0.1443 -0.0219  0.2170
 9135TIP3    H148896   5.309   5.340   3.569 -0.8702 -0.6237  0.5938
 9135TIP3    H248897   5.429   5.252   3.541 -0.8892 -0.4125 -0.1510
 9136TIP3   OH248898   3.801   2.907   5.798 -0.5403  0.2817 -0.0235
 9136TIP3    H148899   3.782   2.918   5.891 -0.9119  0.3342 -0.1057
 9136TIP3    H248900   3.769   2.987   5.757 -0.3379  0.2770 -0.1930
 9137TIP3   OH248901   2.514   3.266   0.697 -0.4039  0.2645 -0.0757
 9137TIP3    H148902   2.540   3.179   0.726 -0.3870 -0.0896 -1.1127
 9137TIP3    H248903   2.437   3.251   0.643 -0.5142  0.9110 -0.0994
 9138TIP3   OH248904   1.377   5.620  12.603 -0.4589 -0.4825 -0.0797
 9138TIP3    H148905   1.394   5.527  12.618  0.9171 -0.2704 -0.2309
 9138TIP3    H248906   1.452   5.665  12.641 -1.1739  0.5866  0.1044
 9139TIP3   OH248907   4.028   4.715   3.555 -0.0343 -0.2833 -0.1335
 9139TIP3    H148908   4.043   4.717   3.460 -0.3918 -0.1570 -0.1882
 9139TIP3    H248909   3.933   4.721   3.564 -0.0664 -1.1754  0.1987
 9140TIP3   OH248910   0.907   0.440  13.469 -0.1470 -0.1608  0.1409
 9140TIP3    H148911   0.919   0.433  13.375  1.0807 -0.0026  0.2833
 9140TIP3    H248912   0.909   0.350  13.501 -5.8699 -0.7542 -0.5647
 9141TIP3   OH248913   1.153   3.229  11.563 -0.0097 -0.2433 -0.1449
 9141TIP3    H148914   1.197   3.224  11.648 -2.3865 -0.3089  1.1159
 9141TIP3    H248915   1.154   3.138  11.530  0.9604 -0.2063 -0.2432
 9142TIP3   OH248916   0.738   1.886  12.890 -0.4053 -0.1888 -0.5995
 9142TIP3    H148917   0.708   1.962  12.940  2.1554 -1.3155  2.8391
 9142TIP3    H248918   0.677   1.879  12.817 -2.7837  3.0467  0.9916
 9143TIP3   OH248919   4.016   3.536  16.029 -0.4467  0.0201 -0.2558
 9143TIP3    H148920   3.928   3.573  16.034 -0.9061 -1.0268 -0.3487
 9143TIP3    H248921   4.064   3.594  15.969  0.0560  2.7788  2.6619
 9144TIP3   OH248922   2.317   1.032   1.896  0.4001 -0.2754  0.3762
 9144TIP3    H148923   2.397   1.004   1.850 -0.3739 -2.1974  0.1637
 9144TIP3    H248924   2.246   0.995   1.845 -0.6053  0.6384  1.1020
 9145TIP3   OH248925   1.384   2.068  15.992 -0.0190 -0.0551 -0.2873
 9145TIP3    H148926   1.460   2.094  15.940  1.6825 -0.8096  1.7361
 9145TIP3    H248927   1.345   2.150  16.021  0.7586  0.3269 -0.3167
 9146TIP3   OH248928   1.430   0.492  12.222  0.1871 -0.2215 -0.2443
 9146TIP3    H148929   1.384   0.427  12.276  0.5028  0.2283  0.5765
 9146TIP3    H248930   1.503   0.521  12.276 -1.0042  2.1701  0.1512
 9147TIP3   OH248931   3.050   2.138   1.785  1.2111  0.6196 -0.0060
 9147TIP3    H148932   2.991   2.208   1.757 -1.0389 -0.4476  1.8388
 9147TIP3    H248933   3.060   2.083   1.707 -1.8773 -0.2144  0.0771
 9148TIP3   OH248934   2.068   1.051  14.344 -0.1421  0.0553  0.3908
 9148TIP3    H148935   2.125   0.984  14.380  0.6738 -0.5904 -2.0000
 9148TIP3    H248936   2.110   1.134  14.366  1.7168 -0.4089 -1.2643
 9149TIP3   OH248937   4.177   1.385  15.911 -0.1837 -0.1468 -0.2089
 9149TIP3    H148938   4.205   1.358  15.824  0.8647  0.6224 -0.1277
 9149TIP3    H248939   4.144   1.474  15.899 -0.7761 -0.3264  0.0490
 9150TIP3   OH248940   5.458   0.670   2.110  0.2236  0.4457  0.1765
 9150TIP3    H148941   5.483   0.728   2.182 -1.8288  0.8037  0.6260
 9150TIP3    H248942   5.405   0.725   2.052  0.6404 -0.2270 -0.8561
 9151TIP3   OH248943   3.920   3.047  14.616  0.9916  0.3739 -0.3531
 9151TIP3    H148944   3.944   3.106  14.688  3.1371 -1.8513  0.8376
 9151TIP3    H248945   3.998   3.044  14.560  1.0004 -1.5062 -0.2672
 9152TIP3   OH248946   1.597   1.565  16.205 -0.1044  0.0813  0.4233
 9152TIP3    H148947   1.522   1.563  16.265 -1.1405  0.2961 -0.8382
 9152TIP3    H248948   1.591   1.481  16.158 -0.3311  0.6547 -0.5914
 9153TIP3   OH248949   2.676   5.442   1.521 -0.1380 -0.5793  0.0109
 9153TIP3    H148950   2.605   5.387   1.555  0.2856 -1.7817 -0.9822
 9153TIP3    H248951   2.745   5.436   1.587 -0.8819  0.4387  0.8898
 9154TIP3   OH248952   6.674   3.373   4.061  0.4956  0.3725  0.0296
 9154TIP3    H148953   6.688   3.292   4.110  1.3844 -0.8916 -2.2389
 9154TIP3    H248954   6.580   3.372   4.039  0.4513  0.1050  0.2329
 9155TIP3   OH248955   1.590   3.893   2.331  0.0045  0.3247  0.0573
 9155TIP3    H148956   1.584   3.926   2.421 -0.6496  0.5712 -0.0726
 9155TIP3    H248957   1.604   3.971   2.278  0.6483  0.1499 -0.0261
 9156TIP3   OH248958   5.813   1.325  12.971  0.0768  0.0093 -0.2128
 9156TIP3    H148959   5.753   1.276  12.914  0.2110  0.6441 -0.9041
 9156TIP3    H248960   5.847   1.259  13.032 -1.4333 -0.3323  0.2922
 9157TIP3   OH248961   0.492   2.900  15.809 -0.5226  0.4301  0.1586
 9157TIP3    H148962   0.555   2.828  15.805  0.0915  0.9082  1.0595
 9157TIP3    H248963   0.537   2.969  15.858 -0.9007  1.6493 -1.1632
 9158TIP3   OH248964   6.675   1.553   0.076 -0.3241 -0.2275 -0.1689
 9158TIP3    H148965   6.618   1.572   0.150 -1.6351 -2.5303 -0.5277
 9158TIP3    H248966   6.642   1.608   0.005  0.2154  1.1393  0.6243
 9159TIP3   OH248967   4.121   4.413   0.656 -0.5340  0.3595 -0.5144
 9159TIP3    H148968   4.181   4.338   0.661 -2.4408 -1.2795 -1.3965
 9159TIP3    H248969   4.173   4.482   0.615  2.0664  0.4050  2.6139
 9160TIP3   OH248970   1.140   4.596   1.686 -0.1513 -0.5336  0.3039
 9160TIP3    H148971   1.048   4.623   1.690  0.0037 -0.0731  0.8164
 9160TIP3    H248972   1.138   4.509   1.646 -0.6264  0.4027 -1.7971
 9161TIP3   OH248973   4.842   0.308  17.168  0.4105  0.0690 -0.3343
 9161TIP3    H148974   4.935   0.330  17.160 -0.1193  1.6250 -2.5221
 9161TIP3    H248975   4.802   0.388  17.204 -0.1056 -0.5380  0.4453
 9162TIP3   OH248976   2.649   6.770   2.547 -0.0671  0.6475 -0.3440
 9162TIP3    H148977   2.712   6.796   2.480  1.5745  1.2312  1.3889
 9162TIP3    H248978   2.688   6.798   2.630 -1.2223 -1.6120  1.0405
 9163TIP3   OH248979   2.238   4.581  13.913 -0.2852  0.2397  0.6077
 9163TIP3    H148980   2.251   4.668  13.876 -2.3012  0.0989 -0.5218
 9163TIP3    H248981   2.322   4.558  13.953  1.4419  1.1261 -2.3970
 9164TIP3   OH248982   6.011   6.181   0.292 -0.3829 -0.1916 -0.5741
 9164TIP3    H148983   5.963   6.230   0.358 -1.7808 -0.0326 -1.6606
 9164TIP3    H248984   6.088   6.148   0.337 -0.7830  0.7726  0.8529
 9165TIP3   OH248985   6.499   2.931  14.329  0.8441  0.4138 -0.7156
 9165TIP3    H148986   6.489   3.008  14.272 -0.8622  0.1272 -0.8511
 9165TIP3    H248987   6.473   2.857  14.274  1.0162 -0.0891 -0.1286
 9166TIP3   OH248988   6.461   4.539   2.874  0.0683 -0.3792 -0.1564
 9166TIP3    H148989   6.519   4.574   2.806 -0.2550 -1.5056 -1.0348
 9166TIP3    H248990   6.509   4.552   2.956  1.7326 -1.5991 -0.8996
 9167TIP3   OH248991   4.254   2.364  15.240  0.0297 -0.2200  0.1795
 9167TIP3    H148992   4.324   2.370  15.305  0.2163 -0.6752  0.0194
 9167TIP3    H248993   4.296   2.387  15.157  0.1172 -1.0221 -0.0019
 9168TIP3   OH248994   2.607   4.997  13.390  0.0524  0.0834  0.2448
 9168TIP3    H148995   2.524   5.044  13.396  0.0375  0.1909 -0.7003
 9168TIP3    H248996   2.585   4.905  13.403  0.2093  0.4097  3.0941
 9169TIP3   OH248997   3.102   3.541  16.045  0.0030  0.1922 -0.5858
 9169TIP3    H148998   3.152   3.621  16.062  0.9221 -0.5704  0.3655
 9169TIP3    H248999   3.012   3.571  16.030  0.2235  1.3546  0.3817
 9170TIP3   OH249000   1.454   2.178   0.264 -0.0322  0.2371 -0.2589
 9170TIP3    H149001   1.396   2.103   0.279 -0.8107  0.9354  0.2851
 9170TIP3    H249002   1.465   2.217   0.351 -0.2976  1.2329 -0.6753
 9171TIP3   OH249003   1.176   0.965   5.331 -0.1059 -0.1519  0.0809
 9171TIP3    H149004   1.249   0.980   5.270 -0.4231  0.5636 -0.1242
 9171TIP3    H249005   1.127   0.893   5.291  0.2533 -0.3605  0.0084
 9172TIP3   OH249006   6.584   2.173  13.820 -0.0092  0.4119  0.1205
 9172TIP3    H149007   6.567   2.261  13.787  0.9548  0.8056  0.6465
 9172TIP3    H249008   6.527   2.116  13.769 -0.1396  1.2714 -0.6940
 9173TIP3   OH249009   2.896   0.900   1.389 -0.0111  0.1813 -0.0313
 9173TIP3    H149010   2.989   0.881   1.376 -0.5643 -2.4112 -0.5646
 9173TIP3    H249011   2.891   0.940   1.475  1.5229 -0.3156  0.3076
 9174TIP3   OH249012   6.519   5.323   4.820 -0.6201 -0.5961  0.4057
 9174TIP3    H149013   6.425   5.318   4.800 -0.6010  2.4791 -0.6998
 9174TIP3    H249014   6.521   5.333   4.916 -1.4741  0.0605  0.3684
 9175TIP3   OH249015   2.101   4.086  11.156 -0.0718  0.3791  0.2189
 9175TIP3    H149016   2.059   4.171  11.168  1.6110  1.2021  0.3093
 9175TIP3    H249017   2.062   4.030  11.224 -0.0457  1.4966  1.1678
 9176TIP3   OH249018   4.316   0.419  16.844 -0.1722 -0.1988  0.3572
 9176TIP3    H149019   4.331   0.507  16.879  1.6638  0.6246 -2.3735
 9176TIP3    H249020   4.401   0.376  16.847 -0.9239 -1.7178  1.0673
 9177TIP3   OH249021   3.558   4.162  11.273  0.0423 -0.5486  0.5078
 9177TIP3    H149022   3.463   4.151  11.263 -0.3165  1.3134  1.6911
 9177TIP3    H249023   3.591   4.073  11.288 -1.4205 -1.2940 -0.6151
 9178TIP3   OH249024   5.640   0.448  14.501 -1.1387  0.0670 -0.3973
 9178TIP3    H149025   5.580   0.473  14.572 -0.7483 -0.2782  0.0557
 9178TIP3    H249026   5.586   0.394  14.443 -1.9761  1.9069 -1.3624
 9179TIP3   OH249027   2.949   4.300   2.164  0.2044  0.4074 -0.4325
 9179TIP3    H149028   2.895   4.307   2.085 -0.5583 -0.2408  0.0274
 9179TIP3    H249029   3.010   4.229   2.145 -2.3400 -2.2377  0.9127
 9180TIP3   OH249030   1.079   5.909  11.971 -0.5476 -0.2349 -0.4768
 9180TIP3    H149031   1.039   5.934  12.055 -0.2309 -0.0654 -0.3758
 9180TIP3    H249032   1.076   5.989  11.918 -0.3064 -0.2082 -0.4531
 9181TIP3   OH249033   1.095   5.276   5.440  0.0143  0.2605 -0.2106
 9181TIP3    H149034   1.140   5.201   5.477 -1.0723 -0.3380 -0.0919
 9181TIP3    H249035   1.076   5.332   5.515  0.0580  0.2500 -0.1921
 9182TIP3   OH249036   3.221   6.027  14.054 -0.0288  0.3140 -0.0822
 9182TIP3    H149037   3.268   6.006  13.973  0.0871 -0.9371  0.2881
 9182TIP3    H249038   3.255   5.964  14.118 -1.5201 -0.0002  0.4312
 9183TIP3   OH249039   0.238   2.143  14.824 -0.2438 -0.3409  0.3717
 9183TIP3    H149040   0.291   2.220  14.844 -2.4602  1.2613  0.2573
 9183TIP3    H249041   0.299   2.083  14.781  1.1416  2.0050 -1.0721
 9184TIP3   OH249042   1.695   1.742  13.881  0.4933 -0.5982  0.0367
 9184TIP3    H149043   1.747   1.692  13.942 -0.8463 -1.3339  0.5927
 9184TIP3    H249044   1.609   1.700  13.882 -0.1404  0.6359 -0.7903
 9185TIP3   OH249045   3.300   4.614   1.030  0.0964 -0.0536  0.9858
 9185TIP3    H149046   3.279   4.703   1.001 -1.5735 -0.3664  1.1549
 9185TIP3    H249047   3.353   4.625   1.108  0.9746  0.7955  0.2796
 9186TIP3   OH249048   0.289   0.266  14.334 -0.5148  0.2310  0.0038
 9186TIP3    H149049   0.354   0.332  14.315  0.7644 -0.7417  0.9193
 9186TIP3    H249050   0.310   0.193  14.275 -1.0765  0.1079 -0.0523
 9187TIP3   OH249051   6.675   6.452   1.336 -0.3979  0.4230 -0.5101
 9187TIP3    H149052   6.706   6.522   1.279  1.7385 -0.2965 -0.2893
 9187TIP3    H249053   6.739   6.449   1.407 -1.3923 -0.6487  0.3669
 9188TIP3   OH249054   3.059   5.388  15.044  0.0950  0.3348 -0.1905
 9188TIP3    H149055   3.117   5.458  15.073  0.7267  0.3050 -1.3710
 9188TIP3    H249056   2.973   5.429  15.037  0.8564  1.5415 -2.9316
 9189TIP3   OH249057   0.974   6.417  11.948  0.0487  0.7429 -1.3917
 9189TIP3    H149058   0.980   6.328  11.916 -1.1960  0.5406 -1.1119
 9189TIP3    H249059   0.939   6.408  12.037  3.3303  1.2913  0.0212
 9190TIP3   OH249060   5.009   5.772  16.585  0.5172  0.0070 -0.0668
 9190TIP3    H149061   4.982   5.701  16.528  0.4662  0.4902 -0.6443
 9190TIP3    H249062   4.961   5.757  16.667 -1.3874  0.7607 -1.0189
 9191TIP3   OH249063   2.549   2.096   4.525  0.2208  0.5551  0.5467
 9191TIP3    H149064   2.638   2.072   4.500  0.0625 -0.0046  0.5152
 9191TIP3    H249065   2.560   2.173   4.581  0.6123  1.5835 -0.9077
 9192TIP3   OH249066   3.110   2.791  16.446 -0.4272 -0.5520 -0.4210
 9192TIP3    H149067   3.135   2.878  16.416 -1.8762 -0.0054 -0.0892
 9192TIP3    H249068   3.088   2.743  16.366 -0.3715 -0.3604 -0.5531
 9193TIP3   OH249069   0.466   5.401   4.358 -0.1021 -0.5016  0.3095
 9193TIP3    H149070   0.430   5.312   4.361  0.7468 -0.8356  0.5537
 9193TIP3    H249071   0.550   5.395   4.402 -0.6485  0.7213  1.5670
 9194TIP3   OH249072   4.539   1.425   5.665  0.0677 -0.7515  0.3351
 9194TIP3    H149073   4.544   1.442   5.571  2.3474 -0.9934  0.3618
 9194TIP3    H249074   4.504   1.505   5.703 -0.6165 -0.5620 -0.6933
 9195TIP3   OH249075   2.187   0.433  14.590 -0.3115 -0.2821  0.4703
 9195TIP3    H149076   2.204   0.342  14.615  0.5514  0.1594  1.5386
 9195TIP3    H249077   2.110   0.428  14.534 -0.2257 -1.6846  0.4461
 9196TIP3   OH249078   1.923   1.892   5.466  0.2608  0.0746 -0.5727
 9196TIP3    H149079   1.912   1.871   5.373 -0.3181 -0.6696 -0.3383
 9196TIP3    H249080   1.851   1.846   5.509 -2.1477  3.9084 -0.2512
 9197TIP3   OH249081   5.495   2.104  14.736 -0.2430 -0.8821 -0.0118
 9197TIP3    H149082   5.483   2.051  14.815  0.0445 -1.1207 -0.1250
 9197TIP3    H249083   5.461   2.190  14.759  1.7261 -0.3500  1.0733
 9198TIP3   OH249084   0.371   0.927  13.173  0.5306  0.1233 -0.1378
 9198TIP3    H149085   0.457   0.913  13.214  1.2589 -0.2713 -1.7646
 9198TIP3    H249086   0.385   0.999  13.112 -0.2474 -0.0965 -0.5746
 9199TIP3   OH249087   3.189   4.995  11.855  0.0368  0.7766 -0.5548
 9199TIP3    H149088   3.149   4.967  11.937 -0.3914  1.5259 -0.5018
 9199TIP3    H249089   3.116   5.013  11.796  0.3278  0.7375 -0.9316
 9200TIP3   OH249090   2.993   4.734   1.355  0.2726  0.7021 -0.0093
 9200TIP3    H149091   3.049   4.784   1.296  0.0177  1.0489  0.0413
 9200TIP3    H249092   2.908   4.777   1.350  0.1890  0.5910  0.4288
 9201TIP3   OH249093   2.048   0.329  15.065  0.2695  0.2536  0.2372
 9201TIP3    H149094   2.030   0.307  15.156  0.4936  1.2916  0.5479
 9201TIP3    H249095   1.985   0.279  15.014  0.5481 -0.8057  0.9285
 9202TIP3   OH249096   3.843   0.688  11.994  0.4712  0.0103  0.6291
 9202TIP3    H149097   3.748   0.676  11.994  0.0675  2.4577 -2.7207
 9202TIP3    H249098   3.877   0.609  11.952 -0.2945  0.2242 -0.4084
 9203TIP3   OH249099   1.368   5.856   0.276 -0.0086 -0.0075 -0.5569
 9203TIP3    H149100   1.328   5.938   0.306  2.0621  0.0455  2.2152
 9203TIP3    H249101   1.304   5.788   0.299 -1.8890  0.7883 -3.1865
 9204TIP3   OH249102   4.525   1.027   0.803 -0.0602  0.4809 -0.4491
 9204TIP3    H149103   4.554   1.044   0.893 -0.6107 -0.1346 -0.1487
 9204TIP3    H249104   4.545   1.108   0.755  1.1661  0.4511 -0.0083
 9205TIP3   OH249105   4.930   5.332  13.487 -0.0913 -0.3607 -0.2198
 9205TIP3    H149106   4.984   5.385  13.546 -0.5362 -0.0650 -0.0803
 9205TIP3    H249107   4.852   5.311  13.538 -1.8136  2.3437 -1.6722
 9206TIP3   OH249108   0.452   0.192  15.865 -0.3248  0.4557  0.0982
 9206TIP3    H149109   0.459   0.151  15.779 -1.7677 -2.6733  1.3936
 9206TIP3    H249110   0.462   0.286  15.848  2.2275 -0.3196 -3.0963
 9207TIP3   OH249111   0.926   3.079  16.733  0.0298  0.5073 -0.0832
 9207TIP3    H149112   0.853   3.024  16.762  0.5221  0.4103  1.0253
 9207TIP3    H249113   0.891   3.168  16.735 -0.3775  0.3598 -0.6041
 9208TIP3   OH249114   0.043   4.485   2.553  0.3238  0.3392 -0.0217
 9208TIP3    H149115  -0.032   4.441   2.512 -0.1328  0.3878  0.7538
 9208TIP3    H249116   0.105   4.415   2.572 -0.2270  0.0680  0.8334
 9209TIP3   OH249117   3.194   3.448   5.068  0.0647  0.0939  0.7166
 9209TIP3    H149118   3.179   3.377   5.130 -0.3908  0.6675  1.2708
 9209TIP3    H249119   3.252   3.410   5.002  0.9120 -0.4054  1.7181
 9210TIP3   OH249120   4.033   4.751  16.138  0.3028 -0.0968  0.3801
 9210TIP3    H149121   4.122   4.782  16.119 -0.2965  1.4075 -0.0902
 9210TIP3    H249122   4.030   4.744  16.233  0.8154  0.1948  0.4247
 9211TIP3   OH249123   5.338   6.584   5.627  0.1667  0.0710  0.2478
 9211TIP3    H149124   5.429   6.560   5.643  0.1514  0.0515  0.3077
 9211TIP3    H249125   5.295   6.574   5.712  0.0549 -0.1623  0.1640
 9212TIP3   OH249126   2.987   4.952   4.784 -0.4228 -0.1593  0.3865
 9212TIP3    H149127   2.908   5.005   4.790 -0.6458 -0.5512  0.9863
 9212TIP3    H249128   2.955   4.862   4.780 -0.0643 -0.2455 -0.9333
 9213TIP3   OH249129   5.170   5.021   3.050  0.3791 -0.5430  0.2310
 9213TIP3    H149130   5.264   5.038   3.056  0.2965 -0.3006  0.8973
 9213TIP3    H249131   5.164   4.928   3.030  0.7669 -0.5583  0.1800
 9214TIP3   OH249132   6.689   6.775  15.946 -0.3071  0.0327 -0.5273
 9214TIP3    H149133   6.612   6.774  16.003 -1.4482 -0.0941 -2.0381
 9214TIP3    H249134   6.750   6.834  15.989 -1.7815  1.1810  0.0262
 9215TIP3   OH249135   4.000   4.686  16.392  0.5515 -0.1078 -0.4274
 9215TIP3    H149136   3.913   4.655  16.416  0.9863 -2.1140 -1.3387
 9215TIP3    H249137   4.024   4.747  16.462 -0.4811 -1.5659  1.2404
 9216TIP3   OH249138   1.589   2.184  14.712 -0.3027  0.7399 -0.0195
 9216TIP3    H149139   1.576   2.237  14.633 -0.9230  0.4909 -0.0862
 9216TIP3    H249140   1.562   2.096  14.687  1.6452  0.1760 -0.1935
 9217TIP3   OH249141   0.974   4.532   1.384  0.8851  0.2452  0.2695
 9217TIP3    H149142   1.001   4.602   1.324  1.1859 -0.7580 -0.7765
 9217TIP3    H249143   0.879   4.524   1.370  1.0669 -0.4614 -0.5897
 9218TIP3   OH249144   0.865   1.740   2.281 -0.2509 -0.2681  0.2019
 9218TIP3    H149145   0.883   1.673   2.216 -1.0793 -0.1018 -0.2093
 9218TIP3    H249146   0.948   1.754   2.325  0.1256 -0.9512 -0.2883
 9219TIP3   OH249147   4.163   3.049  14.482  0.8103  0.0534 -0.1784
 9219TIP3    H149148   4.229   3.101  14.526 -0.0989 -1.4358  3.1006
 9219TIP3    H249149   4.199   2.960  14.480 -0.4343 -0.4785  0.2782
 9220TIP3   OH249150   1.961   6.193   1.463 -0.5171  0.0379  0.0108
 9220TIP3    H149151   1.977   6.195   1.557 -1.7670  1.1099  0.2039
 9220TIP3    H249152   2.034   6.243   1.425 -0.4736  0.3222  0.4700
 9221TIP3   OH249153   2.562   5.815  15.844  0.4126 -0.1313  0.0773
 9221TIP3    H149154   2.655   5.793  15.843  0.7001  0.9697  1.0346
 9221TIP3    H249155   2.542   5.829  15.937 -0.3442  1.1172 -0.2546
 9222TIP3   OH249156   3.150   3.553   4.074  0.5932 -0.2687  0.3230
 9222TIP3    H149157   3.162   3.585   3.984  1.9791  0.6110  0.8059
 9222TIP3    H249158   3.096   3.619   4.116  1.8005  0.4441  0.7608
 9223TIP3   OH249159   5.637   4.985   3.989 -0.8953  0.1117 -0.2642
 9223TIP3    H149160   5.547   5.018   3.994 -1.2858 -1.1196  1.0836
 9223TIP3    H249161   5.678   5.015   4.070 -0.0774  0.6477 -0.8638
 9224TIP3   OH249162   3.836   6.052  16.311  0.1979  0.4957 -0.1941
 9224TIP3    H149163   3.867   5.971  16.271 -1.1002 -0.5198  0.8015
 9224TIP3    H249164   3.885   6.122  16.267 -0.7171 -0.6136 -3.0476
 9225TIP3   OH249165   5.027   4.729  10.401  0.5213  0.2258  0.1529
 9225TIP3    H149166   4.959   4.721  10.334  0.0873 -0.3211  0.6595
 9225TIP3    H249167   5.058   4.639  10.414  1.7662  0.5476 -0.5203
 9226TIP3   OH249168   0.068   3.713  10.739 -0.2266 -0.6113  0.4070
 9226TIP3    H149169   0.143   3.773  10.739  0.5534 -1.5754  0.6574
 9226TIP3    H249170  -0.007   3.769  10.760 -0.0587  0.9126 -2.7951
 9227TIP3   OH249171   1.154   1.324   4.105  0.0391  0.0016 -0.1423
 9227TIP3    H149172   1.189   1.278   4.029 -1.7024 -0.9002 -0.4255
 9227TIP3    H249173   1.074   1.367   4.073 -0.7460 -0.4376  1.1725
 9228TIP3   OH249174   5.909   3.094   1.169  0.5131 -0.4728  0.8187
 9228TIP3    H149175   5.911   3.156   1.241 -0.2456  0.0324  0.4063
 9228TIP3    H249176   6.000   3.087   1.141  0.3790  1.8392 -0.3049
 9229TIP3   OH249177   5.228   0.002  14.077 -0.1620  0.0953  0.3109
 9229TIP3    H149178   5.178  -0.077  14.099 -0.5272  0.2317 -0.0121
 9229TIP3    H249179   5.267  -0.017  13.991 -0.3595  0.3140  0.1718
 9230TIP3   OH249180   6.327   1.897   6.241 -0.1380  0.3841 -0.1296
 9230TIP3    H149181   6.365   1.935   6.321 -2.0698 -2.2521  2.1776
 9230TIP3    H249182   6.249   1.949   6.225 -1.9139 -1.4756  2.0986
 9231TIP3   OH249183   3.774   5.407  12.765 -0.3250 -0.2291  0.1756
 9231TIP3    H149184   3.853   5.391  12.714  0.4777  1.1551  0.9459
 9231TIP3    H249185   3.745   5.320  12.792  0.3896 -0.8188 -0.9106
 9232TIP3   OH249186   1.924   2.133  16.880  0.2261  0.3637  0.2605
 9232TIP3    H149187   1.884   2.162  16.962  0.9376 -0.2826  0.8516
 9232TIP3    H249188   2.017   2.153  16.890  0.4418 -0.4453 -0.0537
 9233TIP3   OH249189   4.913   2.198  12.899  0.2971 -0.1319  0.6426
 9233TIP3    H149190   4.818   2.200  12.907  0.2105  0.7773 -0.4151
 9233TIP3    H249191   4.928   2.193  12.804  1.2812 -1.6711  0.8704
 9234TIP3   OH249192   3.009   5.782  13.518 -0.4011  0.3739  0.6511
 9234TIP3    H149193   2.994   5.821  13.432  0.1126 -0.9313 -0.0518
 9234TIP3    H249194   2.922   5.753  13.546 -0.3608 -0.5868 -0.1471
 9235TIP3   OH249195   1.007   0.934  16.328  0.5716  0.1820  0.4596
 9235TIP3    H149196   0.960   1.017  16.336 -0.1906 -0.1921 -0.0057
 9235TIP3    H249197   0.959   0.874  16.385 -1.3516 -0.9778 -2.2498
 9236TIP3   OH249198   2.070   5.992   5.399 -0.1682  0.3865 -0.4728
 9236TIP3    H149199   2.132   5.924   5.425  0.7234  1.2639 -0.2590
 9236TIP3    H249200   1.986   5.947   5.392  0.4404 -0.7617 -0.4870
 9237TIP3   OH249201   3.443   4.518  13.888  0.6087 -0.5757 -0.3646
 9237TIP3    H149202   3.482   4.597  13.850  1.6424 -1.2528 -0.7378
 9237TIP3    H249203   3.475   4.447  13.833 -1.0044 -1.1825 -0.5438
 9238TIP3   OH249204   4.894   5.242  11.327  0.6176 -0.4837  0.7368
 9238TIP3    H149205   4.921   5.329  11.298  0.4374 -0.9382 -0.8449
 9238TIP3    H249206   4.811   5.256  11.373  0.1478  0.0817 -0.2643
 9239TIP3   OH249207   0.502   6.627  10.949 -0.0912  0.2438  0.3393
 9239TIP3    H149208   0.471   6.559  11.008  1.4540 -0.6188  0.1914
 9239TIP3    H249209   0.475   6.597  10.862  1.7760 -0.9060  0.1239
 9240TIP3   OH249210   0.706   0.112   0.512  0.2533 -0.1281  0.4104
 9240TIP3    H149211   0.788   0.122   0.560  2.4990  0.8166 -3.4751
 9240TIP3    H249212   0.643   0.163   0.562  1.9706 -0.8530  3.4504
 9241TIP3   OH249213   5.973   1.623  14.803 -0.3241 -0.2279  0.1190
 9241TIP3    H149214   5.941   1.533  14.809  0.7522 -0.6098  0.2093
 9241TIP3    H249215   6.001   1.633  14.712  1.3492 -0.6075  0.5831
 9242TIP3   OH249216   1.545   0.902   1.350  0.0657  0.1616  0.3763
 9242TIP3    H149217   1.571   0.967   1.285  1.5937  0.1596  0.9535
 9242TIP3    H249218   1.594   0.823   1.325 -2.0025 -0.8845 -0.5044
 9243TIP3   OH249219   5.178   4.857   1.567 -0.1456  0.0883 -0.2352
 9243TIP3    H149220   5.210   4.930   1.513  1.3262 -0.2325  0.1888
 9243TIP3    H249221   5.188   4.887   1.657  0.8737 -0.8005 -0.0462
 9244TIP3   OH249222   3.791   6.178   2.974  0.3343  0.0370 -0.5420
 9244TIP3    H149223   3.862   6.167   2.910  1.0643  0.2471  0.2296
 9244TIP3    H249224   3.795   6.099   3.027 -0.2913 -0.1476 -0.7747
 9245TIP3   OH249225   3.940   4.374  13.141  0.5338  0.3609 -0.2452
 9245TIP3    H149226   3.902   4.386  13.054  1.0255  1.3901 -0.3349
 9245TIP3    H249227   3.869   4.391  13.202 -0.2598 -2.0609 -0.4492
 9246TIP3   OH249228   2.979   3.594  12.794  0.1084  0.4823 -0.0843
 9246TIP3    H149229   2.886   3.614  12.792 -0.1569 -0.6680  0.4812
 9246TIP3    H249230   2.984   3.506  12.832  1.4130  0.5066 -0.1814
 9247TIP3   OH249231   3.289   2.960   4.878  0.6892  0.2170  0.1838
 9247TIP3    H149232   3.281   2.868   4.853  2.4158  0.6688 -2.1973
 9247TIP3    H249233   3.382   2.972   4.896  0.6286  1.7445 -0.5071
 9248TIP3   OH249234   5.461   6.163  10.507  1.4318 -0.7047 -0.3757
 9248TIP3    H149235   5.419   6.203  10.431  0.8726 -0.5080  0.0297
 9248TIP3    H249236   5.473   6.236  10.569  1.0685 -1.0283  0.0782
 9249TIP3   OH249237   5.549   0.081  16.131  0.4469  0.2518  0.0436
 9249TIP3    H149238   5.542   0.070  16.225  0.7324  1.5294  0.2214
 9249TIP3    H249239   5.611   0.013  16.103  0.3514 -0.1306  0.7753
 9250TIP3   OH249240   2.958   5.931   5.565 -0.3250  0.6244 -0.2958
 9250TIP3    H149241   2.997   6.018   5.561 -1.7643  1.3413  0.6080
 9250TIP3    H249242   2.961   5.899   5.476  0.0160  1.7062 -0.6840
 9251TIP3   OH249243   1.880   2.406   2.346  0.2636 -0.0445  0.4671
 9251TIP3    H149244   1.946   2.392   2.279 -0.0960 -1.4692  0.3935
 9251TIP3    H249245   1.821   2.472   2.310 -0.8690 -1.9791 -1.3340
 9252TIP3   OH249246   3.558   5.239  11.553  1.0817  0.0105 -0.0546
 9252TIP3    H149247   3.493   5.263  11.619  0.3774 -3.1768  0.5029
 9252TIP3    H249248   3.518   5.264  11.470  1.0623  2.1146  0.5647
 9253TIP3   OH249249   6.549   5.996   1.742 -0.0526 -1.5167 -0.0310
 9253TIP3    H149250   6.528   5.937   1.815 -3.2868 -1.2864 -0.6827
 9253TIP3    H249251   6.523   6.083   1.773  0.6458 -1.0834 -0.6490
 9254TIP3   OH249252   0.011   3.605  12.586 -0.0620  0.5816 -0.3298
 9254TIP3    H149253   0.035   3.520  12.548  1.1184  0.8947 -0.3117
 9254TIP3    H249254  -0.007   3.586  12.678  1.0195  0.4665 -0.1287
 9255TIP3   OH249255   5.372   5.207   1.685  0.2796  0.3004  0.5797
 9255TIP3    H149256   5.391   5.141   1.619  1.4413  2.3663 -1.2471
 9255TIP3    H249257   5.408   5.172   1.766  0.4729 -1.4775 -0.2596
 9256TIP3   OH249258   1.151   4.471  11.665  0.8072  0.3902  0.7275
 9256TIP3    H149259   1.170   4.380  11.646 -0.9694  0.4674 -1.7414
 9256TIP3    H249260   1.236   4.513  11.672  1.6259 -1.1214  0.0183
 9257TIP3   OH249261   5.959   6.112   5.780  0.2215 -0.0458  0.5010
 9257TIP3    H149262   5.950   6.060   5.860 -0.8442 -0.6269  0.0069
 9257TIP3    H249263   6.048   6.094   5.750 -0.4098 -2.2728 -0.1335
 9258TIP3   OH249264   3.164   4.504   2.241  1.0965  0.0015  0.0318
 9258TIP3    H149265   3.106   4.475   2.311  1.7437  1.2406  1.0880
 9258TIP3    H249266   3.248   4.517   2.283  2.1659 -1.7517 -1.4907
 9259TIP3   OH249267   5.710   6.132   1.668  0.4259 -0.0866  0.0270
 9259TIP3    H149268   5.734   6.198   1.602  1.0863 -0.2493  0.0963
 9259TIP3    H249269   5.668   6.063   1.618  0.6226 -0.0554 -0.1846
 9260TIP3   OH249270   5.070   3.031  16.319  0.1760 -0.2324  0.1421
 9260TIP3    H149271   5.145   3.090  16.326 -0.5461  0.6907  0.2155
 9260TIP3    H249272   5.069   3.003  16.227 -0.0857  0.6944 -0.1442
 9261TIP3   OH249273   3.338   2.877   2.205  0.3961 -0.6254  0.4659
 9261TIP3    H149274   3.291   2.795   2.225  0.5804 -1.0763 -0.9255
 9261TIP3    H249275   3.313   2.936   2.276 -2.9069 -0.5850 -0.6748
 9262TIP3   OH249276   0.433   5.258  10.995  0.2912 -0.3230  0.4825
 9262TIP3    H149277   0.470   5.251  10.907  1.4596  0.6150  0.8841
 9262TIP3    H249278   0.483   5.196  11.047 -0.2939 -0.7615  0.5245
 9263TIP3   OH249279   5.227   3.189  12.405 -0.3381  0.3215  0.0421
 9263TIP3    H149280   5.144   3.220  12.441 -1.4423  0.6789 -2.6868
 9263TIP3    H249281   5.214   3.096  12.390  0.4848 -0.0472  1.4739
 9264TIP3   OH249282   0.690   1.979   0.384 -0.1565 -0.6041  0.0082
 9264TIP3    H149283   0.614   2.022   0.345 -1.8062 -2.2681  1.2821
 9264TIP3    H249284   0.655   1.931   0.458  2.5025  0.3657  1.9957
 9265TIP3   OH249285   2.864   0.580  17.188  0.1267  0.0049 -0.2816
 9265TIP3    H149286   2.889   0.506  17.132 -1.1505 -0.6707  0.0039
 9265TIP3    H249287   2.797   0.543  17.246 -1.9195  1.8423 -1.3967
 9266TIP3   OH249288   6.195   5.083   3.922 -0.6384  0.3191  0.1586
 9266TIP3    H149289   6.110   5.115   3.949 -0.4937 -0.0860  1.0981
 9266TIP3    H249290   6.176   4.998   3.880 -0.6262 -0.0958  0.9877
 9267TIP3   OH249291   1.339   1.510  12.832 -0.2340 -0.0574 -0.2201
 9267TIP3    H149292   1.410   1.452  12.806  0.6636  0.7501  0.3987
 9267TIP3    H249293   1.275   1.453  12.875  0.0680 -0.7736 -0.7146
 9268TIP3   OH249294   6.044   4.983   2.067  0.0614  0.8097  0.2012
 9268TIP3    H149295   6.029   4.889   2.076 -1.8603  1.0167 -0.6662
 9268TIP3    H249296   6.045   5.016   2.157 -0.3815  0.1196  0.4608
 9269TIP3   OH249297   4.606   5.534   2.554  0.3634 -0.1210 -0.7549
 9269TIP3    H149298   4.635   5.468   2.491  0.9641  0.9872 -1.6522
 9269TIP3    H249299   4.551   5.593   2.504  1.5964  1.3077 -0.4911
 9270TIP3   OH249300   6.604   3.801  12.619 -0.2537  0.8054 -0.2845
 9270TIP3    H149301   6.611   3.791  12.714 -2.6879  1.8402  0.0575
 9270TIP3    H249302   6.656   3.730  12.583  2.2534  1.5170  1.8072
 9271TIP3   OH249303   4.874   3.431   4.257 -0.1352  0.4307 -0.3996
 9271TIP3    H149304   4.793   3.382   4.267 -0.1702  0.3945 -0.8640
 9271TIP3    H249305   4.861   3.485   4.179 -0.1044  1.1884  0.1136
 9272TIP3   OH249306   3.318   2.131  17.146  1.0621  0.3741 -0.0082
 9272TIP3    H149307   3.247   2.151  17.208  0.4152  3.2490 -1.5978
 9272TIP3    H249308   3.308   2.038  17.128 -1.4599  0.4373  0.8696
 9273TIP3   OH249309   1.216   1.724   0.800 -0.0522  0.0723  0.6751
 9273TIP3    H149310   1.164   1.739   0.720  1.1089 -3.0534 -0.7499
 9273TIP3    H249311   1.163   1.665   0.853  0.6221 -0.5248  0.6930
 9274TIP3   OH249312   6.783   0.605   0.061 -0.0804  0.5600 -0.0401
 9274TIP3    H149313   6.706   0.661   0.062 -0.9886 -0.6946  2.1479
 9274TIP3    H249314   6.770   0.547  -0.015 -1.2534  0.4103  0.2672
 9275TIP3   OH249315   1.565   4.086  14.352  0.0951  0.0322  0.0519
 9275TIP3    H149316   1.597   4.096  14.262 -0.2131  1.6410  0.1019
 9275TIP3    H249317   1.618   4.016  14.389  0.6059 -0.2625 -1.2167
 9276TIP3   OH249318   5.209   4.153   2.850 -0.4433 -0.8361 -0.1895
 9276TIP3    H149319   5.133   4.170   2.905  0.0347 -1.5774  0.7137
 9276TIP3    H249320   5.284   4.181   2.903 -0.1578  1.1296 -1.5808
 9277TIP3   OH249321   3.750   2.933   4.348 -0.2621 -0.0550 -0.6449
 9277TIP3    H149322   3.661   2.919   4.316 -0.6061 -1.3528  0.8060
 9277TIP3    H249323   3.739   2.952   4.441  0.6939  3.7645 -1.2320
 9278TIP3   OH249324   3.726   0.532   5.320  0.3624  0.3113  0.3410
 9278TIP3    H149325   3.655   0.527   5.256  0.4220  1.0576  0.2145
 9278TIP3    H249326   3.797   0.577   5.274  0.9567 -0.5166  0.4361
 9279TIP3   OH249327   5.303   2.420   0.780 -0.3266  0.0380 -0.1728
 9279TIP3    H149328   5.319   2.502   0.827  0.1689 -0.8823  1.2879
 9279TIP3    H249329   5.277   2.358   0.848 -1.8057 -0.7450 -1.4048
 9280TIP3   OH249330   5.138   5.700  12.820  0.4404 -0.0934  0.1737
 9280TIP3    H149331   5.046   5.702  12.847 -0.4148  0.2728 -2.5390
 9280TIP3    H249332   5.163   5.608  12.827  0.1994 -0.0377  1.9401
 9281TIP3   OH249333   6.764   4.900   3.367  0.3036  0.1612  0.1704
 9281TIP3    H149334   6.744   4.945   3.449  0.1385  0.9048 -0.2767
 9281TIP3    H249335   6.689   4.841   3.354  0.3017  0.0815  0.5230
 9282TIP3   OH249336   2.430   6.138   5.203  0.1363 -0.0245  0.1089
 9282TIP3    H149337   2.392   6.051   5.220 -1.2724  0.8529  1.5811
 9282TIP3    H249338   2.512   6.139   5.251  0.3268 -0.6627 -0.1953
 9283TIP3   OH249339   4.627   0.746  12.740 -0.4909 -0.2635  0.0137
 9283TIP3    H149340   4.621   0.651  12.744 -0.2569 -0.3955 -2.0131
 9283TIP3    H249341   4.537   0.777  12.753 -0.6807 -0.7998 -0.0291
 9284TIP3   OH249342   2.897   5.260  13.785 -0.1609  0.0005  0.4860
 9284TIP3    H149343   2.814   5.266  13.739  0.5334 -0.6558 -0.8945
 9284TIP3    H249344   2.900   5.171  13.820 -0.0778  0.0503  0.6067
 9285TIP3   OH249345   0.940   6.673  13.150  0.5596 -0.5508  0.0899
 9285TIP3    H149346   1.030   6.645  13.167  0.4455 -0.6557  0.5236
 9285TIP3    H249347   0.939   6.766  13.172  0.5023 -0.6050  0.3197
 9286TIP3   OH249348   3.722   2.649   0.355 -0.0470  0.0530 -0.5617
 9286TIP3    H149349   3.704   2.732   0.400  2.6394  0.5987 -0.4180
 9286TIP3    H249350   3.639   2.601   0.360 -1.0519  1.8805  1.1352
 9287TIP3   OH249351   4.746   6.464  14.849  0.4050 -0.1099  0.4173
 9287TIP3    H149352   4.652   6.476  14.864  0.6733  2.8539 -0.0897
 9287TIP3    H249353   4.765   6.518  14.773  2.7038  0.0664  1.0893
 9288TIP3   OH249354   6.663   2.384  12.769 -0.0343  0.0639 -0.0641
 9288TIP3    H149355   6.633   2.295  12.750 -0.3660 -0.4241  2.5990
 9288TIP3    H249356   6.584   2.432  12.794  0.3918  0.6291  0.2104
 9289TIP3   OH249357   6.184   6.686  12.749 -0.3566 -0.2896  0.7436
 9289TIP3    H149358   6.091   6.681  12.727 -0.1020 -2.4242  0.0627
 9289TIP3    H249359   6.188   6.659  12.841 -0.4146 -0.0334  0.8232
 9290TIP3   OH249360   2.937   0.876   4.045 -0.0263  0.5154  0.7742
 9290TIP3    H149361   2.885   0.923   4.110 -0.4894  0.1944  0.6400
 9290TIP3    H249362   2.905   0.785   4.050 -0.3774  0.5780 -0.2050
 9291TIP3   OH249363   6.761   5.072  13.605  0.1892 -0.1044  0.1298
 9291TIP3    H149364   6.824   5.121  13.657  0.1290 -1.7313  1.7676
 9291TIP3    H249365   6.719   5.138  13.550  2.1116  1.2421  0.2347
 9292TIP3   OH249366   1.076   5.883   0.866 -0.2961  0.1649 -0.0748
 9292TIP3    H149367   1.056   5.976   0.875 -1.1421  0.1030 -1.2734
 9292TIP3    H249368   1.007   5.839   0.915  0.9756  0.2032  1.8106
 9293TIP3   OH249369   2.777   1.053  17.086 -0.0421  0.3609 -0.0769
 9293TIP3    H149370   2.751   0.961  17.091  2.0412 -0.1546  2.3319
 9293TIP3    H249371   2.820   1.062  17.002  0.2493 -1.0139 -0.0815
 9294TIP3   OH249372   4.129   4.418  12.178 -0.3233  0.0380 -0.2832
 9294TIP3    H149373   4.142   4.506  12.214  1.7734  0.4257 -1.8973
 9294TIP3    H249374   4.200   4.366  12.217 -0.0044 -0.3149 -1.3357
 9295TIP3   OH249375   5.332   0.993  12.951 -0.1073 -0.2144  0.2870
 9295TIP3    H149376   5.354   0.998  13.044  1.4600  0.9791 -0.1110
 9295TIP3    H249377   5.406   0.946  12.912 -0.4409 -0.1274 -0.4433
 9296TIP3   OH249378   2.953   1.966  15.363 -0.1253 -0.2579 -0.1707
 9296TIP3    H149379   2.973   2.025  15.436 -1.2910 -0.9596  0.7132
 9296TIP3    H249380   2.878   2.007  15.319  0.5978  0.1845 -1.0133
 9297TIP3   OH249381   6.770   4.367  12.959  0.1599  0.1460 -0.3804
 9297TIP3    H149382   6.841   4.394  13.018 -0.8950  1.0633  0.5135
 9297TIP3    H249383   6.690   4.376  13.012 -0.6183 -0.9511 -1.3382
 9298TIP3   OH249384   1.261   6.006  16.533 -0.2068  0.6618  0.5762
 9298TIP3    H149385   1.320   6.049  16.596 -3.2439  1.6820  2.8736
 9298TIP3    H249386   1.179   6.057  16.539 -1.5711 -1.1439 -1.9412
 9299TIP3   OH249387   3.478   4.827   0.275  0.2207  0.0492 -0.1327
 9299TIP3    H149388   3.471   4.754   0.336 -0.4116  0.7763  0.6745
 9299TIP3    H249389   3.491   4.786   0.190 -1.0639 -1.0249  0.1842
 9300TIP3   OH249390   0.735   5.293   4.404  0.0389  0.1586  0.3181
 9300TIP3    H149391   0.805   5.227   4.402 -0.7836 -0.7001 -1.3255
 9300TIP3    H249392   0.710   5.299   4.496  2.7487  1.0011  1.0457
 9301TIP3   OH249393   0.542   6.665  16.160 -0.1300  0.0651 -0.5562
 9301TIP3    H149394   0.626   6.619  16.166  0.0897  0.4294 -0.8171
 9301TIP3    H249395   0.561   6.744  16.108 -0.5240  0.4000 -0.2005
 9302TIP3   OH249396   1.747   5.843   2.100 -0.5011  0.2391  0.1519
 9302TIP3    H149397   1.727   5.923   2.147 -1.4073  0.0301  0.1349
 9302TIP3    H249398   1.798   5.872   2.024 -1.0857  0.8406 -0.0210
 9303TIP3   OH249399   5.085   5.877   2.453 -0.0127 -0.4427 -0.2729
 9303TIP3    H149400   5.017   5.943   2.465 -0.7930 -1.2793 -0.0344
 9303TIP3    H249401   5.167   5.924   2.467 -0.5942  0.3107  0.6380
 9304TIP3   OH249402   3.092   5.187   5.912  0.2790 -0.3807 -1.0358
 9304TIP3    H149403   3.178   5.191   5.871  0.6172  2.9392 -0.1988
 9304TIP3    H249404   3.096   5.252   5.983 -2.3708 -1.3402  0.0884
 9305TIP3   OH249405   2.700   2.683   4.980 -0.4978  0.1696  0.7399
 9305TIP3    H149406   2.713   2.727   4.896  2.3679 -1.5788  0.1821
 9305TIP3    H249407   2.606   2.670   4.987 -1.1287  3.5299 -0.5079
 9306TIP3   OH249408   4.069   6.042   0.136 -0.1618 -0.0622  0.7360
 9306TIP3    H149409   4.006   6.111   0.156 -0.0036 -0.2748  2.0063
 9306TIP3    H249410   4.070   6.037   0.041  0.0031  1.8572  0.6292
 9307TIP3   OH249411   3.509   6.660   6.472  0.4271  0.5129  0.5744
 9307TIP3    H149412   3.576   6.660   6.540  0.2353 -0.5187  0.7749
 9307TIP3    H249413   3.557   6.656   6.390  0.6322  0.5779  0.6923
 9308TIP3   OH249414   2.807   1.569  12.930  0.1424  0.2252  0.2634
 9308TIP3    H149415   2.823   1.536  13.019  0.7695 -0.1468  0.0172
 9308TIP3    H249416   2.888   1.550  12.883  0.3246  1.6434 -0.0269
 9309TIP3   OH249417   1.499   2.184   1.906 -0.3778  0.0346  0.1847
 9309TIP3    H149418   1.472   2.232   1.985  0.9569 -0.3898  0.9095
 9309TIP3    H249419   1.491   2.092   1.931 -1.0423 -0.1175 -0.5596
 9310TIP3   OH249420   4.392   6.087  15.540  0.3487 -0.0919  0.0807
 9310TIP3    H149421   4.468   6.110  15.486 -0.2782 -1.1800 -1.2907
 9310TIP3    H249422   4.320   6.076  15.477 -0.8875  0.6725  1.3445
 9311TIP3   OH249423   1.703   4.797   3.077  0.2170 -0.2010 -0.4315
 9311TIP3    H149424   1.710   4.701   3.069  0.2586 -0.1159 -1.5208
 9311TIP3    H249425   1.791   4.828   3.054  0.1356  0.1104 -0.3094
 9312TIP3   OH249426   1.575   2.031   4.665 -0.3395  0.1576  0.0811
 9312TIP3    H149427   1.591   1.985   4.583  0.5196  1.1631 -0.3357
 9312TIP3    H249428   1.491   1.998   4.696  0.1635 -1.5148 -0.3068
 9313TIP3   OH249429   1.243   5.065   1.053 -0.9238 -0.1777 -0.1321
 9313TIP3    H149430   1.285   5.143   1.089  0.0912  0.7311 -3.1169
 9313TIP3    H249431   1.151   5.090   1.040 -1.4773 -0.7547  2.3676
 9314TIP3   OH249432   0.699   2.328  11.272  0.1267  0.4149  0.0165
 9314TIP3    H149433   0.656   2.287  11.197  0.6495  0.7211 -0.4575
 9314TIP3    H249434   0.780   2.364  11.236  0.2292  0.8417  0.6674
 9315TIP3   OH249435   3.133   1.860  10.458 -0.6644 -0.2113 -0.3591
 9315TIP3    H149436   3.070   1.807  10.410 -0.3728 -0.2416 -0.7098
 9315TIP3    H249437   3.129   1.828  10.548 -0.8428 -0.4961 -0.4708
 9316TIP3   OH249438   2.617   1.711  13.302 -0.1250  0.6342  0.2792
 9316TIP3    H149439   2.698   1.740  13.344  2.1802 -0.3331 -3.2586
 9316TIP3    H249440   2.614   1.617  13.317 -1.1794  0.8322  1.3316
 9317TIP3   OH249441   2.364   2.094   0.507 -0.1820  0.1574  0.2239
 9317TIP3    H149442   2.300   2.028   0.536 -0.6393  0.3185 -0.4246
 9317TIP3    H249443   2.311   2.161   0.464  0.4616  0.0822 -0.6964
 9318TIP3   OH249444   0.989   1.943  13.487 -0.3431  0.4151 -0.2086
 9318TIP3    H149445   1.056   1.964  13.423  0.1897 -0.1315  0.1676
 9318TIP3    H249446   0.993   2.014  13.551  2.0545 -1.2626  1.5409
 9319TIP3   OH249447   3.174   3.331   4.468 -0.3629 -0.4018 -0.1988
 9319TIP3    H149448   3.180   3.255   4.526 -1.5070 -0.3045  0.0635
 9319TIP3    H249449   3.227   3.398   4.511 -1.9368 -0.0330  1.2198
 9320TIP3   OH249450   4.843   0.123  14.008 -0.0440  0.4280 -0.5301
 9320TIP3    H149451   4.841   0.197  14.069  0.2415  0.9041 -1.0922
 9320TIP3    H249452   4.772   0.141  13.946 -2.0588 -1.3854  1.1989
 9321TIP3   OH249453   1.006   0.347   1.574 -0.1806 -0.1409  0.3644
 9321TIP3    H149454   1.101   0.354   1.587 -0.1542 -1.6241  1.0709
 9321TIP3    H249455   0.984   0.422   1.519  1.6880 -0.8072 -1.3298
 9322TIP3   OH249456   3.045   3.863   1.337  0.3345 -0.5596 -0.5147
 9322TIP3    H149457   3.044   3.935   1.273 -0.8577 -0.1486 -0.0512
 9322TIP3    H249458   3.058   3.784   1.284 -1.0647 -0.2664 -1.3273
 9323TIP3   OH249459   3.072   3.948   0.172 -0.0166  0.1768 -0.2958
 9323TIP3    H149460   3.044   3.976   0.259  2.2007 -2.6931  1.4415
 9323TIP3    H249461   3.026   3.865   0.158  1.7034 -0.7547 -0.6145
 9324TIP3   OH249462   6.397   2.428  17.290 -0.1868 -0.7178  0.1341
 9324TIP3    H149463   6.404   2.333  17.294  0.3526 -0.7256 -0.9710
 9324TIP3    H249464   6.487   2.459  17.287 -0.3765 -0.2298 -0.6916
 9325TIP3   OH249465   1.134   1.635  12.660  0.1152  0.0198  0.2465
 9325TIP3    H149466   1.199   1.612  12.726 -0.9822 -1.3934  0.8641
 9325TIP3    H249467   1.070   1.689  12.707 -1.1467 -1.7384  0.5834
 9326TIP3   OH249468   4.131   4.850   5.872  1.0760  0.4796 -0.3301
 9326TIP3    H149469   4.077   4.870   5.948  1.1673  1.6247 -0.5677
 9326TIP3    H249470   4.172   4.765   5.893  1.5855  1.0806  1.1501
 9327TIP3   OH249471   3.530   1.289   1.074  0.2341  0.0677  0.6337
 9327TIP3    H149472   3.504   1.230   1.145  0.4560  1.0457  1.5442
 9327TIP3    H249473   3.601   1.244   1.029 -0.7736 -1.1294  0.2350
 9328TIP3   OH249474   3.037   6.254   1.400 -0.2793 -0.4197 -0.4910
 9328TIP3    H149475   3.044   6.306   1.319  1.3573  0.3868  0.1510
 9328TIP3    H249476   3.124   6.218   1.413 -0.3625 -0.0008  1.2797
 9329TIP3   OH249477   2.570   1.346   0.956 -0.0155  0.7088  0.2191
 9329TIP3    H149478   2.532   1.424   0.997  1.5099  0.7718  1.5422
 9329TIP3    H249479   2.539   1.273   1.009  1.2051  0.7098  0.9455
 9330TIP3   OH249480   1.382   0.366  17.289 -0.4775 -0.0077  0.0025
 9330TIP3    H149481   1.316   0.362  17.358 -0.0492  2.8260  0.6405
 9330TIP3    H249482   1.464   0.381  17.336  0.0622  0.2877 -1.0293
 9331TIP3   OH249483   0.748   4.226  10.559  0.4812  0.6837 -0.2405
 9331TIP3    H149484   0.663   4.232  10.515 -0.6687  0.3880  1.8977
 9331TIP3    H249485   0.785   4.314  10.550 -0.0047  0.7897 -1.2650
 9332TIP3   OH249486   0.758   3.707   5.696  1.2752  0.9802  0.2887
 9332TIP3    H149487   0.719   3.715   5.783  0.8910 -1.8452  0.4036
 9332TIP3    H249488   0.714   3.775   5.644 -0.0827  1.2338  1.7349
 9333TIP3   OH249489   0.184   5.987   2.566  0.3403 -0.1043 -0.8398
 9333TIP3    H149490   0.226   5.998   2.651 -1.2111  0.7763 -0.1492
 9333TIP3    H249491   0.129   6.066   2.557 -1.1569 -1.2148 -1.6686
 9334TIP3   OH249492   5.955   1.594  15.815  0.5327  0.0312 -0.3219
 9334TIP3    H149493   5.863   1.618  15.817  0.3052 -0.6458 -2.0182
 9334TIP3    H249494   5.988   1.618  15.902 -1.1946  0.3934  0.2500
 9335TIP3   OH249495   2.765   2.856   2.698  0.6185  0.4433  0.6097
 9335TIP3    H149496   2.815   2.811   2.766 -1.2422  0.7927  2.2701
 9335TIP3    H249497   2.801   2.823   2.616  3.7635  0.9371  1.7277
 9336TIP3   OH249498   4.497   0.128  11.155 -0.2417  0.4571  0.2436
 9336TIP3    H149499   4.428   0.141  11.221 -0.6827 -2.8876  0.5398
 9336TIP3    H249500   4.462   0.061  11.096  2.2553 -0.4398 -0.2972
 9337TIP3   OH249501   6.122   3.160   0.756  0.1724  0.4292  0.0925
 9337TIP3    H149502   6.197   3.104   0.736 -0.1633 -0.0241  0.0839
 9337TIP3    H249503   6.122   3.226   0.687  0.6408  0.5082  0.1680
 9338TIP3   OH249504   5.774   5.597   6.124  0.6219  0.5092 -0.5544
 9338TIP3    H149505   5.824   5.620   6.202 -0.7259  2.8694 -0.3335
 9338TIP3    H249506   5.687   5.576   6.157  0.9388 -1.8233 -1.1151
 9339TIP3   OH249507   6.634   5.388  11.947 -0.0965 -0.3504  0.2767
 9339TIP3    H149508   6.597   5.333  12.017  1.0071 -2.0416 -0.4258
 9339TIP3    H249509   6.725   5.400  11.973 -0.8160  3.0145  1.5266
 9340TIP3   OH249510   1.488   4.367  14.152  0.3813 -0.1971 -0.3669
 9340TIP3    H149511   1.535   4.286  14.171 -0.0496 -0.1200  1.0913
 9340TIP3    H249512   1.411   4.339  14.102  1.7184 -0.3626 -2.4299
 9341TIP3   OH249513   5.542   1.776  14.525  0.3240  0.1675 -0.4341
 9341TIP3    H149514   5.461   1.775  14.473 -0.4866  1.8633  0.7426
 9341TIP3    H249515   5.605   1.823  14.470  0.3923 -0.7604 -1.1627
 9342TIP3   OH249516   3.748   3.350   0.563  0.1775 -0.2088 -0.4001
 9342TIP3    H149517   3.654   3.361   0.580 -0.1320 -0.6123 -1.8252
 9342TIP3    H249518   3.782   3.310   0.644 -0.9544 -0.4744 -0.0407
 9343TIP3   OH249519   5.954   3.299   3.190  0.3582  0.3813 -0.0677
 9343TIP3    H149520   5.949   3.367   3.123  1.8246  0.2593 -0.3361
 9343TIP3    H249521   5.866   3.293   3.226 -0.5086  0.3321 -2.1101
 9344TIP3   OH249522   1.533   4.595   4.807 -0.8154  0.3229  0.5666
 9344TIP3    H149523   1.593   4.603   4.881  0.8574 -0.0866 -0.7122
 9344TIP3    H249524   1.458   4.651   4.830 -0.0195  0.7293  2.2366
 9345TIP3   OH249525   1.374   4.325  13.507 -0.3677 -0.1961 -0.5675
 9345TIP3    H149526   1.393   4.293  13.418  0.7685  1.5998 -0.9958
 9345TIP3    H249527   1.351   4.417  13.495  2.3951  0.7921  1.2549
 9346TIP3   OH249528   4.003   1.357   0.949 -0.3685  0.1625 -0.4868
 9346TIP3    H149529   4.034   1.447   0.949 -0.4333  0.1833 -0.3049
 9346TIP3    H249530   4.049   1.316   0.875  0.8130 -0.0589  0.3608
 9347TIP3   OH249531   3.270   6.451  11.513 -0.4063  0.2493 -1.0230
 9347TIP3    H149532   3.330   6.450  11.587 -0.8025 -0.8785 -0.7053
 9347TIP3    H249533   3.205   6.518  11.535 -0.6724 -0.2699 -0.2215
 9348TIP3   OH249534   6.139   0.700  16.868 -0.1008 -0.0860 -0.4271
 9348TIP3    H149535   6.150   0.758  16.793  1.8797  0.8702  0.5712
 9348TIP3    H249536   6.100   0.755  16.936 -0.6504 -0.6016 -0.3234
 9349TIP3   OH249537   5.745   6.606   0.505 -0.2352 -0.1749 -0.3409
 9349TIP3    H149538   5.692   6.527   0.512 -1.4795  0.6948  0.3719
 9349TIP3    H249539   5.776   6.607   0.415  0.3383 -1.8065 -0.1827
 9350TIP3   OH249540   0.570   0.430   4.888 -0.2740 -0.0107 -0.2011
 9350TIP3    H149541   0.604   0.399   4.972 -0.8897 -0.8455 -0.2578
 9350TIP3    H249542   0.643   0.419   4.827  0.1113  0.4131  0.1835
 9351TIP3   OH249543   5.262   0.047  13.612 -0.5109  0.3053  0.2731
 9351TIP3    H149544   5.311   0.124  13.642  0.9924 -0.8279  0.8136
 9351TIP3    H249545   5.189   0.040  13.673 -0.2560  0.9122  0.6527
 9352TIP3   OH249546   4.548   2.231   6.614 -0.1264  0.0776  0.2021
 9352TIP3    H149547   4.557   2.281   6.696 -1.0888 -0.9050  0.9284
 9352TIP3    H249548   4.506   2.292   6.554 -1.2089  0.1918  1.0527
 9353TIP3   OH249549   4.948   1.735   5.669 -0.0541  0.3209 -0.1113
 9353TIP3    H149550   4.993   1.819   5.656  0.5471  0.1075  0.5435
 9353TIP3    H249551   4.884   1.753   5.738 -0.2532  0.3554 -0.3025
 9354TIP3   OH249552   6.250   3.304   4.212 -0.1220  0.2128  0.6932
 9354TIP3    H149553   6.337   3.266   4.199 -0.1421  0.1333  0.7887
 9354TIP3    H249554   6.265   3.380   4.268  0.0056  0.7331 -0.0410
 9355TIP3   OH249555   6.522   2.435   4.669 -0.2565 -0.2270  0.5374
 9355TIP3    H149556   6.535   2.528   4.687  0.2968 -0.2729  0.3930
 9355TIP3    H249557   6.597   2.411   4.614 -0.5149 -0.7049  0.3913
 9356TIP3   OH249558   2.318   6.316  14.882 -0.1593 -0.0658 -0.4404
 9356TIP3    H149559   2.409   6.309  14.911  0.1304  0.1912 -1.2674
 9356TIP3    H249560   2.267   6.276  14.952  0.6163 -0.4759 -0.1049
 9357TIP3   OH249561   1.872   4.225  14.385  0.0057 -0.1644 -0.6568
 9357TIP3    H149562   1.862   4.177  14.468  2.0241  1.1869  0.3942
 9357TIP3    H249563   1.791   4.205  14.337 -2.2784  0.8553  2.5536
 9358TIP3   OH249564   3.529   5.327  12.165  0.0706  0.1181 -0.0790
 9358TIP3    H149565   3.451   5.380  12.180 -0.7166 -0.8549 -0.6813
 9358TIP3    H249566   3.567   5.316  12.252 -0.6530  0.3190  0.2695
 9359TIP3   OH249567   3.460   3.650   1.225 -0.3151 -0.4417 -0.2559
 9359TIP3    H149568   3.526   3.594   1.184  1.7720  2.0546 -0.3663
 9359TIP3    H249569   3.429   3.706   1.154 -0.5007  0.3451  0.4421
 9360TIP3   OH249570   4.740   6.122   3.869  0.4838 -0.2533  0.2072
 9360TIP3    H149571   4.684   6.185   3.914  1.1148 -0.7783  1.7341
 9360TIP3    H249572   4.682   6.079   3.806 -0.3058  0.7492  0.2365
 9361TIP3   OH249573   0.291   0.991  12.819  0.0753  0.2352 -0.0956
 9361TIP3    H149574   0.318   0.899  12.825 -2.4257 -0.5546 -0.2755
 9361TIP3    H249575   0.269   1.002  12.726  0.4042  1.0236 -0.0756
 9362TIP3   OH249576   1.981   4.847  12.745  0.1930  0.5701 -0.2462
 9362TIP3    H149577   1.897   4.826  12.706  0.4212 -0.8756  0.0309
 9362TIP3    H249578   2.009   4.927  12.700 -0.2395 -0.2240 -1.9754
 9363TIP3   OH249579   5.873   6.713  10.978  0.6584 -0.0986  0.0397
 9363TIP3    H149580   5.864   6.650  10.907 -1.9495 -0.0011  0.2230
 9363TIP3    H249581   5.828   6.673  11.052  0.2213  1.3312  0.5742
 9364TIP3   OH249582   6.208   1.030  11.020  0.3417  0.0274  0.3301
 9364TIP3    H149583   6.278   1.045  10.956 -0.6685  1.3463 -0.4963
 9364TIP3    H249584   6.138   0.991  10.969  0.1383 -0.4464  0.9735
 9365TIP3   OH249585   2.570   2.628  17.250  0.3919 -0.1520  0.1544
 9365TIP3    H149586   2.531   2.713  17.272 -0.2921 -0.6075  0.7150
 9365TIP3    H249587   2.656   2.650  17.215  0.7320  0.7088  1.4808
 9366TIP3   OH249588   1.648   4.134  14.104 -0.0901  0.1067  0.6848
 9366TIP3    H149589   1.705   4.202  14.069 -1.7594  1.3999  0.4322
 9366TIP3    H249590   1.625   4.080  14.029 -0.6661  0.6740  0.4492
 9367TIP3   OH249591   3.193   6.471  16.627 -0.6909 -0.0963  0.8375
 9367TIP3    H149592   3.220   6.414  16.699 -0.7585 -0.2880  0.7120
 9367TIP3    H249593   3.197   6.560  16.663  1.1458 -0.0232  0.5111
 9368TIP3   OH249594   0.130   3.819   4.350 -0.2546  0.3235  0.2333
 9368TIP3    H149595   0.216   3.852   4.326 -0.2746  1.2411  1.4164
 9368TIP3    H249596   0.126   3.731   4.311  0.3925  1.0897 -1.5844
 9369TIP3   OH249597   6.633   4.605  11.791 -0.0642 -0.2177  0.0102
 9369TIP3    H149598   6.592   4.569  11.712  0.2404  0.7266 -0.5818
 9369TIP3    H249599   6.559   4.625  11.848 -0.4658  1.4713 -1.0536
 9370TIP3   OH249600   2.674   2.279   3.293 -0.1526 -0.4168  0.1597
 9370TIP3    H149601   2.700   2.362   3.334  1.4288 -1.4810  1.3860
 9370TIP3    H249602   2.748   2.256   3.236 -0.0093 -1.6114  0.8142
 9371TIP3   OH249603   1.187   4.806   6.183  0.0429 -0.2078 -0.2363
 9371TIP3    H149604   1.154   4.842   6.265  1.4173 -1.3717  0.8406
 9371TIP3    H249605   1.120   4.744   6.154 -1.0906  1.2189 -0.7301
 9372TIP3   OH249606   2.143   2.223  13.425  0.6886 -0.0629 -0.4191
 9372TIP3    H149607   2.052   2.252  13.417  1.0028  0.7972 -0.8531
 9372TIP3    H249608   2.137   2.127  13.429 -0.4568  0.0730  2.2358
 9373TIP3   OH249609   1.438   1.711   4.682  0.0526  0.1654 -0.2438
 9373TIP3    H149610   1.396   1.778   4.736 -1.2167  0.1679 -1.2315
 9373TIP3    H249611   1.496   1.665   4.743  1.3398  2.4743  0.3375
 9374TIP3   OH249612   3.263   0.245   1.770 -0.1943 -0.2219 -0.0222
 9374TIP3    H149613   3.207   0.282   1.838 -0.4451 -1.0927  0.2466
 9374TIP3    H249614   3.352   0.250   1.806 -0.3051 -0.4956  0.2905
 9375TIP3   OH249615   0.225   3.381   0.266  0.1775  0.5075  0.1660
 9375TIP3    H149616   0.146   3.378   0.320  0.4951  0.2337  0.6263
 9375TIP3    H249617   0.223   3.466   0.224 -0.6732  0.2596 -0.2909
 9376TIP3   OH249618   0.187   6.026   0.949 -0.1835  0.4171  0.3277
 9376TIP3    H149619   0.263   5.969   0.932 -0.1081  0.3998  0.7182
 9376TIP3    H249620   0.126   6.006   0.878 -0.7556 -1.2049  1.2517
 9377TIP3   OH249621   0.779   0.509   4.119  0.2055 -0.1414  0.9224
 9377TIP3    H149622   0.729   0.549   4.190  0.8038  0.7479  0.8475
 9377TIP3    H249623   0.767   0.415   4.132 -0.0660  0.0252  1.9254
 9378TIP3   OH249624   2.779   3.041   2.927  0.4146 -0.1089 -0.2827
 9378TIP3    H149625   2.712   3.040   2.996 -1.0677  0.8292 -1.6647
 9378TIP3    H249626   2.766   2.960   2.879 -0.2936  0.4495 -1.0532
 9379TIP3   OH249627   3.917   2.787  12.707  0.1622 -0.2036  0.2055
 9379TIP3    H149628   3.976   2.817  12.638  0.3384 -0.0251  0.4306
 9379TIP3    H249629   3.876   2.868  12.740  1.9385  0.0069  2.0020
 9380TIP3   OH249630   0.246   3.863  16.538  0.2438 -0.2399  0.4106
 9380TIP3    H149631   0.163   3.909  16.548  0.2418  0.2452 -1.6591
 9380TIP3    H249632   0.313   3.931  16.548  0.2903 -0.0697 -1.0208
 9381TIP3   OH249633   1.521   2.936  13.020  0.3304  0.3446 -0.0047
 9381TIP3    H149634   1.454   2.872  13.042  0.2350  0.7547  0.8973
 9381TIP3    H249635   1.591   2.885  12.978 -0.7795 -0.0051 -1.4799
 9382TIP3   OH249636   5.578   1.630   4.269 -0.2223 -0.3467 -0.5662
 9382TIP3    H149637   5.543   1.543   4.247  0.2796 -0.5592 -0.5324
 9382TIP3    H249638   5.505   1.675   4.311 -0.5073 -0.7315 -0.6459
 9383TIP3   OH249639   4.520   2.300  11.336  0.0700  0.2194 -0.2309
 9383TIP3    H149640   4.604   2.336  11.307 -0.1356  2.0906  1.4013
 9383TIP3    H249641   4.459   2.373  11.330 -1.1973 -0.8259 -0.3131
 9384TIP3   OH249642   0.638   5.229  13.025 -0.4421  0.7934 -0.0361
 9384TIP3    H149643   0.648   5.146  12.979 -3.3828 -0.8615  2.1411
 9384TIP3    H249644   0.724   5.246  13.063  0.5692 -0.5231 -1.6467
 9385TIP3   OH249645   3.705   4.543   5.290 -0.6745  0.0446 -0.3567
 9385TIP3    H149646   3.634   4.543   5.225  1.9997  2.2332 -3.4218
 9385TIP3    H249647   3.678   4.610   5.354 -1.9909 -0.1295 -0.7040
 9386TIP3   OH249648   1.714   4.284  13.021  0.1827 -0.3559  0.3020
 9386TIP3    H149649   1.652   4.357  13.022  0.6140  0.0242 -0.1645
 9386TIP3    H249650   1.799   4.325  13.033  0.4437 -0.7661 -0.1297
 9387TIP3   OH249651   3.992   4.107   5.671 -0.4558  0.5989 -0.1081
 9387TIP3    H149652   3.967   4.052   5.744 -0.5710  0.2018 -0.4443
 9387TIP3    H249653   3.962   4.195   5.696 -3.4836 -0.0717 -1.0844
 9388TIP3   OH249654   1.950   3.985  11.823 -0.1898 -0.1811  0.3908
 9388TIP3    H149655   1.891   4.007  11.751 -1.4995  0.4061  1.6207
 9388TIP3    H249656   1.912   3.906  11.862  0.2758 -0.2540  0.7014
 9389TIP3   OH249657   0.163   0.110  12.461 -0.3108  0.3835  0.1852
 9389TIP3    H149658   0.162   0.033  12.404 -1.2684  0.7113 -0.2567
 9389TIP3    H249659   0.116   0.176  12.411 -1.6133  0.5159  1.5798
 9390TIP3   OH249660   4.351   5.463  13.432  0.2784 -0.4492 -0.0799
 9390TIP3    H149661   4.324   5.374  13.457 -3.4087  1.5032  3.5119
 9390TIP3    H249662   4.363   5.508  13.515 -0.0275  3.0165 -1.8524
 9391TIP3   OH249663   2.758   5.419   5.170 -0.5417  0.3252 -0.0158
 9391TIP3    H149664   2.740   5.495   5.225 -1.1344  0.3639 -0.2527
 9391TIP3    H249665   2.805   5.455   5.094 -0.6306  0.4239 -0.0243
 9392TIP3   OH249666   0.425   0.303   1.016 -0.4530  0.0491 -0.2075
 9392TIP3    H149667   0.414   0.341   0.929  1.1452 -1.8431 -1.2707
 9392TIP3    H249668   0.489   0.360   1.059 -0.6975  0.5664 -0.5222
 9393TIP3   OH249669   6.698   0.174   1.949  0.1989  0.1984  0.8153
 9393TIP3    H149670   6.740   0.258   1.935 -0.4000  0.4266  0.3728
 9393TIP3    H249671   6.710   0.156   2.043 -0.4409  1.1895  1.0876
 9394TIP3   OH249672   2.971   6.708   6.685 -0.5305  0.2781  0.2390
 9394TIP3    H149673   3.021   6.690   6.765 -0.7712 -0.0319  0.3216
 9394TIP3    H249674   2.950   6.621   6.650  1.4211  0.4018 -1.3290
 9395TIP3   OH249675   6.583   2.301  16.564  0.0464  0.0790  0.1413
 9395TIP3    H149676   6.606   2.255  16.484  0.3477 -2.3341  1.5735
 9395TIP3    H249677   6.657   2.359  16.582  0.2216  0.2063 -0.9901
 9396TIP3   OH249678   1.078   2.554  11.449 -0.5509  0.0103 -0.5669
 9396TIP3    H149679   0.983   2.557  11.443 -0.6291  0.0556  0.6148
 9396TIP3    H249680   1.108   2.568  11.359 -1.6758 -1.2220 -1.1494
 9397TIP3   OH249681   3.401   1.827  13.839  0.8388 -0.4017 -0.2049
 9397TIP3    H149682   3.367   1.754  13.890 -0.3755  0.2682 -0.0322
 9397TIP3    H249683   3.327   1.856  13.787  1.1889  0.9697  0.0437
 9398TIP3   OH249684   4.448   0.123  12.094 -0.0389  0.2478 -0.1368
 9398TIP3    H149685   4.536   0.093  12.072  0.5825  0.6186  1.7164
 9398TIP3    H249686   4.450   0.135  12.189 -2.6024 -1.3682  0.1716
 9399TIP3   OH249687   2.561   6.435   5.458  0.1214 -0.1754  0.5903
 9399TIP3    H149688   2.629   6.378   5.423  0.3336 -0.9471  2.2127
 9399TIP3    H249689   2.482   6.413   5.408  1.0315  0.6649 -1.2333
 9400TIP3   OH249690   3.378   6.085  11.848 -0.2204 -0.2922  0.3105
 9400TIP3    H149691   3.458   6.114  11.805  0.4127 -0.0827  1.5851
 9400TIP3    H249692   3.307   6.113  11.791  0.6121 -0.3226 -0.7443
 9401TIP3   OH249693   6.702   4.295  16.795  0.1660 -0.1094  0.5337
 9401TIP3    H149694   6.619   4.259  16.827  1.5013 -1.9943  2.0012
 9401TIP3    H249695   6.680   4.336  16.712 -2.0594 -1.4995  0.3902
 9402TIP3   OH249696   4.878   2.785  15.340 -0.0125 -0.0213  0.3462
 9402TIP3    H149697   4.951   2.745  15.293  0.6939  2.2573 -0.5701
 9402TIP3    H249698   4.845   2.715  15.397  2.0821 -1.4637 -0.1352
 9403TIP3   OH249699   1.653   1.327  11.656 -0.1976  0.1401 -0.2484
 9403TIP3    H149700   1.602   1.354  11.580 -2.0011 -2.5923 -0.0915
 9403TIP3    H249701   1.591   1.332  11.729  0.7135  0.0391  0.5446
 9404TIP3   OH249702   1.033   1.919   5.559 -0.2831  1.0653 -0.4407
 9404TIP3    H149703   1.109   1.968   5.591  0.8233 -0.4533 -0.6979
 9404TIP3    H249704   1.065   1.829   5.549 -2.3706  0.2045  0.3626
 9405TIP3   OH249705   4.584   1.794  13.106 -0.3154 -0.4325 -0.1588
 9405TIP3    H149706   4.548   1.870  13.152  0.8061  0.3228 -0.5126
 9405TIP3    H249707   4.507   1.748  13.072 -1.0209  0.3348  0.3843
 9406TIP3   OH249708   0.310   3.705   5.163 -0.2022 -0.0294  0.4237
 9406TIP3    H149709   0.320   3.798   5.142  0.4602  0.1052  1.3145
 9406TIP3    H249710   0.394   3.680   5.201  0.1843 -1.3981 -1.2624
 9407TIP3   OH249711   1.484   1.849  16.808 -0.2217 -0.0171 -0.1767
 9407TIP3    H149712   1.529   1.770  16.781 -0.7103 -0.8985  1.4902
 9407TIP3    H249713   1.546   1.893  16.866 -0.7003 -0.1835  0.4711
 9408TIP3   OH249714   1.623   1.636  15.846 -0.7501  0.5055  0.0992
 9408TIP3    H149715   1.534   1.603  15.846 -0.4650 -0.2758 -0.6093
 9408TIP3    H249716   1.620   1.713  15.902 -1.9766  0.7788 -0.3305
 9409TIP3   OH249717   3.852   1.386   5.011 -0.0718  0.0764  0.0151
 9409TIP3    H149718   3.820   1.403   5.099 -1.9641  0.7080 -0.7806
 9409TIP3    H249719   3.911   1.459   4.992 -1.4513  1.1730 -0.1059
 9410TIP3   OH249720   1.753   2.134  13.835  0.5622  0.1351  0.4293
 9410TIP3    H149721   1.826   2.087  13.877  0.1656 -0.2196  0.7204
 9410TIP3    H249722   1.697   2.065  13.800 -0.1721  0.3877  1.1088
 9411TIP3   OH249723   5.157   5.862  16.388  0.4244  0.3223  0.1175
 9411TIP3    H149724   5.120   5.924  16.325  2.1907  0.7023 -0.5884
 9411TIP3    H249725   5.082   5.829  16.437 -0.6403  2.4353 -0.0363
 9412TIP3   OH249726   4.629   1.995   3.196  0.2967 -0.1240 -0.0197
 9412TIP3    H149727   4.649   1.964   3.284 -1.4575  1.6617  1.0569
 9412TIP3    H249728   4.536   2.019   3.200  0.4256  0.8327 -2.0803
 9413TIP3   OH249729   1.967   0.448   2.981  0.5018  0.0900 -0.2562
 9413TIP3    H149730   2.050   0.450   2.935  0.6139  0.0964 -0.0550
 9413TIP3    H249731   1.959   0.535   3.020  1.2775 -0.4985  1.2663
 9414TIP3   OH249732   0.127   3.485  14.222  0.1431 -0.1734 -0.3973
 9414TIP3    H149733   0.093   3.462  14.136 -1.3638  0.7043 -0.0499
 9414TIP3    H249734   0.162   3.403  14.257 -2.3408 -1.2703 -0.4403
 9415TIP3   OH249735   3.698   1.051  13.391  0.0458  0.3487 -0.3223
 9415TIP3    H149736   3.753   1.003  13.453 -1.2988 -1.4103 -0.4283
 9415TIP3    H249737   3.701   1.142  13.421  2.2079  0.1202  0.2275
 9416TIP3   OH249738   5.374   0.971   6.235 -0.2995 -0.0121 -0.2646
 9416TIP3    H149739   5.326   0.962   6.317  1.7550  0.2676  0.9977
 9416TIP3    H249740   5.399   1.064   6.232  0.8210 -0.3104 -0.4983
 9417TIP3   OH249741   1.010   5.919   5.181 -0.3012  0.3235  0.5214
 9417TIP3    H149742   1.093   5.918   5.229 -0.4854  0.1153  0.8382
 9417TIP3    H249743   1.033   5.889   5.093 -0.1569 -0.4116  0.8069
 9418TIP3   OH249744   4.637   4.285   1.238  0.1237  0.1647  0.6551
 9418TIP3    H149745   4.613   4.265   1.148 -1.3467 -0.6304  1.2161
 9418TIP3    H249746   4.694   4.213   1.264  0.4277  0.3170  0.4262
 9419TIP3   OH249747   1.652   1.390   4.647  0.1651 -0.0679  0.1453
 9419TIP3    H149748   1.593   1.318   4.667  0.2573 -0.0930  0.3291
 9419TIP3    H249749   1.723   1.382   4.711  2.2195 -2.1598 -2.3025
 9420TIP3   OH249750   3.037   0.103  11.427  0.3221 -1.0692  0.4405
 9420TIP3    H149751   3.059   0.111  11.334  1.8084 -0.6961  0.8017
 9420TIP3    H249752   2.949   0.140  11.434  0.8160  0.3514 -0.5774
 9421TIP3   OH249753   0.913   5.706   5.400 -0.5910 -0.2799  0.1330
 9421TIP3    H149754   0.952   5.624   5.369 -2.0096 -0.4853 -1.1453
 9421TIP3    H249755   0.947   5.716   5.489  0.7957 -1.4697 -0.2411
 9422TIP3   OH249756   4.348   6.503  15.883  0.1187  0.2302  0.1920
 9422TIP3    H149757   4.386   6.431  15.833 -0.3614 -0.1511  0.3733
 9422TIP3    H249758   4.285   6.461  15.942  1.2977  0.5621  1.7436
 9423TIP3   OH249759   4.414   4.361  13.014 -0.3352  0.0543  0.6991
 9423TIP3    H149760   4.346   4.390  13.074 -0.6589 -0.1258  0.4201
 9423TIP3    H249761   4.495   4.368  13.065 -0.3362  1.8760  0.4940
 9424TIP3   OH249762   4.175   2.166   3.009 -0.6163  0.2594  0.1789
 9424TIP3    H149763   4.220   2.091   3.046 -1.3617  0.0405  0.6270
 9424TIP3    H249764   4.246   2.226   2.985 -0.0136 -0.6230 -0.2891
 9425TIP3   OH249765   6.127   2.414   0.108 -0.0313 -0.5914 -0.6525
 9425TIP3    H149766   6.119   2.325   0.143 -1.3513 -1.2038 -2.4216
 9425TIP3    H249767   6.220   2.423   0.086  0.2233 -1.2966  0.1058
 9426TIP3   OH249768   0.659   6.425  17.118  0.3589  0.8234 -0.3583
 9426TIP3    H149769   0.579   6.467  17.088 -0.5542 -0.3945  0.3337
 9426TIP3    H249770   0.728   6.490  17.102 -0.8835  2.2039 -0.1582
 9427TIP3   OH249771   0.089   2.448   0.012 -0.0092  0.1112 -0.2015
 9427TIP3    H149772   0.013   2.392  -0.007  0.3757 -0.9343  1.2883
 9427TIP3    H249773   0.109   2.489  -0.072 -1.9414  0.0448 -0.7129
 9428TIP3   OH249774   2.464   6.024  14.417  0.3404  0.1286 -0.0164
 9428TIP3    H149775   2.516   6.068  14.484  0.9662  2.2085 -1.8407
 9428TIP3    H249776   2.522   6.015  14.342 -1.4253  1.0141 -1.5213
 9429TIP3   OH249777   2.777   0.370  16.879 -0.6070  0.9520 -0.1404
 9429TIP3    H149778   2.792   0.318  16.800 -0.8061 -0.2225  0.5965
 9429TIP3    H249779   2.798   0.312  16.951 -0.5736  1.9788  0.6937
 9430TIP3   OH249780   4.814   2.436   2.062 -0.3241  0.1814 -0.1630
 9430TIP3    H149781   4.793   2.529   2.066 -0.7519  0.0873 -0.2003
 9430TIP3    H249782   4.812   2.415   1.968  1.7807  0.5881 -0.3345
 9431TIP3   OH249783   0.380   1.487   2.226  0.1793  0.6943 -0.5538
 9431TIP3    H149784   0.462   1.529   2.251  0.1073  1.2049 -1.1579
 9431TIP3    H249785   0.382   1.402   2.270  1.0994  0.6451 -0.6775
 9432TIP3   OH249786   3.238   6.209  16.766 -0.3958 -0.2988 -0.5771
 9432TIP3    H149787   3.219   6.173  16.680  1.3398 -1.6457 -0.4327
 9432TIP3    H249788   3.267   6.134  16.818  1.7228  1.0106  0.2021
 9433TIP3   OH249789   5.524   5.686   5.990  0.2411  0.3368  0.0418
 9433TIP3    H149790   5.610   5.705   6.026  0.1144 -0.6860  0.9088
 9433TIP3    H249791   5.487   5.621   6.050 -0.8697  0.2961 -0.6824
 9434TIP3   OH249792   1.190   5.790  15.905  0.2429 -0.5977 -0.4130
 9434TIP3    H149793   1.174   5.860  15.968 -0.0353 -0.2097 -0.9138
 9434TIP3    H249794   1.268   5.745  15.939  0.6395  0.1728 -0.2817
 9435TIP3   OH249795   4.593   6.223  10.957  0.2487 -0.2373  0.3675
 9435TIP3    H149796   4.635   6.191  10.877 -0.9742 -0.3035 -0.2568
 9435TIP3    H249797   4.657   6.206  11.026 -0.2118 -3.7709  0.0123
 9436TIP3   OH249798   6.523   3.640  15.245  0.2843 -0.1722  0.3716
 9436TIP3    H149799   6.539   3.734  15.258 -1.6620  0.3301 -0.7253
 9436TIP3    H249800   6.485   3.611  15.328 -2.7839  0.8797 -0.6149
 9437TIP3   OH249801   2.348   1.422  15.038  0.0809 -0.7684 -0.8680
 9437TIP3    H149802   2.420   1.362  15.021 -0.3006 -1.2060 -0.9440
 9437TIP3    H249803   2.387   1.492  15.090  0.4812 -1.1873 -0.6011
 9438TIP3   OH249804   4.228   3.917  12.940 -0.0847 -0.6512 -0.1540
 9438TIP3    H149805   4.251   3.824  12.944 -1.9859 -1.1461 -0.4924
 9438TIP3    H249806   4.133   3.919  12.931 -0.2508  1.3704  1.5342
 9439TIP3   OH249807   2.034   5.458   4.796 -0.4133 -0.6702 -0.1375
 9439TIP3    H149808   2.091   5.528   4.827  0.2611 -0.9707 -0.6849
 9439TIP3    H249809   1.946   5.486   4.822 -0.0203 -0.2103  0.7137
 9440TIP3   OH249810   0.046   5.202  13.871  0.4759  0.0403 -0.0462
 9440TIP3    H149811   0.001   5.134  13.922 -1.5436  1.2798 -0.1165
 9440TIP3    H249812  -0.002   5.282  13.892  2.1481  1.2523 -0.8214
 9441TIP3   OH249813   1.193   6.101   1.306  0.9837 -0.6713  0.4833
 9441TIP3    H149814   1.128   6.141   1.249  1.3583  0.2764  0.7181
 9441TIP3    H249815   1.141   6.060   1.376  0.6093 -0.4133  0.3575
 9442TIP3   OH249816   4.473   0.441  14.328  0.1123 -0.3319 -0.1753
 9442TIP3    H149817   4.476   0.505  14.398 -0.6945 -1.2193  0.6945
 9442TIP3    H249818   4.409   0.376  14.357  1.1272 -1.6959 -0.8887
 9443TIP3   OH249819   3.246   6.737  12.677 -0.3688  0.4677 -0.3235
 9443TIP3    H149820   3.255   6.804  12.609 -0.3149  1.6691  0.8480
 9443TIP3    H249821   3.288   6.660  12.640  0.3768  1.3439 -1.3478
 9444TIP3   OH249822   6.647   1.670  16.565  0.8151 -0.3043  0.0556
 9444TIP3    H149823   6.630   1.755  16.604  0.2319 -0.5530  0.3553
 9444TIP3    H249824   6.573   1.655  16.506  0.6481 -0.8416  0.4073
 9445TIP3   OH249825   5.131   4.946  11.464  0.0909 -0.3494  0.2335
 9445TIP3    H149826   5.062   4.931  11.399  1.0199 -1.2608 -0.5715
 9445TIP3    H249827   5.190   4.871  11.453  1.4532  0.6576  0.5752
 9446TIP3   OH249828   0.892   6.436   2.487  0.4189 -0.1847 -0.1502
 9446TIP3    H149829   0.968   6.428   2.430  0.9915  2.3503  0.2195
 9446TIP3    H249830   0.896   6.526   2.520 -0.1797 -1.4165  3.4721
 9447TIP3   OH249831   6.704   4.515  17.131  0.3776 -0.4493  0.1744
 9447TIP3    H149832   6.612   4.498  17.153 -0.2404  1.5794 -0.7041
 9447TIP3    H249833   6.730   4.585  17.191  1.3976 -1.1097  0.5074
 9448TIP3   OH249834   2.135   2.802   1.334  0.1492  0.2405  0.3910
 9448TIP3    H149835   2.204   2.865   1.315  0.7606  0.1333  2.1277
 9448TIP3    H249836   2.128   2.749   1.255  0.2370  1.9017 -0.7758
 9449TIP3   OH249837   2.446   2.122   0.161 -0.4991 -0.3859  0.2740
 9449TIP3    H149838   2.443   2.027   0.164 -1.0928 -0.3654  0.4033
 9449TIP3    H249839   2.479   2.143   0.073 -0.0743 -0.7128  0.3574
 9450TIP3   OH249840   3.002   3.098  11.121  0.4196 -0.4240 -0.5868
 9450TIP3    H149841   3.040   3.139  11.044 -0.7362 -1.2211 -1.5948
 9450TIP3    H249842   3.053   3.017  11.133  1.7971  0.5874  0.5914
 9451TIP3   OH249843   5.726   6.562  12.808  0.5135 -0.4857  0.2080
 9451TIP3    H149844   5.769   6.577  12.893  1.3963 -1.1485 -0.1157
 9451TIP3    H249845   5.700   6.470  12.811 -0.3087 -0.2620  0.1303
 9452TIP3   OH249846   1.057   1.173  13.025  0.2106  0.0051  0.2623
 9452TIP3    H149847   1.148   1.201  13.035 -0.1305  1.8726 -1.4367
 9452TIP3    H249848   1.040   1.182  12.931 -1.1688 -2.1421  0.2848
 9453TIP3   OH249849   3.365   0.071  16.497  0.0367 -0.6508 -0.3352
 9453TIP3    H149850   3.390   0.002  16.558 -1.7886 -0.7928  0.2738
 9453TIP3    H249851   3.359   0.028  16.412  1.0699 -0.7689 -0.3534
 9454TIP3   OH249852   3.388   3.979   4.349  0.3759 -0.1949 -0.0757
 9454TIP3    H149853   3.355   3.946   4.265  1.1370  0.2992 -0.5742
 9454TIP3    H249854   3.482   3.967   4.344  0.2023 -2.8228  1.8766
 9455TIP3   OH249855   2.435   4.429   3.167  0.5693 -0.0266  0.2647
 9455TIP3    H149856   2.422   4.518   3.133  0.1288 -0.9434 -2.0419
 9455TIP3    H249857   2.440   4.440   3.262  0.1315  2.4141  0.0301
 9456TIP3   OH249858   2.149   6.378   5.780  0.0253 -0.1665  0.0676
 9456TIP3    H149859   2.169   6.298   5.828  0.0300 -0.9186 -1.1667
 9456TIP3    H249860   2.188   6.364   5.693 -2.9889 -0.3197 -1.3351
 9457TIP3   OH249861   3.028   3.272  15.910  0.3544 -0.0746 -0.0779
 9457TIP3    H149862   2.973   3.252  15.985  0.5936  0.3094  0.2007
 9457TIP3    H249863   3.089   3.338  15.942 -0.2695  0.9307 -0.9207
 9458TIP3   OH249864   3.693   1.776   2.527  0.1397 -0.9590  0.0744
 9458TIP3    H149865   3.731   1.753   2.612 -0.7005 -1.0522  0.4302
 9458TIP3    H249866   3.602   1.799   2.547  0.7660  2.1055 -0.3427
 9459TIP3   OH249867   2.654   0.292   1.840 -0.3512  0.0233 -0.4133
 9459TIP3    H149868   2.702   0.329   1.765  1.5676 -2.0400 -0.2532
 9459TIP3    H249869   2.568   0.334   1.837  0.7247  2.2008 -2.0111
 9460TIP3   OH249870   3.667   2.977  13.074 -0.3194  0.6309 -0.6982
 9460TIP3    H149871   3.625   2.892  13.062  0.8594 -0.2451  1.1805
 9460TIP3    H249872   3.696   3.002  12.986  1.2571 -1.9612 -0.9628
 9461TIP3   OH249873   5.516   1.608   6.474  0.0799 -0.3067  0.3274
 9461TIP3    H149874   5.558   1.600   6.388  0.3294 -1.2939  0.5334
 9461TIP3    H249875   5.454   1.680   6.464 -0.9653 -1.3912 -1.1258
 9462TIP3   OH249876   6.251   5.171  12.326  0.0403 -0.3471  0.1436
 9462TIP3    H149877   6.190   5.243  12.310  0.0222 -0.0622  1.4265
 9462TIP3    H249878   6.323   5.211  12.375  1.8664 -0.4272 -2.3787
 9463TIP3   OH249879   6.241   5.252  11.371 -0.3034 -0.2911 -0.3313
 9463TIP3    H149880   6.217   5.316  11.304 -1.8670 -1.9658 -1.4428
 9463TIP3    H249881   6.158   5.232  11.415  0.1383 -1.6574 -0.1108
 9464TIP3   OH249882   0.062   6.396   0.470  0.6430  0.3256 -0.0245
 9464TIP3    H149883   0.133   6.425   0.527  1.1964 -2.9543  1.1073
 9464TIP3    H249884   0.102   6.388   0.384  1.5709 -1.0448  0.5130
 9465TIP3   OH249885   3.480   0.289   1.999  0.0694  0.0960  0.1437
 9465TIP3    H149886   3.559   0.241   2.023 -1.0803 -0.6829  2.5304
 9465TIP3    H249887   3.410   0.247   2.049 -1.8041  1.0200 -1.6354
 9466TIP3   OH249888   1.974   6.426  15.955  0.0250  0.5534  0.8329
 9466TIP3    H149889   1.952   6.348  16.005 -0.3346  0.4847  0.5650
 9466TIP3    H249890   1.978   6.496  16.020  1.5670  0.0911  1.2630
 9467TIP3   OH249891   2.524   5.612   3.355  0.1255 -0.6491 -0.6816
 9467TIP3    H149892   2.460   5.578   3.418  0.6660  0.6336  0.5757
 9467TIP3    H249893   2.478   5.610   3.271 -1.9950  1.3300  0.3744
 9468TIP3   OH249894   1.915   6.707   4.323  0.1534  0.1414  0.1088
 9468TIP3    H149895   1.930   6.615   4.303  1.5956  0.6076 -1.0739
 9468TIP3    H249896   1.871   6.706   4.408  0.1139 -1.6362  0.0902
 9469TIP3   OH249897   5.586   5.837   5.173 -0.2532 -0.5313  0.4144
 9469TIP3    H149898   5.591   5.862   5.265 -1.0752 -1.3988  0.7030
 9469TIP3    H249899   5.674   5.804   5.153  0.2576  0.7292  0.5673
 9470TIP3   OH249900   2.874   2.993   4.429 -0.3772 -0.4439  0.3738
 9470TIP3    H149901   2.892   3.074   4.477 -0.2239  0.0775 -0.5463
 9470TIP3    H249902   2.956   2.944   4.435 -0.2697 -0.2606  0.4199
 9471TIP3   OH249903   0.810   5.164   0.334 -0.1443  0.2881  0.5507
 9471TIP3    H149904   0.773   5.174   0.422 -1.9069  0.8236 -0.2169
 9471TIP3    H249905   0.839   5.252   0.310  0.9541  0.0139  0.8511
 9472TIP3   OH249906   3.507   5.833  11.621 -0.3673  0.3543 -0.0582
 9472TIP3    H149907   3.462   5.761  11.577 -0.4504  0.0045  0.5874
 9472TIP3    H249908   3.465   5.837  11.708  1.7085 -0.8299  1.0440
 9473TIP3   OH249909   0.410   3.983  10.333  0.2429 -0.2831 -0.1570
 9473TIP3    H149910   0.496   3.956  10.300  0.5921  0.7466 -0.1320
 9473TIP3    H249911   0.363   3.902  10.347  0.7399 -0.8021 -1.4441
 9474TIP3   OH249912   0.601   3.304   5.399  0.0575  0.7209  0.0444
 9474TIP3    H149913   0.666   3.373   5.403  1.5770 -0.7529  1.2720
 9474TIP3    H249914   0.521   3.343   5.435  1.0497  1.6721  1.2379
 9475TIP3   OH249915   6.121   0.667  13.000 -0.0939 -0.0249  0.6875
 9475TIP3    H149916   6.158   0.749  12.969  0.9764 -0.6130  0.3524
 9475TIP3    H249917   6.118   0.611  12.922  0.1206 -0.6219  1.0955
 9476TIP3   OH249918   5.519   2.933  12.604  0.9000 -0.4356 -0.2026
 9476TIP3    H149919   5.465   2.869  12.651  0.7167 -0.2155 -0.1133
 9476TIP3    H249920   5.489   3.018  12.636  0.2905 -0.2578 -1.2333
 9477TIP3   OH249921   6.793   1.234   4.531  0.4330  0.2219 -0.1197
 9477TIP3    H149922   6.843   1.225   4.450  0.1325 -0.6564 -0.2111
 9477TIP3    H249923   6.839   1.301   4.581  2.3131 -1.3391  0.2696
 9478TIP3   OH249924   0.371   0.774   2.667 -0.0495  0.0290  0.5982
 9478TIP3    H149925   0.341   0.809   2.582 -0.7822 -0.4014  0.6737
 9478TIP3    H249926   0.423   0.845   2.705  2.4466 -0.6651 -1.3263
 9479TIP3   OH249927   0.484   0.931   1.068 -0.4313  0.2333 -0.3511
 9479TIP3    H149928   0.407   0.973   1.106  0.4522 -0.0853  1.9208
 9479TIP3    H249929   0.454   0.842   1.047 -0.6138 -0.0229  0.9044
 9480TIP3   OH249930   4.559   0.847   2.139  0.3632  0.3662  0.3570
 9480TIP3    H149931   4.599   0.934   2.133  0.6132  0.1917 -0.4241
 9480TIP3    H249932   4.473   0.864   2.178  1.5083  0.6424  2.8619
 9481TIP3   OH249933   6.284   1.860  11.227  0.2823 -0.4416 -0.3156
 9481TIP3    H149934   6.279   1.847  11.322  0.0642  1.9764  0.0527
 9481TIP3    H249935   6.218   1.801  11.191  1.6904 -2.8104  0.8544
 9482TIP3   OH249936   0.085   2.396  15.671  0.2253 -0.7369  0.1393
 9482TIP3    H149937   0.005   2.449  15.663  1.3938  1.2090  1.0785
 9482TIP3    H249938   0.111   2.379  15.581  0.0125  0.5717 -0.1803
 9483TIP3   OH249939   6.512   4.564   1.263  0.0241 -0.1686  0.1676
 9483TIP3    H149940   6.458   4.501   1.216  0.3035  0.2683 -0.7724
 9483TIP3    H249941   6.527   4.525   1.348  0.0325 -1.2871 -0.3394
 9484TIP3   OH249942   1.841   2.439   1.972  0.6912 -0.0374  0.5710
 9484TIP3    H149943   1.872   2.492   1.899  1.8775 -0.2710  0.8905
 9484TIP3    H249944   1.754   2.409   1.945  0.9985  0.1184 -0.6123
 9485TIP3   OH249945   1.491   0.434   4.563 -0.4009  0.1931  0.3125
 9485TIP3    H149946   1.576   0.453   4.524 -2.0243  3.2135 -1.9623
 9485TIP3    H249947   1.488   0.486   4.643 -0.3580  0.6825  0.0014
 9486TIP3   OH249948   5.853   0.917  14.230  0.4496 -0.3128  0.6439
 9486TIP3    H149949   5.912   0.842  14.230  0.3404 -0.3985  0.2426
 9486TIP3    H249950   5.885   0.974  14.160  0.7431  0.1804  1.1756
 9487TIP3   OH249951   4.917   0.339   5.678  0.5295  0.1438  0.7435
 9487TIP3    H149952   4.957   0.251   5.675  1.0780  0.3920  0.5822
 9487TIP3    H249953   4.835   0.329   5.629  1.0759 -0.0441 -0.1570
 9488TIP3   OH249954   5.098   6.760  14.875  0.1814 -0.3180  0.1806
 9488TIP3    H149955   5.045   6.840  14.865  1.2528  0.5089  0.9856
 9488TIP3    H249956   5.129   6.741  14.786  0.3468  0.4671  0.0629
 9489TIP3   OH249957   1.455   0.547  14.443  0.0681 -0.7010 -0.7778
 9489TIP3    H149958   1.545   0.532  14.412 -0.8239 -1.6970 -2.9601
 9489TIP3    H249959   1.413   0.461  14.438 -2.1732  0.4843 -3.7274
 9490TIP3   OH249960   5.704   4.637  12.579 -0.1238  0.1460 -0.4602
 9490TIP3    H149961   5.774   4.572  12.574  0.0807  0.3507 -0.2742
 9490TIP3    H249962   5.644   4.603  12.646  0.1303  0.2913 -0.1574
 9491TIP3   OH249963   1.807   1.161  14.646 -0.6129  0.4413 -0.3466
 9491TIP3    H149964   1.814   1.245  14.692 -0.0857  0.4886 -0.5234
 9491TIP3    H249965   1.733   1.118  14.689 -2.2953  1.8941 -1.6877
 9492TIP3   OH249966   3.797   2.694   1.427 -0.0082  0.0852 -0.0140
 9492TIP3    H149967   3.858   2.650   1.486  0.0241  1.3543  0.9281
 9492TIP3    H249968   3.838   2.779   1.410 -1.1236  0.6341 -0.0119
 9493TIP3   OH249969   6.560   2.615   3.629  0.6232 -0.3987 -0.0432
 9493TIP3    H149970   6.622   2.656   3.568  0.7022 -1.6153 -0.7813
 9493TIP3    H249971   6.484   2.673   3.627 -0.1599 -1.4506 -2.8073
 9494TIP3   OH249972   3.692   4.332   6.447  0.8626  0.0003  0.2159
 9494TIP3    H149973   3.715   4.245   6.415  0.0675 -0.1644  0.0963
 9494TIP3    H249974   3.622   4.361   6.389  1.0629  0.6863  0.3087
 9495TIP3   OH249975   4.648   2.387   2.953 -0.1623 -0.1385  0.5625
 9495TIP3    H149976   4.681   2.462   2.904  1.4549 -2.4485 -2.0746
 9495TIP3    H249977   4.558   2.376   2.923  0.9122 -1.7373 -2.3213
 9496TIP3   OH249978   3.159   1.253  16.763 -0.0131 -0.2756 -0.2470
 9496TIP3    H149979   3.191   1.206  16.686 -0.2047 -1.0226  0.1300
 9496TIP3    H249980   3.152   1.187  16.831 -3.2628 -0.3410 -0.5697
 9497TIP3   OH249981   0.838   3.716   2.987 -0.0525 -0.1330  0.1021
 9497TIP3    H149982   0.837   3.648   2.920  0.0082 -1.1269  1.1107
 9497TIP3    H249983   0.899   3.684   3.054 -0.9387  0.3458  1.1541
 9498TIP3   OH249984   3.743   0.403  13.199  0.0612 -0.0951  0.1726
 9498TIP3    H149985   3.658   0.431  13.164 -0.9185 -1.3662  1.4396
 9498TIP3    H249986   3.796   0.385  13.122 -0.7030  1.0245 -0.6474
 9499TIP3   OH249987   5.601   3.483  13.377 -0.3658  0.5278  0.4941
 9499TIP3    H149988   5.671   3.508  13.436  1.0753 -1.6965 -0.1969
 9499TIP3    H249989   5.604   3.548  13.306 -0.5489  1.7960  1.6382
 9500TIP3   OH249990   0.387   1.550  15.726  0.1340 -0.0668  1.0082
 9500TIP3    H149991   0.473   1.525  15.758 -0.2665 -0.4009  1.8423
 9500TIP3    H249992   0.351   1.605  15.795  0.0052  0.7612  0.2929
 9501TIP3   OH249993   0.594   0.527   1.098  0.6357  0.8503  0.1963
 9501TIP3    H149994   0.521   0.557   1.151 -0.5987 -0.3537 -0.7883
 9501TIP3    H249995   0.594   0.584   1.022 -0.2091 -0.0817 -0.5122
 9502TIP3   OH249996   3.518   4.116  10.989 -0.3947 -0.5017 -0.6512
 9502TIP3    H149997   3.601   4.155  10.961  1.4766 -2.1941  2.2112
 9502TIP3    H249998   3.473   4.186  11.037  0.4553 -0.2454 -0.2196
 9503TIP3   OH249999   5.193   4.653   4.928 -0.0660 -0.0360 -0.7130
 9503TIP3    H150000   5.100   4.633   4.939 -0.4754  2.0412 -0.2844
 9503TIP3    H250001   5.197   4.748   4.923  2.2499  0.0205  1.2385
 9504TIP3   OH250002   3.678   2.143   1.474  0.6030 -0.0763 -0.5324
 9504TIP3    H150003   3.642   2.111   1.391  1.0895  0.4026 -0.9327
 9504TIP3    H250004   3.623   2.218   1.496  0.4235 -0.2518 -0.3745
 9505TIP3   OH250005   0.842   3.185   4.702 -0.0260 -0.5110  0.0887
 9505TIP3    H150006   0.833   3.094   4.672  0.0435 -0.5423  0.1593
 9505TIP3    H250007   0.784   3.191   4.778  0.0331 -0.5215  0.1357
 9506TIP3   OH250008   0.746   1.981   2.540  0.0443 -0.3320 -0.2497
 9506TIP3    H150009   0.792   1.953   2.461 -2.1903 -3.0294 -0.6612
 9506TIP3    H250010   0.662   2.014   2.509  0.3013  1.3452  0.7817
 9507TIP3   OH250011   4.852   5.865   3.180  0.1032  0.7515 -0.7417
 9507TIP3    H150012   4.944   5.892   3.184 -0.4306  2.3887  1.1469
 9507TIP3    H250013   4.821   5.900   3.097  1.1371  0.3393 -1.3182
 9508TIP3   OH250014   1.647   4.218  11.832  0.4609  0.4552  0.4737
 9508TIP3    H150015   1.639   4.220  11.737 -1.2312 -1.1850  0.5553
 9508TIP3    H250016   1.691   4.135  11.851  0.3937  0.5696  1.1519
 9509TIP3   OH250017   0.095   0.412   3.988 -0.4840  0.1642 -0.2210
 9509TIP3    H150018   0.133   0.350   4.050  0.0318 -0.8122 -1.4947
 9509TIP3    H250019   0.033   0.359   3.936 -1.8248  1.2242  0.2600
 9510TIP3   OH250020   0.774   0.338  14.034  0.2317  0.3162 -0.0021
 9510TIP3    H150021   0.861   0.302  14.049 -1.0242 -1.8225  2.4137
 9510TIP3    H250022   0.754   0.315  13.943  1.5673 -0.4844 -0.1077
 9511TIP3   OH250023   4.970   2.966  13.310  0.1532 -0.0155 -0.1786
 9511TIP3    H150024   5.034   2.952  13.240 -0.1823 -0.1082 -0.4648
 9511TIP3    H250025   4.931   3.051  13.291  1.0197  0.5785  0.6497
 9512TIP3   OH250026   4.993   0.931  16.135  0.1542 -0.3898 -0.2822
 9512TIP3    H150027   5.051   0.857  16.119 -0.2880 -0.0084 -4.0290
 9512TIP3    H250028   4.905   0.896  16.119 -0.3400  0.1169  1.2170
 9513TIP3   OH250029   0.948   4.822   0.185 -0.3768 -0.2919  0.6125
 9513TIP3    H150030   0.973   4.793   0.097 -1.2121 -0.6688  0.5024
 9513TIP3    H250031   0.982   4.912   0.190  0.7154 -0.6750  0.3427
 9514TIP3   OH250032   0.549   6.457   0.852 -0.0104  0.1377 -0.1625
 9514TIP3    H150033   0.512   6.544   0.865  0.3205  0.3492 -0.6296
 9514TIP3    H250034   0.475   6.398   0.868  0.0590  0.4441  1.2780
 9515TIP3   OH250035   6.184   3.418   2.714  0.0231  0.6179  0.1419
 9515TIP3    H150036   6.130   3.345   2.685 -1.4097  0.7930  2.2830
 9515TIP3    H250037   6.141   3.496   2.678  2.2641  0.3919 -3.2299
 9516TIP3   OH250038   5.597   5.484   3.304  0.5574  0.0683  0.5004
 9516TIP3    H150039   5.678   5.434   3.291 -0.6434 -1.4616 -1.3567
 9516TIP3    H250040   5.529   5.431   3.263 -1.6108  0.7650  3.0812
 9517TIP3   OH250041   6.372   5.953  13.074 -0.4382 -0.3918 -0.1020
 9517TIP3    H150042   6.436   6.024  13.077 -0.3158 -0.5722  2.7390
 9517TIP3    H250043   6.291   5.992  13.108 -0.6843 -1.3080  0.3747
 9518TIP3   OH250044   6.509   0.182  12.897 -0.2543 -0.1191 -0.0337
 9518TIP3    H150045   6.529   0.121  12.826 -0.2783 -0.3779  0.1791
 9518TIP3    H250046   6.481   0.125  12.969  0.9468  0.0540  0.5806
 9519TIP3   OH250047   2.667   0.190   7.077  0.4727 -0.0453  0.2220
 9519TIP3    H150048   2.623   0.256   7.024  0.5783  0.6240  0.9659
 9519TIP3    H250049   2.614   0.182   7.156  0.1606 -1.2450 -0.1000
 9520TIP3   OH250050   3.824   0.321   5.581  1.1168  0.5589  0.4937
 9520TIP3    H150051   3.734   0.350   5.594  0.7770 -0.4349  0.4260
 9520TIP3    H250052   3.850   0.285   5.666  0.4595 -1.7527 -0.2410
 9521TIP3   OH250053   4.344   1.607  17.167 -0.4922  0.1652  0.0452
 9521TIP3    H150054   4.387   1.605  17.082 -1.5761 -0.4732 -0.4995
 9521TIP3    H250055   4.283   1.680  17.162  2.3074  2.7351  1.7331
 9522TIP3   OH250056   4.348   1.923  16.299 -0.6771  0.1650  0.6837
 9522TIP3    H150057   4.404   1.893  16.227 -2.9187  2.2298 -2.0246
 9522TIP3    H250058   4.394   2.000  16.335 -0.3518  0.1062  0.3897
 9523TIP3   OH250059   5.811   4.479   1.056  0.4040  0.0318 -0.2875
 9523TIP3    H150060   5.718   4.485   1.035  0.3931  1.0924 -0.0014
 9523TIP3    H250061   5.855   4.509   0.977  0.4038  2.4669  0.5826
 9524TIP3   OH250062   3.633   6.346   4.960  0.0447 -0.0297 -0.4170
 9524TIP3    H150063   3.590   6.312   5.039 -1.7999  0.6056 -1.1288
 9524TIP3    H250064   3.579   6.315   4.888 -0.1892  2.1889 -1.2306
 9525TIP3   OH250065   5.761   6.728   1.125 -0.0105 -0.2795 -0.4176
 9525TIP3    H150066   5.769   6.633   1.123  2.1157 -0.1147 -0.2180
 9525TIP3    H250067   5.666   6.744   1.129 -0.3223 -2.4006  1.1773
 9526TIP3   OH250068   1.382   5.373  12.715  0.6177 -0.8715  0.2164
 9526TIP3    H150069   1.465   5.350  12.756  1.4032 -2.9077 -2.3459
 9526TIP3    H250070   1.372   5.310  12.644 -3.0282 -0.5072  0.2992
 9527TIP3   OH250071   0.763   0.074   5.728 -0.0618  0.5845 -0.1165
 9527TIP3    H150072   0.823   0.004   5.751 -1.1246 -0.1717  0.4038
 9527TIP3    H250073   0.767   0.079   5.632 -0.1317 -0.3324 -0.1727
 9528TIP3   OH250074   5.732   2.004  10.666 -0.1908  0.2817 -0.1199
 9528TIP3    H150075   5.796   1.972  10.731  1.1758 -0.0578 -1.6057
 9528TIP3    H250076   5.662   2.042  10.719 -0.5045 -2.5777  1.6746
 9529TIP3   OH250077   3.289   4.232   4.186 -0.4530 -0.2138 -0.3037
 9529TIP3    H150078   3.204   4.190   4.192 -1.2324  1.4406  0.5209
 9529TIP3    H250079   3.339   4.195   4.260 -0.3321 -1.4222 -0.9829
 9530TIP3   OH250080   6.540   0.777   3.628  0.3624  0.5809 -0.1031
 9530TIP3    H150081   6.541   0.790   3.723 -0.9071 -0.3229  0.0369
 9530TIP3    H250082   6.632   0.759   3.606  0.5992  0.3807  1.0044
 9531TIP3   OH250083   4.008   0.034   4.177 -0.9041  0.4414 -0.7703
 9531TIP3    H150084   4.026   0.099   4.245  1.4386 -1.2275  0.2651
 9531TIP3    H250085   4.083   0.041   4.118 -1.8734  0.3922 -2.0282
 9532TIP3   OH250086   3.131   0.859   2.605 -0.0074  0.1305  1.1773
 9532TIP3    H150087   3.191   0.933   2.598  1.0569 -0.8325 -0.1846
 9532TIP3    H250088   3.171   0.802   2.670 -0.2500  0.2366  1.4165
 9533TIP3   OH250089   3.210   1.937   0.574 -0.0079 -0.0557 -0.1659
 9533TIP3    H150090   3.165   1.863   0.616  1.2897 -0.2269  0.9919
 9533TIP3    H250091   3.302   1.909   0.570  0.6890  1.8969  1.2726
 9534TIP3   OH250092   2.347   6.356   1.145 -0.2446 -0.0259 -0.4256
 9534TIP3    H150093   2.403   6.423   1.105  0.3620  0.4578  1.1997
 9534TIP3    H250094   2.406   6.284   1.166 -0.2365  0.4289  1.1689
 9535TIP3   OH250095   3.435   0.101  13.453 -0.1879 -0.2273  0.4132
 9535TIP3    H150096   3.367   0.143  13.505 -0.0431  0.4742  0.0365
 9535TIP3    H250097   3.452   0.018  13.499 -0.4358  0.1418  1.1831
 9536TIP3   OH250098   2.926   3.114  10.451  0.2253  0.6975  0.1495
 9536TIP3    H150099   2.924   3.090  10.544  0.2907 -1.1377 -0.3008
 9536TIP3    H250100   2.835   3.133  10.429  0.1370  0.6508  0.4711
 9537TIP3   OH250101   4.981   3.369   2.606 -0.3120 -0.0856 -0.1202
 9537TIP3    H150102   5.068   3.374   2.566 -0.1038 -1.8925  0.0570
 9537TIP3    H250103   4.921   3.377   2.532  0.0227  0.0278 -0.3829
 9538TIP3   OH250104   2.098   0.617   5.839 -0.6228 -0.2260 -0.7486
 9538TIP3    H150105   2.179   0.621   5.788 -0.1210  0.9996  0.1119
 9538TIP3    H250106   2.077   0.524   5.844  1.7301 -0.7257  0.5195
 9539TIP3   OH250107   6.298   1.243   5.056 -0.5010  0.3651  0.5537
 9539TIP3    H150108   6.338   1.161   5.027 -0.1908  0.5072  0.5854
 9539TIP3    H250109   6.271   1.287   4.975 -1.0032  0.0621  0.5514
 9540TIP3   OH250110   3.144   5.246  14.836  0.1445  0.6826  0.4408
 9540TIP3    H150111   3.103   5.301  14.769 -2.2109 -0.9686  0.4777
 9540TIP3    H250112   3.116   5.285  14.919 -1.6836 -0.6296  0.4688
 9541TIP3   OH250113   2.134   2.971  13.048  0.4655  0.4745  0.0588
 9541TIP3    H150114   2.229   2.969  13.053  0.4007  1.3029  2.7241
 9541TIP3    H250115   2.110   3.058  13.080 -1.1526  0.5424 -1.2665
 9542TIP3   OH250116   1.687   2.836   0.871  0.3044 -0.4157  0.0936
 9542TIP3    H150117   1.679   2.806   0.961 -1.2623  0.1353  0.1487
 9542TIP3    H250118   1.712   2.928   0.877  0.4984 -0.4593 -0.0321
 9543TIP3   OH250119   3.003   2.510  10.649  0.0854  0.0122 -0.2969
 9543TIP3    H150120   3.036   2.446  10.585  2.5259  1.9790 -1.0733
 9543TIP3    H250121   3.077   2.524  10.709 -1.0840  0.6680  1.0037
 9544TIP3   OH250122   1.826   3.164  10.639 -0.2562 -0.1332  0.7182
 9544TIP3    H150123   1.918   3.144  10.657 -0.0025 -0.5476 -0.9662
 9544TIP3    H250124   1.778   3.089  10.674  0.2247 -0.9320 -0.3105
 9545TIP3   OH250125   4.678   5.243   6.067 -0.1060 -0.0895 -0.0945
 9545TIP3    H150126   4.585   5.221   6.057  0.0054  0.4807 -2.6243
 9545TIP3    H250127   4.707   5.189   6.140 -2.1440 -1.1625 -0.0275
 9546TIP3   OH250128   2.200   6.020   4.321  0.0244 -0.5612  0.1318
 9546TIP3    H150129   2.202   6.092   4.257  2.9305 -1.7108 -1.1408
 9546TIP3    H250130   2.133   5.960   4.288  0.5750 -0.4953 -1.1250
 9547TIP3   OH250131   5.869   3.985   1.324 -0.4814  0.4005  0.1358
 9547TIP3    H150132   5.919   4.014   1.401  0.0336  0.1420 -0.0972
 9547TIP3    H250133   5.847   4.066   1.278  0.2136  0.4854 -0.0591
 9548TIP3   OH250134   2.430   0.900  17.144  0.1235  0.0590  0.3439
 9548TIP3    H150135   2.524   0.900  17.125  0.1534  2.7253  0.2130
 9548TIP3    H250136   2.425   0.904  17.239  0.1285 -0.5516  0.3721
 9549TIP3   OH250137   1.759   5.055   1.232  0.3802  0.9302  0.3210
 9549TIP3    H150138   1.699   5.040   1.159 -1.1356  1.0195  1.5146
 9549TIP3    H250139   1.783   4.968   1.263  2.1752  0.8714 -1.1808
 9550TIP3   OH250140   6.355   2.648  13.443 -0.0441 -0.2075 -0.2398
 9550TIP3    H150141   6.405   2.729  13.431  2.7868 -1.6761  1.0241
 9550TIP3    H250142   6.386   2.591  13.372  0.6183 -1.3589  0.9364
 9551TIP3   OH250143   1.817   0.548   1.549 -0.9006 -0.4559 -0.1088
 9551TIP3    H150144   1.732   0.575   1.584 -0.9306 -0.0704 -0.4752
 9551TIP3    H250145   1.854   0.628   1.512 -0.8545 -0.8467 -0.9238
 9552TIP3   OH250146   4.755   4.556   5.944  0.1284 -0.2616  0.2308
 9552TIP3    H150147   4.806   4.538   6.023  0.7016  1.5723  0.2866
 9552TIP3    H250148   4.691   4.621   5.971 -1.3784 -1.5207 -0.1962
 9553TIP3   OH250149   0.297   0.088   4.438  0.1490  0.1351 -0.8784
 9553TIP3    H150150   0.218   0.049   4.399  0.4929 -1.4646 -0.0085
 9553TIP3    H250151   0.282   0.082   4.532  1.6140 -0.8632 -0.6929
 9554TIP3   OH250152   3.342   4.957   6.607  0.5054  0.4937 -0.0367
 9554TIP3    H150153   3.385   5.025   6.554 -1.5262  2.6724  0.9827
 9554TIP3    H250154   3.299   4.900   6.543  0.2162  1.6129 -0.8638
 9555TIP3   OH250155   1.578   2.583   1.784 -0.2443  0.3572 -0.0857
 9555TIP3    H150156   1.552   2.521   1.716 -0.5956  1.4152 -0.9197
 9555TIP3    H250157   1.508   2.577   1.850  0.3297 -1.0007  0.4101
 9556TIP3   OH250158   3.613   0.761   3.857  0.1243 -0.1624 -0.1071
 9556TIP3    H150159   3.536   0.740   3.804  0.3892 -0.3213 -0.4290
 9556TIP3    H250160   3.609   0.856   3.869  0.7263  0.0351 -1.4256
 9557TIP3   OH250161   0.429   3.676   3.863 -0.1616 -0.2479  0.2535
 9557TIP3    H150162   0.374   3.609   3.903  0.0806  0.2637  1.4928
 9557TIP3    H250163   0.452   3.734   3.936  1.0052  0.2310 -0.4812
 9558TIP3   OH250164   6.372   4.998   4.823 -0.5326 -0.6208  0.1929
 9558TIP3    H150165   6.292   5.051   4.816  0.5789  0.7920 -2.7314
 9558TIP3    H250166   6.415   5.031   4.902 -1.2788  0.8711  0.0068
 9559TIP3   OH250167   1.912   0.639  16.846 -0.0632  0.4052  0.1143
 9559TIP3    H150168   1.956   0.554  16.851 -1.6087 -0.4023  0.1000
 9559TIP3    H250169   1.871   0.640  16.759 -1.9941  0.1977  1.0096
 9560TIP3   OH250170   5.944   3.167   4.617  0.5263 -0.4263  0.0905
 9560TIP3    H150171   6.024   3.213   4.594  0.3653 -0.0586  0.2591
 9560TIP3    H250172   5.874   3.221   4.581  0.3204 -0.3493  0.6074
 9561TIP3   OH250173   2.546   1.924   4.762  0.0442  0.0672  0.2513
 9561TIP3    H150174   2.533   1.981   4.686  0.2987  1.4538  1.2205
 9561TIP3    H250175   2.460   1.886   4.779 -0.3227  0.8334  0.1135
 9562TIP3   OH250176   0.495   4.165  10.940 -0.3866 -0.2857  0.3614
 9562TIP3    H150177   0.405   4.162  10.974 -0.3607  0.4428  0.4952
 9562TIP3    H250178   0.545   4.110  11.000 -1.0732 -2.1547 -0.7400
 9563TIP3   OH250179   4.355   0.832  16.233  0.0951  0.3074  0.2801
 9563TIP3    H150180   4.438   0.838  16.281  0.1210 -1.6887  0.5189
 9563TIP3    H250181   4.292   0.878  16.288  0.9502  1.5000  0.2822
 9564TIP3   OH250182   1.084   5.458   4.198  0.4658  0.3322  0.1419
 9564TIP3    H150183   1.095   5.419   4.284  3.4524 -1.1528 -0.8670
 9564TIP3    H250184   1.168   5.499   4.179  0.1981 -0.2612 -2.5132
 9565TIP3   OH250185   0.517   1.866   3.563  0.1589 -0.2580  0.9698
 9565TIP3    H150186   0.481   1.873   3.475  1.7714 -0.5416  0.2775
 9565TIP3    H250187   0.478   1.940   3.611 -0.2738  0.2306 -0.1229
 9566TIP3   OH250188   5.979   0.863   1.333  0.4687 -0.5556  0.3493
 9566TIP3    H150189   5.885   0.879   1.346  0.5319  0.4417 -0.3218
 9566TIP3    H250190   5.994   0.884   1.240  1.5280  0.2154  0.6829
 9567TIP3   OH250191   4.578   0.069  14.619 -0.3304 -0.2922  0.0434
 9567TIP3    H150192   4.516   0.127  14.576  0.4367  0.3139 -0.2619
 9567TIP3    H250193   4.592   0.110  14.705  2.1928  1.4386 -1.1292
 9568TIP3   OH250194   0.628   1.261   5.340  0.4114 -0.2677 -0.5129
 9568TIP3    H150195   0.713   1.289   5.373  0.8533 -1.4585 -0.6237
 9568TIP3    H250196   0.588   1.215   5.414  0.4573 -0.9442 -0.9024
 9569TIP3   OH250197   3.844   3.201   3.406 -0.1231 -0.0806 -0.3140
 9569TIP3    H150198   3.796   3.169   3.330 -0.1616  0.8931 -0.7045
 9569TIP3    H250199   3.871   3.289   3.382  2.1564 -0.7288 -0.2289
 9570TIP3   OH250200   1.374   0.989  12.815 -0.6355 -0.0377  0.4179
 9570TIP3    H150201   1.430   1.058  12.848 -1.5844  1.3773 -0.8591
 9570TIP3    H250202   1.393   0.985  12.721 -1.7968 -0.3454  0.1790
 9571TIP3   OH250203   6.584   4.470  12.487  0.1481  0.7027 -0.7484
 9571TIP3    H150204   6.680   4.461  12.490  0.2780  1.6520 -1.8274
 9571TIP3    H250205   6.569   4.544  12.428 -1.2335  0.9319 -0.1233
 9572TIP3   OH250206   6.369   2.084  11.633 -0.1705  0.0520 -0.2964
 9572TIP3    H150207   6.399   2.006  11.587 -0.9881  0.1785 -1.0529
 9572TIP3    H250208   6.402   2.073  11.722 -0.2801 -1.1508 -0.4018
 9573TIP3   OH250209   3.893   4.264   1.083  0.0469  0.2849  0.1898
 9573TIP3    H150210   3.889   4.184   1.029 -2.6060 -0.5485  1.5215
 9573TIP3    H250211   3.914   4.334   1.020 -2.0539 -0.7966 -1.8159
 9574TIP3   OH250212   1.600   2.390   1.582 -0.4085  0.3490  0.1052
 9574TIP3    H150213   1.627   2.373   1.492 -0.4710  1.1586 -0.0710
 9574TIP3    H250214   1.670   2.352   1.635 -1.1326 -1.5198 -0.2289
 9575TIP3   OH250215   2.625   1.745   5.390 -0.0118 -0.0203  0.1295
 9575TIP3    H150216   2.683   1.674   5.416 -1.0034 -1.1120 -0.5656
 9575TIP3    H250217   2.649   1.763   5.299  1.3363  1.6604  0.7923
 9576TIP3   OH250218   1.819   3.973  13.562 -0.3353  0.2662  0.7235
 9576TIP3    H150219   1.757   3.905  13.588 -0.9534  0.0959 -1.1531
 9576TIP3    H250220   1.771   4.055  13.575 -0.1424  0.2676  1.4630
 9577TIP3   OH250221   5.979   4.677  12.090  0.4288  0.4289 -0.0138
 9577TIP3    H150222   5.970   4.765  12.053  0.7309  0.8407  0.8786
 9577TIP3    H250223   5.928   4.621  12.032 -1.2737  1.4810  0.4543
 9578TIP3   OH250224   4.327   2.465   1.362 -0.4027  0.4539  0.0451
 9578TIP3    H150225   4.314   2.455   1.268 -1.1807 -1.1244  0.3068
 9578TIP3    H250226   4.270   2.399   1.401 -0.3176  1.2995  1.6364
 9579TIP3   OH250227   3.127   4.078   2.386  0.3280  0.0979  0.2124
 9579TIP3    H150228   3.099   4.012   2.322 -0.3780 -0.0240  0.6456
 9579TIP3    H250229   3.124   4.160   2.337 -2.1829  0.3018  0.6202
 9580TIP3   OH250230   2.236   0.566  12.985 -0.2107  0.0981  0.1145
 9580TIP3    H150231   2.142   0.551  12.969 -0.6617  3.0709 -0.3153
 9580TIP3    H250232   2.248   0.541  13.076 -1.0196 -2.0437 -0.3405
 9581TIP3   OH250233   2.189   1.209  12.003 -0.2057 -0.3837  0.7033
 9581TIP3    H150234   2.177   1.128  12.052 -2.0464  0.8241  2.3852
 9581TIP3    H250235   2.165   1.278  12.066  2.6425  1.5544 -0.2184
 9582TIP3   OH250236   5.040   3.298  12.573  0.3371  0.1494 -0.0273
 9582TIP3    H150237   4.990   3.240  12.630 -0.0756  0.3361 -0.1949
 9582TIP3    H250238   5.080   3.361  12.633 -1.0601  1.0722 -0.0293
 9583TIP3   OH250239   1.556   4.481  13.167  0.4828  0.6199 -0.2211
 9583TIP3    H150240   1.472   4.486  13.121  1.4913  1.7656 -1.9983
 9583TIP3    H250241   1.601   4.562  13.144  1.8311  0.3042  1.2292
 9584TIP3   OH250242   3.544   1.403   5.082 -0.0936 -0.0960 -0.6884
 9584TIP3    H150243   3.556   1.361   5.167 -0.2996 -0.0725 -0.6487
 9584TIP3    H250244   3.474   1.467   5.095  1.0866  1.1619 -0.4354
 9585TIP3   OH250245   4.404   1.559  16.299 -0.4799 -0.1203  0.0485
 9585TIP3    H150246   4.443   1.479  16.265 -0.4045  0.0960 -0.3740
 9585TIP3    H250247   4.334   1.580  16.238 -1.2841 -0.5231  0.8237
 9586TIP3   OH250248   6.810   2.625  13.358 -0.0261 -0.1443 -0.5649
 9586TIP3    H150249   6.885   2.574  13.390  0.2679 -0.4755 -1.7518
 9586TIP3    H250250   6.751   2.560  13.320 -0.0526  0.3038 -1.2974
 9587TIP3   OH250251   2.712   5.416   1.233  0.4750  0.0563  0.0982
 9587TIP3    H150252   2.774   5.352   1.195  1.4709  1.0212  0.0705
 9587TIP3    H250253   2.732   5.415   1.326  2.2475  2.1629 -0.2236
 9588TIP3   OH250254   0.914   2.432   1.383 -0.6300 -0.2357 -0.0900
 9588TIP3    H150255   0.877   2.436   1.295  3.4718 -1.0296 -1.9593
 9588TIP3    H250256   0.939   2.340   1.394  0.9092  0.3029  1.0178
 9589TIP3   OH250257   4.525   0.226   2.872 -0.1041  0.0330  0.2873
 9589TIP3    H150258   4.617   0.221   2.847  0.0996 -0.3547  1.1188
 9589TIP3    H250259   4.525   0.266   2.958 -0.7542  0.5505  0.0501
 9590TIP3   OH250260   6.545   1.920  14.443 -0.0310 -0.7661 -0.1148
 9590TIP3    H150261   6.542   2.010  14.410 -1.8917 -0.4430  0.8582
 9590TIP3    H250262   6.631   1.911  14.482  0.5995  0.2244 -1.2461
 9591TIP3   OH250263   4.583   5.003  12.575  0.2131  0.7054 -0.2353
 9591TIP3    H150264   4.551   4.978  12.489 -0.3336 -1.2181  0.4938
 9591TIP3    H250265   4.535   5.083  12.597 -0.2635  0.7299 -1.3501
 9592TIP3   OH250266   1.476   4.485  15.561 -0.3424  0.6485 -0.3536
 9592TIP3    H150267   1.513   4.520  15.642  0.7779 -0.5772 -0.3110
 9592TIP3    H250268   1.382   4.486  15.576 -0.1072 -0.6544  1.4688
 9593TIP3   OH250269   1.878   3.621   4.186  0.0455 -0.4508  1.0905
 9593TIP3    H150270   1.968   3.596   4.207 -0.4400 -2.5967  0.6736
 9593TIP3    H250271   1.873   3.620   4.091  0.0056  1.3087  1.0461
 9594TIP3   OH250272   3.706   2.881  14.621 -0.0568  0.1832 -0.6437
 9594TIP3    H150273   3.766   2.952  14.643 -0.2032  0.1954 -0.2862
 9594TIP3    H250274   3.631   2.893  14.678  0.0082 -0.3794 -0.4316
 9595TIP3   OH250275   2.216   5.386   4.572  0.0526 -0.6817  0.1026
 9595TIP3    H150276   2.223   5.466   4.519  1.4150 -0.4106  0.6714
 9595TIP3    H250277   2.202   5.418   4.661  2.6365 -1.0176  0.6510
 9596TIP3   OH250278   5.404   2.434   1.852  0.6521  0.2924 -0.1666
 9596TIP3    H150279   5.421   2.416   1.944 -2.2780  0.8084  0.5140
 9596TIP3    H250280   5.329   2.379   1.830  1.6378 -0.2197 -2.3954
 9597TIP3   OH250281   0.381   5.404   2.921  0.0691 -0.2516  0.1416
 9597TIP3    H150282   0.358   5.497   2.927 -0.2081 -0.3085 -0.0390
 9597TIP3    H250283   0.299   5.358   2.938  0.7617 -0.5098  3.1276
 9598TIP3   OH250284   6.197   1.762  16.558 -0.4343  0.2561  0.1323
 9598TIP3    H150285   6.147   1.841  16.539  0.1047  0.4752 -0.3896
 9598TIP3    H250286   6.229   1.775  16.648 -2.2741 -0.4082  0.9179
 9599TIP3   OH250287   2.856   1.544   5.830 -0.3182  0.2791  0.1240
 9599TIP3    H150288   2.891   1.625   5.793  0.6223 -0.5741 -0.8752
 9599TIP3    H250289   2.835   1.489   5.754 -0.7020 -0.5243  0.7978
 9600TIP3   OH250290   4.349   2.378  16.557  0.3925 -0.0265  0.0957
 9600TIP3    H150291   4.430   2.365  16.607  0.6308 -0.1959 -0.3315
 9600TIP3    H250292   4.337   2.473  16.554 -1.0122 -0.0502  2.6994
 9601TIP3   OH250293   4.835   5.545  15.068  0.2003  0.1708  0.3158
 9601TIP3    H150294   4.907   5.541  15.006 -0.2776 -1.3668 -0.1512
 9601TIP3    H250295   4.764   5.496  15.027 -0.5851  0.3015  1.4664
 9602TIP3   OH250296   3.050   5.368  13.998  0.2772 -0.1194 -0.1804
 9602TIP3    H150297   2.995   5.350  13.922  1.4626  0.1368 -1.1041
 9602TIP3    H250298   3.054   5.463  14.002  1.1539 -0.1416 -0.4824
 9603TIP3   OH250299   4.552   6.764   6.317  0.3259  0.4647  0.1767
 9603TIP3    H150300   4.596   6.720   6.390 -0.0335  2.0700  1.3840
 9603TIP3    H250301   4.595   6.849   6.310 -2.2755  1.9052  1.1248
 9604TIP3   OH250302   5.667   0.939   4.888 -0.3245 -0.7126 -0.5254
 9604TIP3    H150303   5.714   1.021   4.874 -1.4382 -0.1155 -0.8113
 9604TIP3    H250304   5.704   0.879   4.823 -1.8918  0.5694 -2.6445
 9605TIP3   OH250305   4.544   1.386  13.910 -0.0312 -0.2053 -0.4176
 9605TIP3    H150306   4.546   1.477  13.936  1.9680 -0.5288  0.6518
 9605TIP3    H250307   4.635   1.359  13.910 -0.5804 -2.1556 -0.9179
 9606TIP3   OH250308   6.511   0.454  11.228  0.2933  0.6479 -0.3836
 9606TIP3    H150309   6.477   0.540  11.250  0.8814  0.7415  0.1804
 9606TIP3    H250310   6.449   0.419  11.164 -0.6750  0.9517  0.3766
 9607TIP3   OH250311   4.135   0.988  17.161  0.4228 -0.6029 -0.7256
 9607TIP3    H150312   4.054   0.975  17.210  0.3536  0.8748 -0.4175
 9607TIP3    H250313   4.177   0.903  17.161 -0.1988 -0.9154  0.7935
 9608TIP3   OH250314   2.526   0.014   5.077  0.4701  0.4948  0.3733
 9608TIP3    H150315   2.465  -0.032   5.019  0.1361  0.8390  0.4497
 9608TIP3    H250316   2.541  -0.047   5.149  0.3234  0.3548  0.2844
 9609TIP3   OH250317   2.085   3.175  11.421  0.3722  0.6573  0.3002
 9609TIP3    H150318   2.013   3.114  11.441  0.3300  0.5703 -0.1064
 9609TIP3    H250319   2.123   3.141  11.340  1.4837  0.1584  1.0202
 9610TIP3   OH250320   6.342   5.718  13.832 -0.5512 -0.6211 -0.3421
 9610TIP3    H150321   6.311   5.801  13.795  0.2793  0.9999  2.5221
 9610TIP3    H250322   6.352   5.661  13.755 -0.7005  2.0304 -2.4126
 9611TIP3   OH250323   6.808   0.544  14.940 -0.3556  0.7177  0.4109
 9611TIP3    H150324   6.738   0.480  14.928 -1.2715  1.1341  3.0365
 9611TIP3    H250325   6.788   0.613  14.877 -0.1456 -0.8918 -1.4675
 9612TIP3   OH250326   1.415   0.352  14.216 -0.0876 -0.6257  0.4568
 9612TIP3    H150327   1.388   0.443  14.202 -0.0853 -0.5449  0.9544
 9612TIP3    H250328   1.494   0.343  14.163  1.3091  0.3947  2.2937
 9613TIP3   OH250329   3.781   2.447  13.313  0.7807 -0.0474 -0.4224
 9613TIP3    H150330   3.712   2.382  13.328 -0.0392  1.0271  0.6759
 9613TIP3    H250331   3.860   2.407  13.349  0.7144 -1.2723 -1.6377
 9614TIP3   OH250332   0.823   4.197   1.178 -0.4785  0.0412  0.7122
 9614TIP3    H150333   0.908   4.216   1.218  0.8095 -1.1337 -1.4133
 9614TIP3    H250334   0.808   4.104   1.197 -1.0101  0.1000  0.5729
 9615TIP3   OH250335   0.649   6.627  11.813  0.3210  0.7610 -0.5447
 9615TIP3    H150336   0.595   6.580  11.750  0.1420 -1.2725  1.0580
 9615TIP3    H250337   0.739   6.609  11.786  0.2356  0.3737 -0.5732
 9616TIP3   OH250338   0.872   1.057  12.507 -0.1798 -0.0505 -0.0297
 9616TIP3    H150339   0.819   1.112  12.450  0.6033  0.7823  0.0438
 9616TIP3    H250340   0.889   0.978  12.455  0.8616  0.8728 -1.0971
 9617TIP3   OH250341   5.136   1.361  12.188  0.4967 -0.1781 -0.3825
 9617TIP3    H150342   5.160   1.285  12.135  0.9447  0.8761 -1.7247
 9617TIP3    H250343   5.138   1.329  12.278  0.6596 -1.7562 -0.9225
 9618TIP3   OH250344   5.857   4.335  14.380 -0.3012  0.4809  0.0290
 9618TIP3    H150345   5.926   4.401  14.382 -0.6610  0.8416  0.7314
 9618TIP3    H250346   5.783   4.376  14.425 -0.8108 -0.0817 -0.2929
 9619TIP3   OH250347   1.798   6.399   2.546 -0.0474  0.5551  0.1738
 9619TIP3    H150348   1.753   6.475   2.510 -0.6647  0.7072  1.2481
 9619TIP3    H250349   1.875   6.434   2.591 -0.7404  0.6266  1.3208
 9620TIP3   OH250350   2.708   5.610   1.040 -0.1649 -0.2827 -0.1220
 9620TIP3    H150351   2.698   5.547   0.968 -1.7562  0.6192 -0.7123
 9620TIP3    H250352   2.701   5.557   1.119  0.6738 -1.1533 -0.6206
 9621TIP3   OH250353   2.466   3.230  11.470  0.7886  0.4705 -0.9220
 9621TIP3    H150354   2.472   3.200  11.379  1.9541  0.6702 -0.9181
 9621TIP3    H250355   2.448   3.324  11.462  0.0609  0.3319 -0.9399
 9622TIP3   OH250356   1.255   5.806   5.525 -0.1038  0.4198  0.1755
 9622TIP3    H150357   1.185   5.741   5.529 -1.1439  1.6091  1.8433
 9622TIP3    H250358   1.327   5.765   5.573 -0.6948  0.4204  1.0749
 9623TIP3   OH250359   0.607   2.455   3.226 -0.5214  0.4654  0.0501
 9623TIP3    H150360   0.670   2.482   3.293 -0.3734 -1.2890  0.6466
 9623TIP3    H250361   0.554   2.533   3.210 -0.0390  1.1384  1.6214
 9624TIP3   OH250362   0.827   3.777   4.498 -0.0865  0.0360 -0.4804
 9624TIP3    H150363   0.836   3.801   4.406 -0.4748 -0.3240 -0.6127
 9624TIP3    H250364   0.758   3.711   4.499  1.6057 -1.7953 -0.2693
 9625TIP3   OH250365   1.336   3.711   2.376  0.6229 -0.2422 -0.3195
 9625TIP3    H150366   1.395   3.750   2.440  1.0263 -0.3329 -0.6312
 9625TIP3    H250367   1.278   3.782   2.350  0.3511 -0.2494  0.2693
 9626TIP3   OH250368   0.153   2.478   3.712  0.2572  0.0973  0.2925
 9626TIP3    H150369   0.223   2.414   3.724  0.8271  1.0084  2.0340
 9626TIP3    H250370   0.130   2.505   3.801 -0.9970  1.2107 -0.3515
 9627TIP3   OH250371   0.784   4.150   6.104 -0.1961  0.0144  0.8221
 9627TIP3    H150372   0.863   4.115   6.146  0.8775  0.0181 -1.1341
 9627TIP3    H250373   0.750   4.076   6.053 -0.3945  0.5630  0.1572
 9628TIP3   OH250374   1.208   2.108   5.313 -0.0684  0.1611  0.3069
 9628TIP3    H150375   1.128   2.155   5.292 -0.9898 -0.9511  1.2682
 9628TIP3    H250376   1.273   2.177   5.330 -0.4505  1.0557 -1.7651
 9629TIP3   OH250377   5.911   2.922   0.422 -0.2636 -0.0148  0.3896
 9629TIP3    H150378   5.898   3.014   0.446 -0.3100  0.7836 -2.5120
 9629TIP3    H250379   6.005   2.915   0.402 -0.4789 -0.3151 -0.5324
 9630TIP3   OH250380   2.537   1.326  14.529  0.8488 -0.3089 -0.2175
 9630TIP3    H150381   2.470   1.392  14.512 -1.0317 -1.0815  3.5784
 9630TIP3    H250382   2.511   1.251  14.475  1.3989  1.0126 -2.3700
 9631TIP3   OH250383   5.912   0.539   5.881  0.1148  0.4383 -0.5090
 9631TIP3    H150384   5.918   0.582   5.795 -0.4824  1.0041 -0.2705
 9631TIP3    H250385   5.896   0.610   5.942 -1.0052 -0.1413 -0.1211
 9632TIP3   OH250386   6.264   3.606  13.574 -0.7571 -0.4877 -0.0711
 9632TIP3    H150387   6.345   3.644  13.609  0.2509 -2.2288 -0.4990
 9632TIP3    H250388   6.258   3.641  13.485  0.2727 -1.4761 -0.5344
 9633TIP3   OH250389   5.370   4.815  14.585  0.0958  0.8614 -0.1347
 9633TIP3    H150390   5.424   4.895  14.584  2.0162 -0.3858  0.8227
 9633TIP3    H250391   5.392   4.771  14.503  1.4332 -0.2106  0.7824
 9634TIP3   OH250392   3.381   2.359   4.377 -0.1355  0.0831  0.0622
 9634TIP3    H150393   3.433   2.331   4.302 -0.6467  0.2689 -0.3673
 9634TIP3    H250394   3.398   2.293   4.444  0.9100  0.3329  0.0416
 9635TIP3   OH250395   5.265   3.320   1.948 -0.0241 -0.0757 -0.7066
 9635TIP3    H150396   5.294   3.411   1.946  1.3722 -0.5045 -0.6879
 9635TIP3    H250397   5.304   3.280   1.870  1.7254 -1.3267  0.7480
 9636TIP3   OH250398   6.036   0.749   3.400 -0.0659  0.7037 -0.2093
 9636TIP3    H150399   6.042   0.660   3.435 -2.2079  1.3690  1.9660
 9636TIP3    H250400   6.060   0.806   3.473  1.1353  1.9497 -1.5388
 9637TIP3   OH250401   0.607   0.002  16.996  0.1223  0.2475  0.3786
 9637TIP3    H150402   0.519   0.032  16.975  1.1820  2.1528 -1.5050
 9637TIP3    H250403   0.644   0.071  17.052  0.0096 -1.1375  2.2146
 9638TIP3   OH250404   1.792   2.486   3.248 -0.2242 -0.0608 -0.7887
 9638TIP3    H150405   1.709   2.521   3.278  2.0706  1.8744  3.7486
 9638TIP3    H250406   1.779   2.391   3.246 -2.1138  0.1205  1.3168
 9639TIP3   OH250407   2.842   0.983  15.285 -0.2753  0.0092 -0.2987
 9639TIP3    H150408   2.756   0.948  15.308 -0.1496  1.0764  1.9164
 9639TIP3    H250409   2.823   1.057  15.229 -0.8539  0.6319  0.6993
 9640TIP3   OH250410   2.890   3.513   5.036  0.1863  0.1999  0.4719
 9640TIP3    H150411   2.815   3.497   5.094 -0.6651 -0.0233 -0.6702
 9640TIP3    H250412   2.966   3.487   5.088 -0.8017 -3.0378  0.4243
 9641TIP3   OH250413   2.792   1.677  16.931  0.4483 -0.3807 -0.0137
 9641TIP3    H150414   2.776   1.632  17.014  0.4943 -1.8542 -0.7869
 9641TIP3    H250415   2.803   1.607  16.867  3.1072  0.6710 -0.7891
 9642TIP3   OH250416   1.728   3.856   5.781 -0.1250 -0.4131 -0.3885
 9642TIP3    H150417   1.777   3.864   5.862  0.7009 -0.0617 -0.9149
 9642TIP3    H250418   1.651   3.912   5.794  0.0176 -0.3428  0.1379
 9643TIP3   OH250419   5.874   0.956   1.062 -0.2476 -0.1092 -0.7247
 9643TIP3    H150420   5.961   0.979   1.028  0.3575 -1.2545 -0.0144
 9643TIP3    H250421   5.861   0.865   1.032 -1.8507  0.5511 -2.0895
 9644TIP3   OH250422   0.295   1.415   1.601  0.4298 -0.0044  0.7252
 9644TIP3    H150423   0.344   1.479   1.551  0.3969  1.1367  2.1223
 9644TIP3    H250424   0.258   1.356   1.535 -0.6777  2.1953 -0.6808
 9645TIP3   OH250425   5.454   3.243   0.255 -0.0646 -0.5514 -0.3965
 9645TIP3    H150426   5.471   3.322   0.203  0.2064  0.1033  0.6689
 9645TIP3    H250427   5.365   3.254   0.287 -0.2682 -1.0055 -0.8019
 9646TIP3   OH250428   4.532   3.812  10.987 -0.4964 -0.0787 -0.0467
 9646TIP3    H150429   4.624   3.797  10.968 -0.0128  1.5047  0.9328
 9646TIP3    H250430   4.487   3.794  10.905  0.9372  1.4506 -1.1858
 9647TIP3   OH250431   4.551   3.331   1.256  0.3461 -0.5428 -0.0801
 9647TIP3    H150432   4.497   3.362   1.184  0.7935  0.9999  0.2287
 9647TIP3    H250433   4.635   3.308   1.216  0.7499  0.7449 -0.0143
 9648TIP3   OH250434   6.098   1.130  17.267  0.2901 -0.2463 -0.1483
 9648TIP3    H150435   6.116   1.098  17.178  0.7806  2.2212 -0.9559
 9648TIP3    H250436   6.010   1.168  17.262 -0.4200 -1.6922  0.8902
 9649TIP3   OH250437   6.767   3.855  16.213  0.2796  0.4072 -0.2047
 9649TIP3    H150438   6.673   3.838  16.211  0.1777  0.7974  1.0868
 9649TIP3    H250439   6.776   3.935  16.265  1.2613  0.8186 -0.9867
 9650TIP3   OH250440   0.813   4.975  16.443  0.0989  0.4803 -0.6419
 9650TIP3    H150441   0.726   5.014  16.446 -0.0188  0.1571  0.2990
 9650TIP3    H250442   0.844   4.978  16.533  0.1860 -1.3653 -0.5861
 9651TIP3   OH250443   6.772   4.143   0.423 -0.7798 -0.4527  0.4072
 9651TIP3    H150444   6.707   4.212   0.436 -1.0346 -0.8197  1.0833
 9651TIP3    H250445   6.721   4.064   0.405 -0.5263 -0.7074  0.7844
 9652TIP3   OH250446   0.464   0.858   3.340 -0.2225 -0.0820  0.0228
 9652TIP3    H150447   0.539   0.917   3.343 -0.2622  0.0762 -1.5909
 9652TIP3    H250448   0.480   0.796   3.411  1.3305  0.0836 -0.1555
 9653TIP3   OH250449   2.940   3.448   6.208  1.0324 -0.1597  0.3715
 9653TIP3    H150450   2.912   3.402   6.287  0.0166 -1.6138 -0.8043
 9653TIP3    H250451   2.866   3.507   6.187  1.3072  0.2358  0.5035
 9654TIP3   OH250452   6.171   4.574  12.884 -0.1519  0.3918 -0.5105
 9654TIP3    H150453   6.116   4.612  12.816 -0.5587 -1.0556 -1.0041
 9654TIP3    H250454   6.152   4.480  12.881  2.3537 -0.1510 -0.7049
 9655TIP3   OH250455   6.150   0.332  12.418 -0.3372  0.2122  0.1046
 9655TIP3    H150456   6.214   0.293  12.359 -2.3049  1.2031 -2.7467
 9655TIP3    H250457   6.094   0.258  12.445 -0.1741 -0.0224 -0.1997
 9656TIP3   OH250458   4.218   1.245   5.676  0.3027  0.9313 -0.9285
 9656TIP3    H150459   4.278   1.171   5.692 -1.9162 -0.1924  2.8798
 9656TIP3    H250460   4.162   1.216   5.604  0.7395 -0.2980 -0.7855
 9657TIP3   OH250461   0.248   6.128   3.337 -0.1952 -0.0580 -0.1846
 9657TIP3    H150462   0.340   6.102   3.343 -0.3194 -0.2029  1.2228
 9657TIP3    H250463   0.249   6.209   3.287  0.5439 -0.8588 -1.5153
 9658TIP3   OH250464   2.940   1.280  12.156  0.1637 -0.2416  0.6943
 9658TIP3    H150465   2.916   1.257  12.066 -0.8006  0.9581  0.6308
 9658TIP3    H250466   2.885   1.356  12.177  1.0203  0.0410  1.9851
 9659TIP3   OH250467   0.946   0.833   1.700 -0.1204  0.2147  0.1200
 9659TIP3    H150468   0.867   0.874   1.665  0.6035  2.0950  0.6283
 9659TIP3    H250469   1.018   0.875   1.654  0.5693 -2.4756 -1.3539
 9660TIP3   OH250470   0.687   3.226  13.582 -0.1933 -0.2326 -0.0815
 9660TIP3    H150471   0.679   3.247  13.489 -1.0573 -0.9969 -0.1735
 9660TIP3    H250472   0.716   3.308  13.622  1.6528 -0.2852 -1.2298
 9661TIP3   OH250473   1.583   2.833  15.335  0.7047  0.4070 -0.0653
 9661TIP3    H150474   1.548   2.923  15.331  2.0699  1.0873  2.2998
 9661TIP3    H250475   1.562   2.803  15.423  2.0596 -0.8418 -0.1457
 9662TIP3   OH250476   3.114   0.421   4.131  0.0150  0.5619  0.0515
 9662TIP3    H150477   3.166   0.496   4.103  0.2957 -0.3977 -2.0294
 9662TIP3    H250478   3.178   0.351   4.145 -0.2641  0.6304  1.8364
 9663TIP3   OH250479   5.552   3.118  13.859 -0.5994 -0.2666 -0.2179
 9663TIP3    H150480   5.483   3.171  13.819  0.5745  0.5734 -1.1382
 9663TIP3    H250481   5.594   3.073  13.786  1.3735  1.0609  0.0821
 9664TIP3   OH250482   3.474   4.862   4.914  0.3862 -0.4005  0.4627
 9664TIP3    H150483   3.529   4.797   4.870  2.0333  0.0072  1.8713
 9664TIP3    H250484   3.415   4.893   4.845 -0.0574 -2.9503 -0.3709
 9665TIP3   OH250485   2.524   5.748   0.225 -0.3420 -0.3316 -0.0826
 9665TIP3    H150486   2.559   5.659   0.224 -0.2015 -0.2908 -2.3090
 9665TIP3    H250487   2.602   5.804   0.228 -0.3983 -0.2712  0.2826
 9666TIP3   OH250488   0.120   5.500  13.404  0.2177 -0.5738  0.1090
 9666TIP3    H150489   0.102   5.594  13.401 -0.2595 -0.6283  1.1640
 9666TIP3    H250490   0.179   5.485  13.330 -0.6587  0.3432 -0.8023
 9667TIP3   OH250491   5.651   5.073  11.076 -0.2051  0.0692 -0.2479
 9667TIP3    H150492   5.586   5.141  11.092 -0.0672 -0.0446  0.8819
 9667TIP3    H250493   5.649   5.059  10.982 -0.7922  1.0824 -0.3938
 9668TIP3   OH250494   0.782   0.188   5.977 -0.5667 -0.1998  0.7914
 9668TIP3    H150495   0.859   0.140   6.007 -0.2269  0.2903  0.7009
 9668TIP3    H250496   0.769   0.157   5.887  0.4703  0.8935  0.2637
 9669TIP3   OH250497   6.334   5.379  16.437 -0.3799  0.4265  0.0007
 9669TIP3    H150498   6.411   5.374  16.494 -1.4927  1.6150  1.6482
 9669TIP3    H250499   6.289   5.295  16.451 -0.6717  0.7261  0.9454
 9670TIP3   OH250500   4.413   2.224   4.453 -0.3515  0.3118  0.1216
 9670TIP3    H150501   4.437   2.142   4.497  3.2198  0.5885 -1.1588
 9670TIP3    H250502   4.452   2.293   4.507  0.4133  0.9016 -1.1630
 9671TIP3   OH250503   5.545   6.029   2.475 -0.0035 -0.3763  0.5266
 9671TIP3    H150504   5.570   5.961   2.538 -1.0569 -0.2284  1.1160
 9671TIP3    H250505   5.627   6.051   2.431  0.9412  0.1292  2.4535
 9672TIP3   OH250506   4.782   4.614  11.609  0.6322 -0.2878 -0.3485
 9672TIP3    H150507   4.689   4.627  11.630  0.4568 -0.6317 -0.8978
 9672TIP3    H250508   4.789   4.521  11.589  1.1956 -0.3548  0.1722
 9673TIP3   OH250509   1.751   5.793  16.363 -0.4020 -0.0070  0.2134
 9673TIP3    H150510   1.718   5.759  16.280 -0.5581 -1.1559  0.7291
 9673TIP3    H250511   1.781   5.882  16.343  0.3448 -0.5755 -1.2627
 9674TIP3   OH250512   0.867   6.664   4.759 -0.3309  0.2489  0.0264
 9674TIP3    H150513   0.886   6.574   4.788  1.2195  0.5294 -0.0681
 9674TIP3    H250514   0.782   6.658   4.716 -1.5490 -0.6549  2.4514
 9675TIP3   OH250515   2.338   1.746   5.443 -0.0205 -0.1604 -0.3358
 9675TIP3    H150516   2.374   1.725   5.529 -1.5521  0.2899  0.4438
 9675TIP3    H250517   2.397   1.704   5.381  1.3041 -0.1953  0.9185
 9676TIP3   OH250518   3.448   3.030  11.129 -0.2790  0.5725  0.7284
 9676TIP3    H150519   3.465   3.101  11.067 -0.5316 -0.3077 -0.3493
 9676TIP3    H250520   3.501   2.957  11.097 -1.7069 -0.4096  0.6057
 9677TIP3   OH250521   0.656   6.138  14.826  0.8843 -0.1361 -0.2235
 9677TIP3    H150522   0.676   6.185  14.745  3.3732 -2.5574 -1.0903
 9677TIP3    H250523   0.575   6.090  14.806  0.7544  0.3373 -0.8367
 9678TIP3   OH250524   1.003   5.181  11.768 -0.0280  0.0119 -0.3600
 9678TIP3    H150525   1.011   5.125  11.691 -0.6659 -0.3744 -0.1491
 9678TIP3    H250526   0.925   5.149  11.813  0.7986 -0.2859  0.8775
 9679TIP3   OH250527   4.863   1.661  15.208  0.2609  0.0293  0.3101
 9679TIP3    H150528   4.779   1.655  15.161  0.9503  1.0236 -1.0666
 9679TIP3    H250529   4.893   1.570  15.215 -0.7709 -0.3036  0.5370
 9680TIP3   OH250530   6.041   1.561   4.953  0.0470 -0.1714 -0.2118
 9680TIP3    H150531   6.024   1.512   5.034  1.5201 -0.7573 -0.2426
 9680TIP3    H250532   6.135   1.578   4.955 -0.2193  1.4695 -0.8856
 9681TIP3   OH250533   0.032   5.067   1.404  0.2055  0.2964 -0.4121
 9681TIP3    H150534   0.048   5.051   1.311  2.0678 -1.1050  0.1162
 9681TIP3    H250535   0.108   5.029   1.449 -0.7948  0.6897  1.7095
 9682TIP3   OH250536   1.199   6.608   5.789  0.1020  0.3599  0.0351
 9682TIP3    H150537   1.237   6.572   5.869 -1.2461  0.7702  0.8959
 9682TIP3    H250538   1.270   6.657   5.748  1.4924 -1.8636 -0.2977
 9683TIP3   OH250539   0.977   5.948   0.333 -0.1083  0.3330 -0.3507
 9683TIP3    H150540   0.997   5.909   0.418 -0.7119 -1.2158 -0.9013
 9683TIP3    H250541   0.882   5.937   0.323  0.0375  0.0241 -1.4554
 9684TIP3   OH250542   2.584   4.163  12.042  0.2193 -0.5120 -0.1804
 9684TIP3    H150543   2.620   4.211  12.117 -0.8590 -0.1794  0.1277
 9684TIP3    H250544   2.649   4.095  12.024  0.1696 -1.0236  1.4806
 9685TIP3   OH250545   6.634   1.403  12.054  0.3794  0.3749  0.3487
 9685TIP3    H150546   6.717   1.408  12.006  1.2817  0.7868  1.9319
 9685TIP3    H250547   6.567   1.409  11.986  1.6463 -0.2140 -0.9727
 9686TIP3   OH250548   6.108   4.410   0.102 -0.7893  0.4654  0.3996
 9686TIP3    H150549   6.193   4.372   0.124 -0.1982  0.0272 -2.5323
 9686TIP3    H250550   6.112   4.499   0.138  1.2978  0.7844 -0.5636
 9687TIP3   OH250551   3.528   5.953   4.342 -0.4502 -0.0754 -0.5176
 9687TIP3    H150552   3.483   5.915   4.417  0.7338 -1.1683 -0.3351
 9687TIP3    H250553   3.459   5.975   4.280 -1.1509 -3.4575 -1.0548
 9688TIP3   OH250554   2.538   5.501   0.080  0.3370 -0.2534  0.3387
 9688TIP3    H150555   2.599   5.464   0.016 -0.2956 -2.0868  0.7481
 9688TIP3    H250556   2.480   5.557   0.029  2.6318  1.9195  0.0187
 9689TIP3   OH250557   1.719   0.119  12.141 -0.0464 -0.3503  0.1234
 9689TIP3    H150558   1.788   0.098  12.078 -0.3097  0.6465 -0.5029
 9689TIP3    H250559   1.720   0.214  12.146  0.6807 -0.4390  2.4031
 9690TIP3   OH250560   3.705   2.231  12.551 -0.0012  0.3278 -0.6233
 9690TIP3    H150561   3.756   2.303  12.513  1.5141 -0.7482 -0.6456
 9690TIP3    H250562   3.759   2.199  12.623 -0.1493 -1.5109 -1.3185
 9691TIP3   OH250563   2.944   1.145   2.427  0.2244  0.2030 -0.1162
 9691TIP3    H150564   3.022   1.200   2.423  1.4887 -1.6080 -0.7880
 9691TIP3    H250565   2.971   1.062   2.388 -1.5759 -0.9899  1.1296
 9692TIP3   OH250566   5.903   1.615   1.037  0.8608 -0.3886  0.1293
 9692TIP3    H150567   5.842   1.566   0.982 -0.9358  1.1061  0.7395
 9692TIP3    H250568   5.983   1.619   0.986 -0.7623  0.9577 -2.3957
 9693TIP3   OH250569   3.703   1.686   5.361 -0.4713  0.1922 -0.2848
 9693TIP3    H150570   3.708   1.725   5.274 -0.0488 -0.4033 -0.5292
 9693TIP3    H250571   3.787   1.707   5.402 -0.4823  0.0588 -0.1950
 9694TIP3   OH250572   3.899   3.042   3.603  0.0175  0.5487  0.2137
 9694TIP3    H150573   3.864   3.069   3.518  0.0928  0.9292  0.3027
 9694TIP3    H250574   3.879   2.948   3.609 -1.9845  0.9745  0.7438
 9695TIP3   OH250575   1.423   0.561  11.386 -0.0688  0.5650 -0.0617
 9695TIP3    H150576   1.388   0.531  11.302 -0.7863 -1.5768  0.9720
 9695TIP3    H250577   1.518   0.551  11.377 -0.2523 -1.5523  0.0483
 9696TIP3   OH250578   1.338   6.604   2.374 -0.2322  0.0006  0.3333
 9696TIP3    H150579   1.311   6.680   2.426  0.6949 -2.3735  4.4581
 9696TIP3    H250580   1.424   6.629   2.340 -1.5097  2.1808 -1.4581
 9697TIP3   OH250581   2.555   2.607  14.340  0.1776 -0.4011 -0.2587
 9697TIP3    H150582   2.545   2.532  14.281  0.4662 -1.2529  0.7505
 9697TIP3    H250583   2.466   2.633  14.362  0.0676 -1.3415  0.4703
 9698TIP3   OH250584   0.840   6.071  12.633  0.3682  0.6823 -0.4937
 9698TIP3    H150585   0.786   5.997  12.661  0.6953  1.4081  2.1636
 9698TIP3    H250586   0.790   6.148  12.658  0.7750  1.3923 -1.8001
 9699TIP3   OH250587   0.388   3.579   5.588 -0.2492 -0.1304 -0.3012
 9699TIP3    H150588   0.352   3.501   5.546  0.4935  0.2907 -1.7337
 9699TIP3    H250589   0.312   3.632   5.611 -0.6534 -0.1714 -1.5166
 9700TIP3   OH250590   6.104   1.906   2.728 -0.1241  0.5891  0.1450
 9700TIP3    H150591   6.072   1.969   2.664  1.3046  1.6281  0.4301
 9700TIP3    H250592   6.177   1.863   2.685  0.5478  0.9638  0.9079
 9701TIP3   OH250593   4.400   0.880  12.699 -0.7449  0.0524 -0.1578
 9701TIP3    H150594   4.393   0.969  12.663 -0.5347 -0.5228 -1.6780
 9701TIP3    H250595   4.319   0.868  12.748 -0.5473  1.2723  0.4936
 9702TIP3   OH250596   5.636   2.769  13.626 -0.5915 -0.3271  0.2660
 9702TIP3    H150597   5.595   2.693  13.585  1.4152 -0.1386 -2.2575
 9702TIP3    H250598   5.587   2.844  13.591 -0.0428 -0.2627 -0.3722
 9703TIP3   OH250599   1.799   4.968   2.227 -0.2074 -0.4384 -0.3104
 9703TIP3    H150600   1.772   5.039   2.284  0.9648 -1.1727  1.1927
 9703TIP3    H250601   1.720   4.946   2.177 -0.8604  1.1555 -0.0037
 9704TIP3   OH250602   0.941   5.545   3.059 -0.1998 -0.2649 -0.5424
 9704TIP3    H150603   0.963   5.460   3.096 -0.3068  0.3661  0.9924
 9704TIP3    H250604   0.848   5.557   3.080 -0.1396  0.3115 -0.6041
 9705TIP3   OH250605   4.857   3.912  12.059  0.4139 -0.3000  0.6403
 9705TIP3    H150606   4.903   3.883  11.980 -0.5456  1.3038 -0.5451
 9705TIP3    H250607   4.798   3.839  12.080 -0.5404 -0.0881 -1.1300
 9706TIP3   OH250608   5.009   6.626   3.775  0.3641  0.1945  0.7941
 9706TIP3    H150609   4.926   6.579   3.784 -0.4676  1.6779  1.0780
 9706TIP3    H250610   4.986   6.706   3.728  1.4719  1.0116  1.6178
 9707TIP3   OH250611   2.089   5.406  13.768  0.2737  0.1796 -0.1925
 9707TIP3    H150612   2.129   5.414  13.855 -3.4239 -0.3926  1.6295
 9707TIP3    H250613   2.094   5.312  13.748 -0.3843  0.0669  0.1621
 9708TIP3   OH250614   1.844   0.947   5.377  0.5591 -0.1190  0.8610
 9708TIP3    H150615   1.796   0.906   5.305  0.0981 -1.0558  1.6830
 9708TIP3    H250616   1.935   0.950   5.348  0.4147 -0.7318  0.3492
 9709TIP3   OH250617   2.587   0.048   5.791  0.3043 -0.2263 -0.1517
 9709TIP3    H150618   2.653   0.066   5.859 -0.5138  0.4055  0.4784
 9709TIP3    H250619   2.503   0.054   5.837 -0.2641  0.3526 -1.2575
 9710TIP3   OH250620   5.084   3.429   1.288 -0.0399 -0.4622  0.5456
 9710TIP3    H150621   5.111   3.518   1.312 -0.1147 -0.4208  0.4777
 9710TIP3    H250622   5.054   3.391   1.370  1.4040 -0.9335  0.8640
 9711TIP3   OH250623   1.996   3.353  12.690  0.1420  0.6146 -0.0477
 9711TIP3    H150624   2.026   3.352  12.599 -0.7219 -0.3119 -0.3352
 9711TIP3    H250625   2.014   3.264  12.722 -1.4785  0.2978  0.0312
 9712TIP3   OH250626   2.719   5.761  13.325 -0.3639  0.0001  0.2928
 9712TIP3    H150627   2.785   5.765  13.256 -1.4940  0.1776 -0.7987
 9712TIP3    H250628   2.656   5.695  13.294 -1.9074  1.4675  0.2385
 9713TIP3   OH250629   2.746   6.185  16.359 -0.2120 -0.0484  0.1308
 9713TIP3    H150630   2.809   6.144  16.418  0.5995 -1.4463 -1.6425
 9713TIP3    H250631   2.800   6.227  16.292 -1.1153  1.2572  0.2024
 9714TIP3   OH250632   1.218   3.254   3.017 -0.3256  0.0319 -0.3911
 9714TIP3    H150633   1.204   3.275   2.925 -0.2561 -2.4421 -0.9840
 9714TIP3    H250634   1.130   3.240   3.052 -0.2551 -0.7264 -0.5080
 9715TIP3   OH250635   4.998   0.075   3.965 -0.3733  0.2424  0.4884
 9715TIP3    H150636   4.960   0.050   3.880  0.0526  2.3593 -0.3652
 9715TIP3    H250637   5.092   0.082   3.948 -0.0902 -0.8861  1.5478
 9716TIP3   OH250638   1.028   6.594   6.163  0.6056  0.4450  0.2469
 9716TIP3    H150639   1.084   6.528   6.122 -0.5094 -1.1415  1.2300
 9716TIP3    H250640   1.064   6.605   6.250  0.6466  0.9809  0.1653
 9717TIP3   OH250641   1.977   1.580   0.183 -0.1102 -0.0231  0.6025
 9717TIP3    H150642   1.975   1.592   0.278 -1.3675 -0.5715  0.6528
 9717TIP3    H250643   1.900   1.527   0.163  0.7482 -0.8591 -0.5983
 9718TIP3   OH250644   0.315   3.377   1.692  0.4596  0.6354  0.3475
 9718TIP3    H150645   0.254   3.451   1.685 -0.3202 -0.0224  0.0893
 9718TIP3    H250646   0.262   3.305   1.726  0.3783 -0.7641 -2.5302
 9719TIP3   OH250647   4.895   3.398  13.678  0.6500 -0.4991  0.1689
 9719TIP3    H150648   4.839   3.345  13.621  0.5771  0.2618 -0.4824
 9719TIP3    H250649   4.956   3.335  13.717 -0.4110 -1.2761  0.5941
 9720TIP3   OH250650   0.503   2.568   2.012 -0.6405  0.0393 -0.3390
 9720TIP3    H150651   0.551   2.530   2.086 -0.4648  0.1404 -0.4036
 9720TIP3    H250652   0.569   2.584   1.945 -0.5037  1.6359  0.1560
 9721TIP3   OH250653   5.984   5.967  16.882  0.2485  0.4084 -0.5030
 9721TIP3    H150654   5.950   5.887  16.922 -1.7869  1.5323  0.0697
 9721TIP3    H250655   5.980   5.949  16.788 -1.0389  0.1499 -0.4104
 9722TIP3   OH250656   2.875   4.153  11.485 -0.2069 -0.3626  0.4197
 9722TIP3    H150657   2.833   4.239  11.476  0.1923 -0.3154 -1.2685
 9722TIP3    H250658   2.802   4.092  11.491 -0.5021  0.0080  0.6690
 9723TIP3   OH250659   1.231   5.424  15.113  0.4132 -0.7142  0.1322
 9723TIP3    H150660   1.294   5.472  15.060  1.1980 -0.9757  0.8216
 9723TIP3    H250661   1.273   5.414  15.198  0.4821 -3.0473 -0.1379
 9724TIP3   OH250662   2.185   2.097  16.012  0.5916 -0.2225  0.2246
 9724TIP3    H150663   2.098   2.058  16.018  1.2621 -1.6192  1.1866
 9724TIP3    H250664   2.214   2.077  15.922 -0.4218  1.0380 -0.3982
 9725TIP3   OH250665   0.028   3.940  13.579 -0.2974 -0.2365 -0.2166
 9725TIP3    H150666  -0.030   3.969  13.509  0.2747  1.3702 -0.0582
 9725TIP3    H250667   0.089   3.879  13.537 -0.0029  0.6606 -1.1122
 9726TIP3   OH250668   5.445   4.857  13.573  0.0063  0.4408  0.4824
 9726TIP3    H150669   5.510   4.787  13.570  0.1656  0.5823  0.6238
 9726TIP3    H250670   5.373   4.821  13.626  1.2637  1.3586  2.8980
 9727TIP3   OH250671   3.760   5.435   2.607  0.7407  0.4139 -0.3399
 9727TIP3    H150672   3.690   5.370   2.615 -0.4199  1.3255 -2.4875
 9727TIP3    H250673   3.806   5.432   2.691 -0.7140 -1.5414  0.4206
 9728TIP3   OH250674   4.590   4.432   2.749  0.2956  0.2169  0.1553
 9728TIP3    H150675   4.669   4.479   2.726  0.0085  0.5763 -0.1029
 9728TIP3    H250676   4.525   4.462   2.686 -0.4945  1.1920  1.4045
 9729TIP3   OH250677   0.138   0.885   3.912  0.1506 -0.1313  0.0661
 9729TIP3    H150678   0.098   0.801   3.933  1.6024 -0.4379  1.7731
 9729TIP3    H250679   0.074   0.929   3.857 -0.6965 -2.2815 -0.7183
 9730TIP3   OH250680   3.841   4.801   4.342 -0.3812 -0.1198 -0.1714
 9730TIP3    H150681   3.919   4.811   4.287 -0.0925 -0.6221  0.1360
 9730TIP3    H250682   3.876   4.773   4.427 -0.9607 -1.1586 -0.2680
 9731TIP3   OH250683   3.093   2.025  11.056 -0.3136  0.1039  0.3620
 9731TIP3    H150684   3.171   2.049  11.006  0.4613 -0.7654  1.1315
 9731TIP3    H250685   3.042   1.971  10.996  0.1342 -0.1014  0.1559
 9732TIP3   OH250686   3.920   0.006  16.390  0.1665  0.4400 -0.4274
 9732TIP3    H150687   3.895  -0.011  16.299  0.3835  1.8694 -0.7593
 9732TIP3    H250688   3.998   0.060  16.384  1.3662 -1.1193  0.6344
 9733TIP3   OH250689   4.891   4.255  10.539  0.1187 -0.0938 -0.1962
 9733TIP3    H150690   4.897   4.224  10.629 -1.8565  1.0519  0.3668
 9733TIP3    H250691   4.897   4.176  10.485  2.3965 -0.6704  0.8805
 9734TIP3   OH250692   5.489   6.540  11.586 -0.3244 -0.1155 -0.1984
 9734TIP3    H150693   5.489   6.577  11.498 -0.6642  0.9426  0.2388
 9734TIP3    H250694   5.528   6.608  11.640  0.2897 -0.9361  0.4045
 9735TIP3   OH250695   2.524   5.776  11.237 -0.9860 -0.0971  0.2644
 9735TIP3    H150696   2.450   5.813  11.189  0.0559  0.9398 -0.5908
 9735TIP3    H250697   2.568   5.852  11.275 -1.3633 -0.8512  2.2619
 9736TIP3   OH250698   3.728   5.023  15.982  0.0272 -0.2266  0.0873
 9736TIP3    H150699   3.666   4.950  15.985 -0.6110  0.3135  0.2339
 9736TIP3    H250700   3.807   4.986  15.942  0.1985 -1.3455  1.4249
 9737TIP3   OH250701   4.935   5.036   6.309 -0.1349 -0.2267  0.2882
 9737TIP3    H150702   5.011   5.093   6.310  0.1916 -0.6592  1.0073
 9737TIP3    H250703   4.870   5.082   6.362  0.1130 -0.4938  0.8303
 9738TIP3   OH250704   0.334   6.028   4.275  0.2919 -0.5517 -0.6543
 9738TIP3    H150705   0.245   6.015   4.243 -0.0736  1.1425 -0.3542
 9738TIP3    H250706   0.362   6.111   4.235  0.6132  0.4813  1.6654
 9739TIP3   OH250707   0.131   2.947   0.989 -0.3480 -0.5553 -0.2708
 9739TIP3    H150708   0.076   3.013   0.948 -1.2646 -1.0318  0.1786
 9739TIP3    H250709   0.130   2.969   1.082  1.1298  0.0870 -0.3791
 9740TIP3   OH250710   0.146   3.741  14.733  0.0390 -0.1355 -0.5396
 9740TIP3    H150711   0.128   3.681  14.806  1.0750 -0.1606 -0.3012
 9740TIP3    H250712   0.135   3.688  14.654 -0.2146 -0.3315 -0.3726
 9741TIP3   OH250713   3.526   1.587   1.531 -0.5306 -0.0078 -0.1146
 9741TIP3    H150714   3.469   1.657   1.560 -1.3349 -0.8056  0.2390
 9741TIP3    H250715   3.467   1.518   1.502  0.2485 -0.6956 -0.0924
 9742TIP3   OH250716   6.036   5.847  12.934 -0.0075 -0.0211  0.1343
 9742TIP3    H150717   5.999   5.908  12.870  0.3623  1.1022  0.9739
 9742TIP3    H250718   5.963   5.793  12.961 -0.2772 -0.1703 -0.8518
 9743TIP3   OH250719   3.168   4.008  12.135 -0.0638 -0.1210 -0.1387
 9743TIP3    H150720   3.100   4.056  12.090  0.0186 -0.4353 -0.6045
 9743TIP3    H250721   3.122   3.937  12.180  0.0750 -1.0991 -1.4819
 9744TIP3   OH250722   2.937   2.194   6.026 -0.4562  0.2288 -0.2006
 9744TIP3    H150723   2.988   2.178   6.105  0.8721  0.1328 -1.0649
 9744TIP3    H250724   2.961   2.282   5.999 -0.6994  0.1609 -0.6508
 9745TIP3   OH250725   4.141   3.292  16.444 -0.0684  0.0631  0.3483
 9745TIP3    H150726   4.088   3.298  16.524  1.0095  0.5853  1.0326
 9745TIP3    H250727   4.100   3.354  16.384 -0.9539 -0.4145  0.4478
 9746TIP3   OH250728   1.911   3.082   1.848 -0.3185  0.2746  0.7390
 9746TIP3    H150729   1.918   2.987   1.837 -2.3748  0.1638  0.2805
 9746TIP3    H250730   1.985   3.105   1.904 -0.4026 -1.7603  1.7182
 9747TIP3   OH250731   4.360   2.661  12.494  0.2687  0.0462  0.7074
 9747TIP3    H150732   4.266   2.646  12.504 -0.5519  3.6979 -0.6499
 9747TIP3    H250733   4.380   2.731  12.557  1.8151  0.1557  0.1291
 9748TIP3   OH250734   5.161   2.287   1.863 -0.0218  0.2711  0.5275
 9748TIP3    H150735   5.090   2.224   1.871 -0.8776  1.1098 -0.2425
 9748TIP3    H250736   5.120   2.372   1.882  0.7661  0.7701  0.0569
 9749TIP3   OH250737   0.817   5.281  15.432  0.0897  0.3590 -0.3923
 9749TIP3    H150738   0.722   5.277  15.421  0.0514  1.6792 -0.5403
 9749TIP3    H250739   0.851   5.283  15.343  0.1931  1.1934 -0.3402
 9750TIP3   OH250740   0.771   3.727  13.021 -0.1261  0.5832 -0.0229
 9750TIP3    H150741   0.863   3.699  13.016  0.0156  0.9390  0.6170
 9750TIP3    H250742   0.775   3.822  13.014 -0.1591  0.9109  3.4096
 9751TIP3   OH250743   2.908   0.139   6.797  0.1215 -0.0904 -0.1722
 9751TIP3    H150744   2.988   0.178   6.761  0.9223 -0.4325  1.1990
 9751TIP3    H250745   2.934   0.050   6.821 -0.8777 -0.4479 -0.3883
 9752TIP3   OH250746   1.859   2.511  15.231  0.1434  0.5317  0.0771
 9752TIP3    H150747   1.918   2.439  15.253 -0.1132  0.3605  0.2146
 9752TIP3    H250748   1.853   2.509  15.135  0.3413  0.5363  0.0647
 9753TIP3   OH250749   5.740   5.883   0.976  0.1230  0.0791 -0.1653
 9753TIP3    H150750   5.650   5.858   0.955 -1.6029  4.3824  1.7273
 9753TIP3    H250751   5.791   5.856   0.899 -2.4409 -3.6502 -0.7004
 9754TIP3   OH250752   3.799   0.879   4.701  0.4479 -0.1381 -0.2099
 9754TIP3    H150753   3.802   0.935   4.779 -2.3308  2.2616 -1.7405
 9754TIP3    H250754   3.862   0.919   4.641  1.2005 -0.8755  0.0815
 9755TIP3   OH250755   0.951   1.439  15.680 -0.3307  0.3185  0.4165
 9755TIP3    H150756   1.018   1.497  15.715 -2.1620  1.6076  1.9089
 9755TIP3    H250757   0.933   1.377  15.750 -0.1125 -0.5664 -0.2892
 9756TIP3   OH250758   1.364   0.115  14.549  0.3677  0.3842  0.2795
 9756TIP3    H150759   1.422   0.050  14.508 -0.9109 -0.8479  0.3740
 9756TIP3    H250760   1.322   0.067  14.621 -1.9287  0.8049 -0.7439
 9757TIP3   OH250761   3.198   2.888  11.156  0.1119 -0.1548 -0.0630
 9757TIP3    H150762   3.249   2.807  11.163 -0.5153 -0.3876  2.1721
 9757TIP3    H250763   3.259   2.957  11.181  0.2246 -0.0831 -0.5252
 9758TIP3   OH250764   1.619   5.044  15.441  0.2922 -0.3103  0.3429
 9758TIP3    H150765   1.553   5.091  15.390  0.2370  0.1022  0.7905
 9758TIP3    H250766   1.570   4.977  15.487  0.3831 -0.8648 -0.3640
 9759TIP3   OH250767   1.587   6.117  14.432  0.5243 -0.1461  0.5985
 9759TIP3    H150768   1.580   6.142  14.524 -1.3991 -1.4850  0.8405
 9759TIP3    H250769   1.679   6.132  14.410  1.0338  0.0578  2.7779
 9760TIP3   OH250770   0.580   5.053   3.843 -0.0564 -0.0971 -0.0861
 9760TIP3    H150771   0.510   4.994   3.814 -0.1052 -0.2156  0.2616
 9760TIP3    H250772   0.551   5.081   3.930  0.7219 -0.7813  0.3988
 9761TIP3   OH250773   4.485   1.837   5.485 -0.1204 -0.2408 -0.2462
 9761TIP3    H150774   4.536   1.917   5.468 -0.2774 -0.1597 -0.3341
 9761TIP3    H250775   4.441   1.854   5.568  0.4073 -0.5183  0.0958
 9762TIP3   OH250776   3.903   5.535  11.216 -0.0769  0.0825  0.1520
 9762TIP3    H150777   3.821   5.555  11.260 -0.4542  0.8458 -0.8953
 9762TIP3    H250778   3.950   5.618  11.213  0.2817 -0.1285 -0.1860
 9763TIP3   OH250779   6.566   1.840  13.777 -0.1222  0.3356  0.5640
 9763TIP3    H150780   6.598   1.783  13.707  0.3834  0.3640  0.7671
 9763TIP3    H250781   6.498   1.893  13.735  1.1241  1.3200 -0.2761
 9764TIP3   OH250782   0.465   0.724   4.581  0.0607 -0.5236 -0.0784
 9764TIP3    H150783   0.491   0.703   4.671 -0.3173  0.8700  0.3648
 9764TIP3    H250784   0.381   0.680   4.570  0.3128 -1.0550  0.1080
 9765TIP3   OH250785   0.870   2.733  11.610 -0.1699  1.0906  0.1612
 9765TIP3    H150786   0.815   2.674  11.559  1.3602  0.1180 -0.3832
 9765TIP3    H250787   0.856   2.819  11.570 -2.1294  1.0628  0.7340
 9766TIP3   OH250788   1.294   2.157  16.972 -0.0502  0.4651  0.2299
 9766TIP3    H150789   1.237   2.223  17.011 -0.6132  0.0658  0.0955
 9766TIP3    H250790   1.383   2.192  16.982 -0.2631  0.7762  1.0646
 9767TIP3   OH250791   3.013   0.836  17.203 -0.3228 -0.5446  0.1967
 9767TIP3    H150792   2.956   0.865  17.274  0.4933 -0.5142  0.8423
 9767TIP3    H250793   2.984   0.746  17.185  1.1295 -1.4950  2.3236
 9768TIP3   OH250794   4.578   1.501   3.733  0.1901  0.1132 -0.5810
 9768TIP3    H150795   4.494   1.547   3.730 -0.7386 -1.6018 -1.2518
 9768TIP3    H250796   4.585   1.459   3.648  1.9401  0.5780 -0.6838
 9769TIP3   OH250797   6.537   1.721   0.630  0.4137  0.3111 -0.0371
 9769TIP3    H150798   6.529   1.792   0.694  2.2434  0.2150  0.3367
 9769TIP3    H250799   6.533   1.764   0.545 -1.4427  0.5084  0.1281
 9770TIP3   OH250800   0.670   5.816  16.616  0.2081 -0.5435  0.5898
 9770TIP3    H150801   0.602   5.829  16.682 -0.0558 -0.1771  0.2472
 9770TIP3    H250802   0.745   5.867  16.649 -0.3572  0.7248 -0.0383
 9771TIP3   OH250803   4.591   5.859  10.772  0.0009  0.3191 -0.8953
 9771TIP3    H150804   4.562   5.930  10.715 -0.1462 -0.3147 -1.6198
 9771TIP3    H250805   4.665   5.819  10.726 -0.4930 -0.5660 -0.9357
 9772TIP3   OH250806   5.035   5.697   4.629  0.3150 -0.2177 -0.5488
 9772TIP3    H150807   4.979   5.774   4.618  0.5592 -0.0503 -0.6415
 9772TIP3    H250808   4.991   5.644   4.695  2.0577  1.8395  2.3848
 9773TIP3   OH250809   2.295   5.308  12.246  0.6091  0.2532 -0.0467
 9773TIP3    H150810   2.300   5.328  12.153 -1.7117  2.4123  0.2295
 9773TIP3    H250811   2.386   5.303  12.275  1.3606 -1.2062 -2.5685
 9774TIP3   OH250812   6.408   3.737  11.614 -0.1278 -0.5943 -0.1411
 9774TIP3    H150813   6.496   3.703  11.602 -0.1465 -0.4748 -0.6591
 9774TIP3    H250814   6.395   3.795  11.539 -0.8735 -1.0843 -0.3922
 9775TIP3   OH250815   3.317   1.570   4.954 -0.3736 -0.0497  0.6588
 9775TIP3    H150816   3.340   1.659   4.980 -1.2775 -0.3737  2.6882
 9775TIP3    H250817   3.299   1.576   4.860  2.8124  1.2270  0.0521
 9776TIP3   OH250818   2.436   0.838  16.102  0.1310 -0.0958 -0.2008
 9776TIP3    H150819   2.390   0.788  16.170 -1.3601  1.4588 -0.0537
 9776TIP3    H250820   2.475   0.912  16.149 -2.0726  1.7528 -1.2447
 9777TIP3   OH250821   3.366   5.101  12.160  0.6142 -0.3367 -0.3650
 9777TIP3    H150822   3.396   5.185  12.124 -1.0360 -0.4460 -2.0391
 9777TIP3    H250823   3.435   5.039  12.134  2.7584  0.7491  2.4117
 9778TIP3   OH250824   5.931   3.847   3.702  0.0116 -0.4322 -0.3864
 9778TIP3    H150825   5.942   3.857   3.608  2.8708 -1.2445 -0.1764
 9778TIP3    H250826   5.873   3.919   3.727 -1.9759 -1.0874 -2.9596
 9779TIP3   OH250827   0.873   2.175  12.651 -0.2906 -0.3493 -0.2810
 9779TIP3    H150828   0.929   2.173  12.729  1.8197  1.3553 -1.7000
 9779TIP3    H250829   0.933   2.165  12.578 -2.1439 -0.9618 -1.7555
 9780TIP3   OH250830   5.047   6.330   3.449  0.2052 -0.5253 -0.2530
 9780TIP3    H150831   5.075   6.341   3.540  0.0302 -1.6420 -0.0535
 9780TIP3    H250832   4.951   6.337   3.453  0.2997  1.0644 -0.6022
 9781TIP3   OH250833   5.065   1.751   2.016  0.1172  0.2735  0.2917
 9781TIP3    H150834   4.982   1.722   1.977  0.6682  0.9521 -1.4629
 9781TIP3    H250835   5.131   1.698   1.972  0.6028 -0.4266  1.8550
 9782TIP3   OH250836   0.270   4.797   2.568  0.0394  0.0911  0.3614
 9782TIP3    H150837   0.231   4.833   2.647  1.4826 -0.6798  1.4519
 9782TIP3    H250838   0.363   4.790   2.588  0.4985  0.3042 -1.5741
 9783TIP3   OH250839   0.797   6.723  12.286 -0.1552 -0.6737 -0.1798
 9783TIP3    H150840   0.817   6.753  12.375  1.0335 -1.4993 -0.1536
 9783TIP3    H250841   0.704   6.741  12.275 -0.0924  0.3667  0.8672
 9784TIP3   OH250842   3.259   6.662   3.925 -0.3603  0.4405 -0.0513
 9784TIP3    H150843   3.213   6.579   3.940  0.9575 -0.2377  0.3547
 9784TIP3    H250844   3.204   6.729   3.965 -1.6805 -0.1789 -0.8028
 9785TIP3   OH250845   0.297   3.125   0.585  0.3667 -0.1941  0.1639
 9785TIP3    H150846   0.238   3.093   0.517  1.0465 -0.9217 -0.0849
 9785TIP3    H250847   0.258   3.208   0.613 -0.0760 -0.0306 -0.9042
 9786TIP3   OH250848   2.035   4.441   0.384 -0.5513 -0.1645  0.4970
 9786TIP3    H150849   2.113   4.390   0.361 -0.3163 -0.0612  1.0467
 9786TIP3    H250850   1.995   4.392   0.456 -1.3651 -0.5748 -0.2321
 9787TIP3   OH250851   1.562   1.817  11.314 -0.4711  0.1776 -0.2450
 9787TIP3    H150852   1.497   1.881  11.342  0.1951  0.4600  0.7056
 9787TIP3    H250853   1.526   1.778  11.235 -3.3368 -1.9454  1.9788
 9788TIP3   OH250854   5.455   3.513   0.167  0.6963  0.5289 -0.4339
 9788TIP3    H150855   5.495   3.563   0.238  1.4986  0.1348 -0.6071
 9788TIP3    H250856   5.366   3.549   0.160  0.1382 -0.3670  1.6756
 9789TIP3   OH250857   2.318   5.054  14.750 -0.6693 -0.7333  0.2253
 9789TIP3    H150858   2.246   5.100  14.795 -1.6115 -1.1553 -0.8299
 9789TIP3    H250859   2.336   4.979  14.806  0.2877  0.4217  1.5134
 9790TIP3   OH250860   5.067   6.764  14.335  0.0406 -0.4796 -0.1475
 9790TIP3    H150861   5.061   6.858  14.318  0.5891 -0.4017  0.0593
 9790TIP3    H250862   5.057   6.723  14.250  0.7079 -0.1890 -0.3719
 9791TIP3   OH250863   6.157   4.706   1.869 -0.4902 -0.0441 -1.3592
 9791TIP3    H150864   6.136   4.728   1.779 -0.9330  1.6401 -0.8583
 9791TIP3    H250865   6.238   4.755   1.888 -0.0989 -0.8156 -1.0088
 9792TIP3   OH250866   3.760   0.007  12.758 -0.4334  0.4865  0.0932
 9792TIP3    H150867   3.840  -0.043  12.745  0.0338  0.4913  2.6901
 9792TIP3    H250868   3.690  -0.058  12.757 -0.4221  0.4935 -2.2538
 9793TIP3   OH250869   6.639   3.180  11.236 -0.3430  0.4141  0.4303
 9793TIP3    H150870   6.726   3.186  11.196  0.0515 -0.2458  1.1655
 9793TIP3    H250871   6.610   3.091  11.216 -1.3992  1.0304 -0.8946
 9794TIP3   OH250872   3.286   4.626  14.357 -0.4505 -0.2040  0.3660
 9794TIP3    H150873   3.303   4.616  14.264 -1.5173  1.8588 -0.0858
 9794TIP3    H250874   3.255   4.540  14.386 -2.6710 -0.1667 -1.7605
 9795TIP3   OH250875   5.487   0.533  16.884  0.3599  0.1444 -0.1565
 9795TIP3    H150876   5.418   0.550  16.820  1.4051  0.4639 -1.2353
 9795TIP3    H250877   5.457   0.457  16.933 -0.2314 -0.4340 -1.4039
 9796TIP3   OH250878   1.468   0.348  11.823 -0.0344  0.4150  0.0900
 9796TIP3    H150879   1.513   0.417  11.871 -0.5855  0.4177  0.6051
 9796TIP3    H250880   1.382   0.341  11.865  0.2364 -1.0060  0.4556
 9797TIP3   OH250881   3.695   0.693   6.465 -0.0866  0.0779  0.2341
 9797TIP3    H150882   3.640   0.673   6.389 -0.2489  0.3820  0.2662
 9797TIP3    H250883   3.634   0.731   6.529  0.3649  1.5464 -0.1902
 9798TIP3   OH250884   2.253   3.953  15.957  0.0123 -0.1127 -0.2550
 9798TIP3    H150885   2.201   4.033  15.966  0.5896  0.1877  0.4870
 9798TIP3    H250886   2.226   3.899  16.031  0.4692 -0.1193 -0.0939
 9799TIP3   OH250887   3.486   4.124  17.243  0.1377 -0.1351 -0.3138
 9799TIP3    H150888   3.460   4.039  17.278 -1.7279  0.4661 -0.1565
 9799TIP3    H250889   3.410   4.180  17.259  0.7169  1.1373 -1.8935
 9800TIP3   OH250890   4.331   2.652  14.660 -0.4541 -0.0237 -0.0442
 9800TIP3    H150891   4.387   2.696  14.724 -0.2906  0.4358 -0.5009
 9800TIP3    H250892   4.382   2.576  14.631  0.2601  0.8233 -1.0343
 9801TIP3   OH250893   2.902   1.864  11.541  0.3413  0.5231 -0.1895
 9801TIP3    H150894   2.969   1.803  11.512 -0.0968 -0.3004  0.5134
 9801TIP3    H250895   2.950   1.946  11.558  1.1435 -0.0061  0.1326
 9802TIP3   OH250896   0.714   2.622   1.866 -0.6428  0.0203  0.3490
 9802TIP3    H150897   0.735   2.573   1.787 -2.5487 -0.4058  0.0826
 9802TIP3    H250898   0.796   2.626   1.915  0.3534 -0.4213 -1.2545
 9803TIP3   OH250899   0.480   0.315   3.156 -0.1404 -0.4545  0.0124
 9803TIP3    H150900   0.447   0.284   3.240 -3.2793  1.1234 -0.5880
 9803TIP3    H250901   0.465   0.410   3.158  1.4625 -0.1435 -1.6018
 9804TIP3   OH250902   2.275   4.935   2.983  0.3671 -0.1386  0.3322
 9804TIP3    H150903   2.288   5.027   2.962 -2.3949  0.6113  1.6157
 9804TIP3    H250904   2.255   4.934   3.077  2.3494 -2.2714  0.7873
 9805TIP3   OH250905   0.684   0.893   1.312 -0.5228  0.0020  0.6382
 9805TIP3    H150906   0.618   0.902   1.243  0.3925  0.1502 -0.2237
 9805TIP3    H250907   0.695   0.798   1.322 -0.4099 -0.0116  0.3595
 9806TIP3   OH250908   2.475   3.871  14.252 -0.5194 -0.0449  0.8302
 9806TIP3    H150909   2.494   3.787  14.294  0.7124 -0.4226 -0.4279
 9806TIP3    H250910   2.423   3.848  14.175 -1.3114  0.4827  1.1951
 9807TIP3   OH250911   3.426   4.941  15.222  0.1261 -0.1485  0.2799
 9807TIP3    H150912   3.374   4.918  15.299 -1.4028 -0.2315 -0.7547
 9807TIP3    H250913   3.384   5.020  15.188  1.4329  0.4827  0.1433
 9808TIP3   OH250914   5.582   5.826   6.291  0.0674 -0.0472  0.6503
 9808TIP3    H150915   5.530   5.853   6.367 -1.5636 -3.2160  0.7590
 9808TIP3    H250916   5.560   5.734   6.279  0.4031  0.3306 -3.6188
 9809TIP3   OH250917   0.730   4.925   3.006  0.5499 -0.3567 -0.3347
 9809TIP3    H150918   0.776   5.005   2.980  0.4914  0.0694  0.8544
 9809TIP3    H250919   0.643   4.955   3.033  0.6172 -0.7826  0.3636
 9810TIP3   OH250920   6.166   1.321  10.414 -0.1347  0.3872 -0.2369
 9810TIP3    H150921   6.185   1.413  10.429 -1.8651  0.7046  0.1960
 9810TIP3    H250922   6.251   1.277  10.415  0.5655  1.7585  1.1412
 9811TIP3   OH250923   5.783   6.763  15.455 -0.4745  0.4295 -0.1076
 9811TIP3    H150924   5.856   6.822  15.435  0.4228 -1.0980 -1.6183
 9811TIP3    H250925   5.796   6.739  15.547  1.7974 -0.8762 -0.7041
 9812TIP3   OH250926   1.921   0.057  11.363  0.5559 -0.5591  0.0779
 9812TIP3    H150927   1.978   0.017  11.298 -0.5463 -2.1114  0.0328
 9812TIP3    H250928   1.865   0.117  11.313  0.0948 -1.3271 -0.3362
 9813TIP3   OH250929   4.664   6.570  16.971  0.6449  0.4079 -0.4473
 9813TIP3    H150930   4.610   6.500  17.008 -0.9912  2.7574  1.8066
 9813TIP3    H250931   4.655   6.560  16.876 -0.5042 -1.7254 -0.1418
 9814TIP3   OH250932   3.630   1.550  12.193 -0.7715 -0.2665 -1.1533
 9814TIP3    H150933   3.542   1.565  12.161 -1.1438  1.8806  0.7775
 9814TIP3    H250934   3.687   1.592  12.129 -1.3544  1.4932 -0.5326
 9815TIP3   OH250935   4.215   5.423   5.492  0.0113  0.2135 -0.1274
 9815TIP3    H150936   4.228   5.511   5.527 -0.5556  1.2258 -2.3960
 9815TIP3    H250937   4.303   5.392   5.472  0.1847  0.3801  0.3602
 9816TIP3   OH250938   1.601   1.843  12.562  0.3267  0.1187 -0.1861
 9816TIP3    H150939   1.691   1.876  12.558 -0.0961  1.2265 -0.6059
 9816TIP3    H250940   1.608   1.752  12.533  1.1685  0.4710 -1.1276
 9817TIP3   OH250941   0.268   4.400   3.229 -0.4622  0.3675  0.3222
 9817TIP3    H150942   0.318   4.477   3.255  1.0633 -0.2154 -0.7788
 9817TIP3    H250943   0.181   4.414   3.265  0.9149  0.6617  3.7367
 9818TIP3   OH250944   6.224   1.781  16.826  0.3636 -0.3119  0.2245
 9818TIP3    H150945   6.262   1.693  16.832 -0.7305 -0.7650  0.7312
 9818TIP3    H250946   6.172   1.790  16.906  2.7429  1.9034  1.5924
 9819TIP3   OH250947   5.868   4.587  11.787  1.0624 -0.2248  0.0459
 9819TIP3    H150948   5.778   4.605  11.760  0.7520  0.2480  1.3853
 9819TIP3    H250949   5.883   4.496  11.760 -0.6270 -1.0878  1.9043
 9820TIP3   OH250950   5.682   4.416  16.941 -0.5954  0.3490 -0.4502
 9820TIP3    H150951   5.646   4.331  16.916  0.6733 -0.3979  0.2305
 9820TIP3    H250952   5.683   4.415  17.037  2.2413 -0.1082 -0.4454
 9821TIP3   OH250953   2.104   2.373  11.176 -0.0475  0.5463 -0.9009
 9821TIP3    H150954   2.166   2.304  11.198 -1.1402 -0.4594 -0.8975
 9821TIP3    H250955   2.019   2.337  11.202 -0.6839  1.6789 -1.4011
 9822TIP3   OH250956   6.097   0.164   5.498  0.4495  0.4695 -0.1520
 9822TIP3    H150957   6.006   0.190   5.511  0.6092  1.1263 -0.3185
 9822TIP3    H250958   6.094   0.068   5.495 -0.2778  0.4956 -0.4834
 9823TIP3   OH250959   4.192   0.132   3.552  0.1871 -0.4482 -0.4455
 9823TIP3    H150960   4.268   0.118   3.496 -0.3949 -1.5513 -0.9729
 9823TIP3    H250961   4.197   0.225   3.576  1.7490 -0.5324 -0.3805
 9824TIP3   OH250962   2.852   2.756   5.665  0.3835 -0.4578 -0.8799
 9824TIP3    H150963   2.885   2.846   5.672  1.7563 -1.1618  2.1614
 9824TIP3    H250964   2.916   2.703   5.713 -1.2655 -2.8667 -1.2663
 9825TIP3   OH250965   1.954   3.933   1.019  0.1979  0.5672 -0.0826
 9825TIP3    H150966   1.867   3.921   1.058  0.7053 -0.3932  0.7600
 9825TIP3    H250967   1.937   3.938   0.925 -0.9063  1.6506  0.1581
 9826TIP3   OH250968   4.258   4.003  13.207 -0.4154 -0.2778 -0.1608
 9826TIP3    H150969   4.181   4.059  13.216 -1.4761 -1.8806  1.1489
 9826TIP3    H250970   4.249   3.961  13.122  0.5276  1.7262 -1.2629
 9827TIP3   OH250971   2.435   2.809   0.131 -0.1294  0.3856 -0.4368
 9827TIP3    H150972   2.346   2.795   0.162  0.5611 -0.4823  1.2427
 9827TIP3    H250973   2.447   2.904   0.134 -0.6503  0.4305  0.3739
 9828TIP3   OH250974   1.430   0.792   1.793 -0.2043 -0.2013 -0.0890
 9828TIP3    H150975   1.394   0.794   1.882 -1.5237  1.2052 -0.6401
 9828TIP3    H250976   1.523   0.773   1.806 -0.9211 -2.9187  1.4036
 9829TIP3   OH250977   4.115   5.824   3.124  0.3133  0.1986 -0.2683
 9829TIP3    H150978   4.098   5.771   3.201 -1.1398  0.3865 -0.4482
 9829TIP3    H250979   4.165   5.899   3.157  0.3406 -0.0970  0.3649
 9830TIP3   OH250980   0.331   4.713  15.966 -0.1971 -0.0388 -0.0409
 9830TIP3    H150981   0.377   4.763  16.033  0.2555  0.4626 -0.7213
 9830TIP3    H250982   0.383   4.724  15.887 -0.7669 -0.5662 -0.5006
 9831TIP3   OH250983   3.717   0.370  12.869  0.1135  0.3465 -0.3650
 9831TIP3    H150984   3.700   0.388  12.777  0.1635  0.3942 -0.3656
 9831TIP3    H250985   3.653   0.303  12.893 -1.1107  1.6486  0.0506
 9832TIP3   OH250986   3.513   2.270   2.786  0.3846  0.1689 -0.1656
 9832TIP3    H150987   3.606   2.259   2.765  0.0189  1.0402 -2.4141
 9832TIP3    H250988   3.502   2.364   2.799 -0.4028  0.2217 -1.1199
 9833TIP3   OH250989   3.450   3.530   2.282 -0.1410  0.0337  0.3355
 9833TIP3    H150990   3.495   3.479   2.215  0.6750 -0.1802  1.0370
 9833TIP3    H250991   3.357   3.510   2.269  0.0355 -0.2109 -0.5556
 9834TIP3   OH250992   6.793   5.468  13.851 -0.7374  0.6245 -0.0696
 9834TIP3    H150993   6.807   5.563  13.847 -0.9077  0.6015 -1.9468
 9834TIP3    H250994   6.780   5.442  13.759 -2.0741 -1.0007  0.5505
 9835TIP3   OH250995   5.317   1.343  13.618  0.7065 -0.1126 -0.6059
 9835TIP3    H150996   5.241   1.345  13.675  0.4593 -1.6945 -0.8638
 9835TIP3    H250997   5.320   1.431  13.579 -0.6344  0.1426 -0.1503
 9836TIP3   OH250998   0.157   1.127   5.990  0.1324  0.0021  0.1737
 9836TIP3    H150999   0.161   1.221   6.008 -0.1809  0.0983 -0.2387
 9836TIP3    H251000   0.246   1.104   5.965  0.2329  0.1698  0.3728
 9837TIP3   OH251001   4.020   6.395   5.114  0.1238  0.0435  0.3452
 9837TIP3    H151002   3.941   6.435   5.077  0.7930  1.1379  0.0763
 9837TIP3    H251003   4.012   6.408   5.208 -0.8692 -1.4424  0.4930
 9838TIP3   OH251004   4.905   5.089   5.946  0.9072 -0.2441 -0.6223
 9838TIP3    H151005   4.952   5.010   5.920  1.7485  0.2228 -0.5705
 9838TIP3    H251006   4.841   5.059   6.011  0.9666 -0.9327 -0.8816
 9839TIP3   OH251007   1.120   4.327  17.074 -0.4876  0.5194  0.3523
 9839TIP3    H151008   1.132   4.262  17.004  0.4854  0.4623  0.5683
 9839TIP3    H251009   1.032   4.362  17.059 -0.2381  0.6091 -0.9868
 9840TIP3   OH251010   1.136   0.066  13.597 -0.0785 -0.3987 -0.0913
 9840TIP3    H151011   1.171  -0.013  13.638  1.3558  0.5896  0.6670
 9840TIP3    H251012   1.084   0.108  13.666  0.5969  0.1842  0.0784
 9841TIP3   OH251013   2.757   2.349  10.727 -0.5829 -0.2980 -0.7560
 9841TIP3    H151014   2.840   2.370  10.684  0.6216  2.2195  2.5866
 9841TIP3    H251015   2.778   2.275  10.784 -0.7899 -0.0795 -0.3963
 9842TIP3   OH251016   0.796   0.065  16.322 -0.3097  0.0500  0.3268
 9842TIP3    H151017   0.702   0.067  16.306 -0.4746 -2.1876  0.8897
 9842TIP3    H251018   0.806   0.014  16.402  1.4069  0.0776  0.1522
 9843TIP3   OH251019   2.273   3.277  15.780 -0.3677 -0.2318 -0.4297
 9843TIP3    H151020   2.240   3.187  15.779  0.5641 -0.5805 -2.3497
 9843TIP3    H251021   2.332   3.279  15.856 -2.3513 -0.4824  1.1482
 9844TIP3   OH251022   0.673   4.058   0.075 -0.0583  0.1261 -0.6694
 9844TIP3    H151023   0.719   4.126   0.124 -0.6474  0.0147  0.0353
 9844TIP3    H251024   0.581   4.082   0.082 -0.4955 -2.0330  1.5701
 9845TIP3   OH251025   5.705   6.029  16.368 -0.0318  0.2456  0.4657
 9845TIP3    H151026   5.718   5.934  16.376  1.1138  0.4696  1.3073
 9845TIP3    H251027   5.621   6.037  16.323  0.1323 -1.1770 -0.1416
 9846TIP3   OH251028   0.042   6.549   3.414  0.1984 -0.3487 -0.2395
 9846TIP3    H151029   0.103   6.535   3.487  0.5703 -0.4620 -0.5670
 9846TIP3    H251030   0.032   6.644   3.409 -0.3992 -0.3689  0.4218
 9847TIP3   OH251031   1.780   3.391  16.884 -0.0505 -0.2329 -0.8113
 9847TIP3    H151032   1.802   3.316  16.940  1.2510 -1.3606 -2.7694
 9847TIP3    H251033   1.855   3.450  16.892 -0.9649  0.7838  0.5334
 9848TIP3   OH251034   6.033   6.073  10.731  0.6232  0.0697  0.4198
 9848TIP3    H151035   5.975   6.053  10.805  0.4017  2.3061  0.9080
 9848TIP3    H251036   5.984   6.045  10.654  1.2069 -3.0727  1.1175
 9849TIP3   OH251037   0.607   3.043   3.002 -0.5256 -1.1893  0.1778
 9849TIP3    H151038   0.630   3.136   2.995  1.6571 -1.6249  1.1433
 9849TIP3    H251039   0.565   3.022   2.919  2.2840 -0.2279 -1.5710
 9850TIP3   OH251040   0.267   4.125  11.079 -0.0229  0.2004  0.4688
 9850TIP3    H151041   0.195   4.184  11.101  1.5543  2.0583  0.7800
 9850TIP3    H251042   0.289   4.083  11.162 -0.4085  0.0116  0.4768
 9851TIP3   OH251043   4.250   0.590  11.397  0.1473 -0.5090  0.2217
 9851TIP3    H151044   4.312   0.521  11.423  0.2542 -0.4867  0.0271
 9851TIP3    H251045   4.303   0.651  11.346  0.4117  0.5653  1.7531
 9852TIP3   OH251046   5.703   2.522  14.853 -0.3477 -0.2267  0.0869
 9852TIP3    H151047   5.612   2.538  14.830  0.0896  1.4228 -0.6098
 9852TIP3    H251048   5.740   2.610  14.867  1.1689 -0.8581  0.1737
 9853TIP3   OH251049   0.052   5.167  12.508 -1.0681 -0.4545  0.4977
 9853TIP3    H151050   0.079   5.084  12.468 -1.4706  0.3021 -1.4132
 9853TIP3    H251051  -0.037   5.152  12.538 -1.1986 -0.6799  0.0048
 9854TIP3   OH251052   0.398   3.657  12.469  0.2446 -0.4221 -0.0746
 9854TIP3    H151053   0.381   3.597  12.396 -0.9539  0.1296 -0.2522
 9854TIP3    H251054   0.482   3.697  12.447  0.9539 -1.8536 -0.0698
 9855TIP3   OH251055   2.028   2.624  14.493 -0.2345 -0.5461  0.6380
 9855TIP3    H151056   1.984   2.568  14.557 -0.7890 -1.5660 -0.6275
 9855TIP3    H251057   1.971   2.623  14.416 -1.2960  3.3788  1.2411
 9856TIP3   OH251058   2.937   1.683  14.979  0.1848 -0.8632 -0.3747
 9856TIP3    H151059   2.858   1.736  14.968  0.5115 -0.3421 -0.2729
 9856TIP3    H251060   2.918   1.601  14.934 -0.6993 -1.0408  0.3290
 9857TIP3   OH251061   5.821   4.288  12.025  0.3968 -0.6501  0.0494
 9857TIP3    H151062   5.733   4.290  11.988  1.1311  0.1663 -1.7219
 9857TIP3    H251063   5.876   4.331  11.959  2.0594 -0.8134  1.2868
 9858TIP3   OH251064   4.192   2.895  11.171  0.7040  0.1024  0.3727
 9858TIP3    H151065   4.189   2.890  11.075  0.0097 -0.7083  0.4238
 9858TIP3    H251066   4.179   2.804  11.199  2.0388  0.1666  1.2178
 9859TIP3   OH251067   2.478   4.334   3.975 -0.4135  0.2782 -0.0130
 9859TIP3    H151068   2.485   4.323   4.070 -0.3741  1.2225  0.1029
 9859TIP3    H251069   2.543   4.401   3.954 -1.0333  0.7177 -0.5756
 9860TIP3   OH251070   0.549   5.771   0.060  0.0440 -0.0056  0.3181
 9860TIP3    H151071   0.608   5.825   0.113 -0.1898 -1.3176  1.9376
 9860TIP3    H251072   0.595   5.688   0.049  0.3242  0.4322 -2.0208
 9861TIP3   OH251073   0.925   0.215  17.246 -0.2624 -0.2740  0.3744
 9861TIP3    H151074   0.836   0.181  17.239 -0.5469  0.0475  2.1733
 9861TIP3    H251075   0.919   0.306  17.218 -0.2926 -0.5438 -0.5020
 9862TIP3   OH251076   6.594   3.059  16.642 -0.2266 -0.5608  0.1212
 9862TIP3    H151077   6.530   3.011  16.589 -0.8339 -0.3951  0.6849
 9862TIP3    H251078   6.679   3.029  16.610 -0.5897 -2.1253  0.5334
 9863TIP3   OH251079   2.772   0.509   1.976 -0.1117  0.0028  0.2854
 9863TIP3    H151080   2.733   0.513   2.063  2.2140 -1.2936  1.4404
 9863TIP3    H251081   2.754   0.420   1.946 -0.2089  0.1902 -0.2030
 9864TIP3   OH251082   3.928   3.813  17.210  0.6232 -0.0202 -0.2052
 9864TIP3    H151083   3.879   3.731  17.214  1.7834 -0.7837 -1.3220
 9864TIP3    H251084   3.908   3.856  17.293 -1.3866 -0.6162 -0.3532
 9865TIP3   OH251085   1.467   0.405   3.086  0.7853 -0.0858  0.2067
 9865TIP3    H151086   1.419   0.486   3.071 -0.5604 -0.4283  2.3493
 9865TIP3    H251087   1.544   0.411   3.029  0.4178  2.4162 -0.0843
 9866TIP3   OH251088   1.161   3.996  13.907 -0.7128 -0.1622  0.7314
 9866TIP3    H151089   1.117   4.050  13.973  1.0701 -0.6920  2.3933
 9866TIP3    H251090   1.130   4.031  13.824 -0.6196  2.5641  1.7747
 9867TIP3   OH251091   4.453   6.627   1.025  0.0862  0.2074 -0.1059
 9867TIP3    H151092   4.389   6.695   1.002  0.9044  0.7133 -0.9050
 9867TIP3    H251093   4.429   6.601   1.114 -1.5772  0.0070 -0.5911
 9868TIP3   OH251094   4.374   5.608  13.652  0.0205 -0.7275 -0.2729
 9868TIP3    H151095   4.348   5.595  13.743 -0.4131 -0.1757 -0.3086
 9868TIP3    H251096   4.395   5.701  13.646 -1.0462 -0.5150 -0.9941
 9869TIP3   OH251097   0.524   5.366   1.464  0.3058 -0.2715  0.1441
 9869TIP3    H151098   0.472   5.304   1.413 -0.3377 -0.1787  0.6720
 9869TIP3    H251099   0.477   5.373   1.547 -0.2950  1.8509 -0.3625
 9870TIP3   OH251100   3.724   2.637  13.897  0.1541  0.3135 -0.3092
 9870TIP3    H151101   3.697   2.642  13.805 -0.2472  3.0246 -0.0941
 9870TIP3    H251102   3.813   2.673  13.898 -0.0693  0.8481  0.4492
 9871TIP3   OH251103   0.054   6.120  13.367 -0.3092  0.2857  0.4839
 9871TIP3    H151104   0.083   6.170  13.290  1.3928  0.0994  0.9834
 9871TIP3    H251105   0.121   6.053  13.378 -1.6980 -1.0723  0.8337
 9872TIP3   OH251106   2.451   4.942   4.443  0.3292  0.7357 -0.3944
 9872TIP3    H151107   2.532   4.987   4.465 -0.8885  2.6720  0.2471
 9872TIP3    H251108   2.452   4.863   4.497  1.1265  1.4393  0.6300
 9873TIP3   OH251109   5.970   3.204  12.320 -0.0640  0.4436  0.0025
 9873TIP3    H151110   5.922   3.253  12.253  0.2252  0.9644  0.1767
 9873TIP3    H251111   5.975   3.264  12.395  2.5569  1.0993 -0.6882
 9874TIP3   OH251112   1.717   4.739  12.171 -1.1335 -0.0975 -0.2487
 9874TIP3    H151113   1.635   4.760  12.125  0.0994  1.4586 -1.8156
 9874TIP3    H251114   1.777   4.809  12.145 -0.0477  0.2352  2.9190
 9875TIP3   OH251115   3.537   5.695  13.777 -0.1493 -0.7451 -0.6840
 9875TIP3    H151116   3.511   5.765  13.718  1.5613  1.5322  1.1261
 9875TIP3    H251117   3.461   5.682  13.834  0.3541  1.4899  0.5834
 9876TIP3   OH251118   2.459   5.596   1.859 -0.1956  0.3889 -0.5045
 9876TIP3    H151119   2.429   5.509   1.886  1.1947  0.1361  0.3174
 9876TIP3    H251120   2.418   5.656   1.922 -2.4439  0.5206 -2.0446
 9877TIP3   OH251121   3.590   0.317  13.965 -0.3198 -0.3477  0.0837
 9877TIP3    H151122   3.639   0.369  14.029 -1.2381  0.0345  0.4978
 9877TIP3    H251123   3.546   0.383  13.910 -0.4614 -0.6789 -0.1983
 9878TIP3   OH251124   0.346   0.169  13.921  0.2767  0.3080  0.3829
 9878TIP3    H151125   0.326   0.208  13.836 -1.6828  0.2496  0.7854
 9878TIP3    H251126   0.358   0.243  13.980 -2.4805  0.3888  0.9314
 9879TIP3   OH251127   6.066   3.587  17.072 -0.1937  0.0300 -0.0808
 9879TIP3    H151128   6.090   3.495  17.085  0.5672 -0.0234 -1.7127
 9879TIP3    H251129   5.983   3.582  17.024  0.1801  0.1800 -0.7523
 9880TIP3   OH251130   5.786   4.417   4.765 -0.2740  0.1368 -0.2340
 9880TIP3    H151131   5.882   4.418   4.772 -0.1608 -1.3382 -1.4332
 9880TIP3    H251132   5.758   4.363   4.838 -0.3273  2.0149  1.1898
 9881TIP3   OH251133   1.371   3.731   0.365  0.3514 -0.3899 -0.2446
 9881TIP3    H151134   1.359   3.779   0.283 -2.3960  0.4526  0.5944
 9881TIP3    H251135   1.299   3.668   0.367  1.2577 -1.4286  0.8370
 9882TIP3   OH251136   3.698   0.481   2.463  0.2025 -0.4728 -0.3764
 9882TIP3    H151137   3.744   0.449   2.540  0.4709 -1.8659 -1.1033
 9882TIP3    H251138   3.708   0.576   2.467 -1.9442 -0.3345  2.6062
 9883TIP3   OH251139   6.347   5.019  13.657 -0.8118 -0.0812 -0.4605
 9883TIP3    H151140   6.345   4.940  13.603 -1.7478  0.0382 -0.6194
 9883TIP3    H251141   6.435   5.020  13.695 -0.1730 -0.2298 -1.8852
 9884TIP3   OH251142   3.855   6.755   0.946 -0.5267 -0.3671  0.3585
 9884TIP3    H151143   3.784   6.728   0.889  0.1072 -0.4699 -0.3837
 9884TIP3    H251144   3.849   6.851   0.949 -0.2322 -0.3222 -0.3206
 9885TIP3   OH251145   6.247   5.557   6.026  0.2936 -0.3976 -0.3850
 9885TIP3    H151146   6.169   5.513   6.058  0.7009  0.0208  1.2262
 9885TIP3    H251147   6.320   5.510   6.066  0.7470  1.5468  1.2027
 9886TIP3   OH251148   2.922   4.342   3.860 -0.0197 -0.0946  0.0107
 9886TIP3    H151149   2.896   4.268   3.804  2.0935 -3.6098  3.3972
 9886TIP3    H251150   3.017   4.333   3.868  0.0867  2.1397  1.6870
 9887TIP3   OH251151   1.659   1.100  13.255  0.1664 -0.4985  0.7915
 9887TIP3    H151152   1.655   1.175  13.314  2.0996 -0.5135  0.9623
 9887TIP3    H251153   1.696   1.135  13.174 -0.9303 -0.8344  0.1279
 9888TIP3   OH251154   3.332   6.275   3.044  0.0898  0.1374  0.6652
 9888TIP3    H151155   3.281   6.336   2.992  1.5478  0.1236 -0.8047
 9888TIP3    H251156   3.374   6.330   3.110  2.1887  0.9204 -1.2618
 9889TIP3   OH251157   6.483   3.447  15.008 -0.4762 -0.0187  0.2292
 9889TIP3    H151158   6.393   3.415  15.012 -0.3227 -0.5317 -0.2900
 9889TIP3    H251159   6.491   3.508  15.081 -0.9286 -0.7796  0.9175
 9890TIP3   OH251160   6.509   1.393  14.798  0.1309  0.0267  0.2978
 9890TIP3    H151161   6.478   1.479  14.824 -0.0452  0.3941 -1.0970
 9890TIP3    H251162   6.469   1.377  14.713 -0.1699 -1.6157  0.7216
 9891TIP3   OH251163   6.221   2.017   5.824  0.1615  0.1166 -0.1428
 9891TIP3    H151164   6.224   1.945   5.887  0.2030  0.6853  0.5107
 9891TIP3    H251165   6.193   2.093   5.875 -0.6269  0.3990 -0.9916
 9892TIP3   OH251166   6.295   1.265  13.760  0.2034  0.1271 -0.3774
 9892TIP3    H151167   6.360   1.212  13.805  1.1465  2.6524  1.3056
 9892TIP3    H251168   6.336   1.287  13.676  1.0041  0.6192  0.1382
 9893TIP3   OH251169   5.510   3.749   2.515  0.0645 -0.4829  0.3854
 9893TIP3    H151170   5.437   3.810   2.502  0.5532 -0.0844 -0.5399
 9893TIP3    H251171   5.468   3.668   2.545 -0.5063  0.5476  2.4040
 9894TIP3   OH251172   5.017   1.445  17.148 -0.1436 -0.2745 -0.2745
 9894TIP3    H151173   4.992   1.361  17.109  1.3023 -0.9748  0.2779
 9894TIP3    H251174   4.945   1.504  17.126 -1.2204 -1.6851 -0.5764
 9895TIP3   OH251175   4.027   6.717  10.857 -0.1626  0.2063  0.2379
 9895TIP3    H151176   3.947   6.668  10.879 -0.5202  0.5026 -0.3691
 9895TIP3    H251177   4.098   6.667  10.897 -0.5656 -0.5805 -0.0271
 9896TIP3   OH251178   3.177   3.136   5.433  0.0897  0.5603  0.0442
 9896TIP3    H151179   3.239   3.196   5.393 -2.3806  2.9932 -0.3239
 9896TIP3    H251180   3.191   3.147   5.527 -0.1874  1.6331 -0.0226
 9897TIP3   OH251181   0.494   5.069   2.346 -0.1764  0.8334  0.5181
 9897TIP3    H151182   0.535   5.155   2.344  0.2021  0.6989  1.9155
 9897TIP3    H251183   0.536   5.021   2.274 -0.4354  1.8284 -0.3037
 9898TIP3   OH251184   1.533   5.803   2.322  0.0238  0.1210 -0.1670
 9898TIP3    H151185   1.617   5.757   2.322  0.2878  0.5870 -0.6330
 9898TIP3    H251186   1.554   5.891   2.290 -0.7421  0.0555 -0.8659
 9899TIP3   OH251187   0.156   5.079  14.202 -0.0919 -0.1397  0.3005
 9899TIP3    H151188   0.190   4.991  14.215  2.3428  0.4432 -1.7307
 9899TIP3    H251189   0.192   5.130  14.274 -0.2551 -0.4816  0.6227
 9900TIP3   OH251190   6.605   3.476   3.712 -0.0583 -0.2996  0.1273
 9900TIP3    H151191   6.645   3.390   3.729  2.0490  0.5718 -0.2643
 9900TIP3    H251192   6.595   3.515   3.798 -1.6556 -1.1935  0.3644
 9901TIP3   OH251193   4.953   2.699  12.167 -0.3657 -0.1870  0.6211
 9901TIP3    H151194   5.006   2.769  12.205 -0.1204 -0.6548  1.1521
 9901TIP3    H251195   5.005   2.667  12.094 -0.9939  0.9494 -0.3459
 9902TIP3   OH251196   1.242   5.677  15.395  0.1985  0.6867 -0.4314
 9902TIP3    H151197   1.159   5.643  15.428 -0.1165  0.6252 -1.2582
 9902TIP3    H251198   1.304   5.604  15.407 -0.2038  0.2201 -1.1177
 9903TIP3   OH251199   4.436   1.438   4.639  0.6621 -0.6291  0.3452
 9903TIP3    H151200   4.403   1.355   4.604  0.4690 -0.3154 -0.2224
 9903TIP3    H251201   4.405   1.440   4.729  2.0821 -1.9572  0.9006
 9904TIP3   OH251202   3.815   6.678  11.626  0.1696 -0.1788  0.0986
 9904TIP3    H151203   3.747   6.684  11.559  0.0934 -0.2899  0.1672
 9904TIP3    H251204   3.768   6.678  11.709  0.3170  0.9734  0.1903
 9905TIP3   OH251205   5.669   3.511  16.406 -0.6901  0.0962 -0.0854
 9905TIP3    H151206   5.590   3.543  16.363 -0.5841  0.6499  0.1360
 9905TIP3    H251207   5.694   3.434  16.355 -0.8906  0.4192 -0.6698
 9906TIP3   OH251208   0.799   0.775  16.090 -0.2501 -0.0612 -0.6228
 9906TIP3    H151209   0.715   0.792  16.134  0.5192  3.2502 -0.2948
 9906TIP3    H251210   0.860   0.757  16.162 -0.0606  0.4538 -0.6524
 9907TIP3   OH251211   4.571   3.253  14.449 -0.4914 -0.0724 -0.4093
 9907TIP3    H151212   4.475   3.252  14.447 -0.4825 -0.0780 -0.7630
 9907TIP3    H251213   4.597   3.161  14.448 -0.4566 -0.0576 -1.4953
 9908TIP3   OH251214   6.033   2.869   2.183  0.4705 -0.1987  0.4518
 9908TIP3    H151215   5.986   2.865   2.266  1.8171 -1.0511  1.1824
 9908TIP3    H251216   6.105   2.806   2.192 -0.2360 -1.4289 -1.9128
 9909TIP3   OH251217   3.187   4.910   1.213 -0.0444  0.5456 -0.2657
 9909TIP3    H151218   3.123   4.973   1.181 -0.5969  0.3356  0.4200
 9909TIP3    H251219   3.271   4.943   1.180 -0.4461  1.0743 -0.7729
 9910TIP3   OH251220   6.199   2.397   3.245 -0.1475 -0.1117 -1.1961
 9910TIP3    H151221   6.240   2.410   3.331 -1.2124 -0.2091 -0.6669
 9910TIP3    H251222   6.105   2.401   3.262 -0.3654  1.2979 -2.5871
 9911TIP3   OH251223   2.892   5.183  17.256 -0.0962 -0.0102 -0.1087
 9911TIP3    H151224   2.840   5.262  17.269 -0.7757 -0.1473 -1.9342
 9911TIP3    H251225   2.958   5.207  17.191 -0.1864 -0.8879 -0.5375
 9912TIP3   OH251226   6.623   3.572  11.932 -0.8014 -0.2223  0.4157
 9912TIP3    H151227   6.612   3.554  12.025  0.4751  0.8852  0.8019
 9912TIP3    H251228   6.551   3.525  11.890 -0.5106 -2.0006  1.8131
 9913TIP3   OH251229   1.107   4.043  14.950  0.7051 -0.1184 -0.4723
 9913TIP3    H151230   1.024   4.080  14.919  0.4860 -0.6157 -0.4785
 9913TIP3    H251231   1.174   4.087  14.897  0.3405 -0.8603 -1.5549
 9914TIP3   OH251232   3.299   6.518  16.896 -0.0801  0.1844  0.1115
 9914TIP3    H151233   3.308   6.444  16.956 -1.3001 -1.3296 -1.5258
 9914TIP3    H251234   3.308   6.595  16.952  1.4804 -1.1799  1.8032
 9915TIP3   OH251235   1.351   4.259   2.041  0.0376  0.2574 -0.6106
 9915TIP3    H151236   1.439   4.296   2.026 -0.4146  0.5257 -2.8504
 9915TIP3    H251237   1.291   4.326   2.009 -0.8988 -0.9417 -1.4339
 9916TIP3   OH251238   5.703   4.720   0.505  0.0042  0.2743 -0.0434
 9916TIP3    H151239   5.647   4.715   0.427  2.3547 -1.6563 -1.6599
 9916TIP3    H251240   5.648   4.763   0.570 -2.4658  0.8010 -2.3658
 9917TIP3   OH251241   3.598   3.022   2.891 -0.5143  0.2522  0.7973
 9917TIP3    H151242   3.680   3.020   2.841 -0.3453 -0.0817  1.0849
 9917TIP3    H251243   3.575   3.114   2.896 -0.9164  0.2392 -0.5259
 9918TIP3   OH251244   5.736   2.389   0.719 -0.4081 -0.0241 -0.2741
 9918TIP3    H151245   5.706   2.448   0.788 -1.2281  1.6447 -2.0090
 9918TIP3    H251246   5.656   2.352   0.682 -0.1114  0.7907 -1.7713
 9919TIP3   OH251247   0.354   6.209   3.067 -0.1360  0.4152  0.7196
 9919TIP3    H151248   0.433   6.261   3.051  0.0730  0.4319  1.7902
 9919TIP3    H251249   0.284   6.257   3.023  0.5923 -0.1075 -1.0999
 9920TIP3   OH251250   1.731   6.695   5.303  0.2735  0.5348  1.3298
 9920TIP3    H151251   1.730   6.773   5.248 -0.5736 -0.2025  0.2992
 9920TIP3    H251252   1.804   6.643   5.270 -0.9587 -0.4444  0.1592
 9921TIP3   OH251253   2.568   0.769   3.423  0.2471 -0.2095 -0.4107
 9921TIP3    H151254   2.554   0.799   3.333 -1.7630  0.5266  0.1348
 9921TIP3    H251255   2.586   0.849   3.472 -1.2974 -0.3052  0.3291
 9922TIP3   OH251256   0.195   3.890  14.469 -0.3227  0.5591  0.0195
 9922TIP3    H151257   0.264   3.826  14.481  0.3308  1.2948  0.2230
 9922TIP3    H251258   0.137   3.878  14.545 -0.9031 -0.6402 -0.5984
 9923TIP3   OH251259   3.429   5.200  17.042 -0.1481  0.3347  0.0258
 9923TIP3    H151260   3.490   5.256  16.995 -1.5818  1.3636 -0.6612
 9923TIP3    H251261   3.426   5.238  17.130 -0.1775  0.5969 -0.0860
 9924TIP3   OH251262   3.104   3.170   3.158 -0.3958  0.0547  0.1376
 9924TIP3    H151263   3.092   3.144   3.067 -0.2317  2.3883 -0.5965
 9924TIP3    H251264   3.155   3.251   3.153  0.9617 -0.6280  2.3821
 9925TIP3   OH251265   1.032   4.334   1.557 -0.3020 -0.7115 -0.3854
 9925TIP3    H151266   1.009   4.254   1.509 -1.6581 -0.9150  0.5767
 9925TIP3    H251267   1.008   4.405   1.498 -0.6787 -0.9803 -0.5563
 9926TIP3   OH251268   6.498   0.668  17.179  0.0786  1.0855  0.1665
 9926TIP3    H151269   6.499   0.590  17.125  1.2132 -0.8941  2.9089
 9926TIP3    H251270   6.405   0.686  17.195 -0.2297  1.2471 -1.7410
 9927TIP3   OH251271   5.912   4.924  11.954 -0.7805  0.0439  0.4035
 9927TIP3    H151272   5.853   4.965  12.017 -2.5185 -2.0786  0.2321
 9927TIP3    H251273   5.860   4.916  11.874  0.9942  1.5747 -0.9418
 9928TIP3   OH251274   2.140   3.067  15.943 -0.6986 -0.1564  0.3421
 9928TIP3    H151275   2.209   3.009  15.911  0.1963  1.4977 -0.7946
 9928TIP3    H251276   2.125   3.037  16.033  0.0796 -1.8259 -0.0498
 9929TIP3   OH251277   6.599   3.805  12.910 -0.0039 -0.0446  0.2829
 9929TIP3    H151278   6.554   3.872  12.961 -0.5028 -0.5804  0.5531
 9929TIP3    H251279   6.567   3.722  12.946  1.3031 -0.4363  0.5873
 9930TIP3   OH251280   2.339   6.786  16.475  0.0111 -0.0832 -0.0401
 9930TIP3    H151281   2.403   6.754  16.539  1.1057  0.0051 -1.0634
 9930TIP3    H251282   2.259   6.737  16.494 -0.3704  1.5654  2.8632
 9931TIP3   OH251283   4.042   3.798  15.240  0.0581 -0.2077 -0.5537
 9931TIP3    H151284   4.071   3.767  15.154 -0.7944 -0.3430 -0.7955
 9931TIP3    H251285   3.965   3.851  15.222  0.2455  0.2840  0.0729
 9932TIP3   OH251286   6.687   1.898   4.238  0.1090 -0.1265 -0.2925
 9932TIP3    H151287   6.737   1.944   4.305  1.1868  0.0097 -1.1793
 9932TIP3    H251288   6.701   1.806   4.257 -0.0787 -0.0931  0.0216
 9933TIP3   OH251289   1.120   4.502  14.254  0.0636  0.1863  0.2936
 9933TIP3    H151290   1.169   4.478  14.175 -0.2893  1.7677 -0.4339
 9933TIP3    H251291   1.161   4.453  14.324 -0.5732 -2.4167 -1.1016
 9934TIP3   OH251292   2.653   3.486  12.478  0.6597  0.2954 -0.5272
 9934TIP3    H151293   2.656   3.502  12.383 -2.3835  0.7485 -0.6030
 9934TIP3    H251294   2.595   3.410  12.486  2.0484 -0.6386  0.9149
 9935TIP3   OH251295   0.336   0.923   3.056 -0.3887  0.6774  0.0597
 9935TIP3    H151296   0.247   0.896   3.036  0.2134 -0.7407 -0.8471
 9935TIP3    H251297   0.327   0.997   3.116 -2.1885  1.4613 -1.1365
 9936TIP3   OH251298   5.627   1.979  15.738 -0.1675  0.2321 -0.3306
 9936TIP3    H151299   5.572   1.962  15.662  0.2289  0.0542 -0.5844
 9936TIP3    H251300   5.640   2.074  15.738 -0.9212  0.3395  0.0515
 9937TIP3   OH251301   6.006   2.647  15.954  0.0279 -0.2733  0.7444
 9937TIP3    H151302   5.955   2.675  15.878  0.6887 -1.2298 -0.0591
 9937TIP3    H251303   5.950   2.665  16.029 -0.9611 -0.0991 -0.0334
 9938TIP3   OH251304   0.041   3.603  16.442 -0.0881 -0.0737  0.0230
 9938TIP3    H151305   0.089   3.678  16.478  1.0179 -0.1481 -1.3006
 9938TIP3    H251306  -0.049   3.634  16.436  0.5635  1.6083 -1.6783
 9939TIP3   OH251307   3.350   1.692  15.278 -0.2144 -0.2737 -0.4875
 9939TIP3    H151308   3.407   1.769  15.270  0.3628 -0.6688 -0.1670
 9939TIP3    H251309   3.289   1.714  15.349  1.1046 -0.8393  0.8355
 9940TIP3   OH251310   1.586   5.664   3.107  0.4774  0.1164 -0.1160
 9940TIP3    H151311   1.582   5.569   3.101 -1.8805  0.1278  0.8710
 9940TIP3    H251312   1.549   5.695   3.024 -1.8037  0.1718  0.9091
 9941TIP3   OH251313   1.332   2.568   3.076 -0.3098 -0.7427  0.7855
 9941TIP3    H151314   1.313   2.621   3.154  0.2851  0.4617  0.1255
 9941TIP3    H251315   1.290   2.616   3.004  0.7967 -0.8248  0.0861
 9942TIP3   OH251316   4.895   4.144  15.443 -0.3438 -0.3457 -0.2327
 9942TIP3    H151317   4.954   4.219  15.453  0.7949 -1.2883  0.2185
 9942TIP3    H251318   4.921   4.105  15.360  0.2244 -1.2390  0.3590
 9943TIP3   OH251319   5.245   4.153   1.035  0.0788  0.0283 -0.1513
 9943TIP3    H151320   5.337   4.178   1.040 -0.0932  1.0100 -1.5975
 9943TIP3    H251321   5.246   4.057   1.034  1.0346  0.0249  0.5101
 9944TIP3   OH251322   4.454   3.377   3.320 -0.5051 -0.4841 -0.2416
 9944TIP3    H151323   4.388   3.324   3.364 -0.1276 -1.3452 -0.7116
 9944TIP3    H251324   4.437   3.366   3.227 -0.2181 -0.0428 -0.3506
 9945TIP3   OH251325   3.074   4.353  12.535  0.3333  0.2116 -0.5590
 9945TIP3    H151326   3.143   4.392  12.588  1.2585 -0.6439 -1.1119
 9945TIP3    H251327   3.120   4.307  12.465 -0.8317  0.3768 -1.4552
 9946TIP3   OH251328   2.836   5.364   0.596 -0.4074 -0.7596  0.0715
 9946TIP3    H151329   2.915   5.381   0.545 -1.2471  1.0418 -0.6933
 9946TIP3    H251330   2.807   5.278   0.567  0.8310 -1.0876 -0.2329
 9947TIP3   OH251331   0.518   4.924   6.659  0.0166  0.1565 -0.2445
 9947TIP3    H151332   0.552   5.008   6.691  1.1518 -0.2138 -0.4630
 9947TIP3    H251333   0.427   4.943   6.637  0.2350  1.3242 -0.2181
 9948TIP3   OH251334   1.793   3.839  14.114 -0.6348  0.2247  0.4194
 9948TIP3    H151335   1.787   3.822  14.020 -2.7082  0.9870  0.3842
 9948TIP3    H251336   1.818   3.931  14.120  0.5025 -0.0914  0.6219
 9949TIP3   OH251337   4.665   0.490  12.842  0.1286  0.3729  0.0762
 9949TIP3    H151338   4.687   0.408  12.798  0.2160 -0.2608  1.2681
 9949TIP3    H251339   4.649   0.465  12.933 -0.6688  1.5560  0.2817
 9950TIP3   OH251340   5.530   2.710  13.212 -0.2034  0.4623 -0.0524
 9950TIP3    H151341   5.526   2.742  13.302  0.2743  1.2848 -0.3145
 9950TIP3    H251342   5.472   2.634  13.211 -0.9885  1.0281  0.7141
 9951TIP3   OH251343   3.458   0.092   5.323 -0.2748  0.4328 -0.1177
 9951TIP3    H151344   3.530   0.155   5.327  0.9511 -0.9414 -0.1747
 9951TIP3    H251345   3.411   0.105   5.406  1.6955 -0.5816  1.2048
 9952TIP3   OH251346   2.316   3.716   3.033 -0.9759  0.3824 -0.9156
 9952TIP3    H151347   2.269   3.790   3.072 -0.3236  0.3726 -0.0970
 9952TIP3    H251348   2.340   3.662   3.108 -0.2095  0.0656 -1.3896
 9953TIP3   OH251349   2.363   1.755  13.432  0.1306  0.7949  0.0369
 9953TIP3    H151350   2.318   1.670  13.434 -0.6254  1.0929 -2.3232
 9953TIP3    H251351   2.453   1.734  13.407 -0.4169  0.7849 -2.0155
 9954TIP3   OH251352   0.627   1.863   2.213  0.1642 -0.4537  0.1459
 9954TIP3    H151353   0.722   1.862   2.222  0.2240  0.3133 -0.3583
 9954TIP3    H251354   0.607   1.783   2.164  0.8342  0.8549 -2.3645
 9955TIP3   OH251355   0.391   3.263  12.467  0.5820 -0.0197 -0.1358
 9955TIP3    H151356   0.418   3.260  12.559 -0.4970  0.9646  0.2257
 9955TIP3    H251357   0.459   3.316  12.425  2.6415 -2.8298 -0.4980
 9956TIP3   OH251358   0.411   1.486   4.099  0.1648  0.1307  0.3292
 9956TIP3    H151359   0.473   1.554   4.073 -1.0854  0.7066 -1.2418
 9956TIP3    H251360   0.329   1.533   4.113 -0.5756 -0.9810 -0.2380
 9957TIP3   OH251361   4.749   4.446   3.634  0.1023  0.3018 -0.0537
 9957TIP3    H151362   4.655   4.430   3.627 -0.1530  1.3875  0.8007
 9957TIP3    H251363   4.783   4.424   3.548 -0.8964 -0.3322 -0.3013
 9958TIP3   OH251364   1.166   4.951   3.790 -0.2252  0.2316 -0.2644
 9958TIP3    H151365   1.117   4.956   3.872  0.7396 -0.2405  0.3545
 9958TIP3    H251366   1.172   4.857   3.772  0.2465  0.2977 -0.4541
 9959TIP3   OH251367   4.606   5.096  11.075  0.3637  0.3576  0.4941
 9959TIP3    H151368   4.538   5.051  11.026  0.1653 -1.2460  2.2008
 9959TIP3    H251369   4.687   5.053  11.050  0.4221  0.4325  0.5551
 9960TIP3   OH251370   3.233   0.061  14.268  0.0505  0.0734 -0.4114
 9960TIP3    H151371   3.252   0.112  14.189  1.8609  1.3093  0.7646
 9960TIP3    H251372   3.316   0.018  14.289 -0.1166  0.5472  1.3477
 9961TIP3   OH251373   5.703   2.193  14.320 -0.0446  0.1284 -0.1610
 9961TIP3    H151374   5.705   2.256  14.248 -0.7030  0.0406 -0.2568
 9961TIP3    H251375   5.792   2.194  14.355  0.5275 -0.5378 -1.5775
 9962TIP3   OH251376   0.034   4.435  12.511  0.1038  0.3590  0.3397
 9962TIP3    H151377   0.105   4.462  12.452  1.3181  0.4042  1.7901
 9962TIP3    H251378   0.052   4.482  12.592 -0.5597 -1.0354  1.3078
 9963TIP3   OH251379   4.728   3.160   0.178  0.2072  0.0194 -0.0953
 9963TIP3    H151380   4.716   3.212   0.257  0.2677 -0.3478  0.1568
 9963TIP3    H251381   4.728   3.070   0.209 -1.7374 -0.2259 -0.7409
 9964TIP3   OH251382   3.496   3.412   6.662 -0.3944 -0.2530  0.3414
 9964TIP3    H151383   3.427   3.345   6.663  0.6335 -1.3455 -0.9654
 9964TIP3    H251384   3.488   3.452   6.576 -1.5497  1.9221  1.4206
 9965TIP3   OH251385   0.893   6.452  14.609  0.4225 -0.2449  0.2533
 9965TIP3    H151386   0.825   6.480  14.671  1.4828  0.4273  1.1345
 9965TIP3    H251387   0.869   6.363  14.586 -0.3927 -0.2525  1.0928
 9966TIP3   OH251388   0.016   3.942   1.410  0.4628 -0.2624  0.4004
 9966TIP3    H151389  -0.054   3.942   1.346  1.1447 -1.6090 -0.3752
 9966TIP3    H251390  -0.024   3.975   1.490 -0.8298 -0.2141 -0.2566
 9967TIP3   OH251391   4.769   5.462   2.295  0.1896 -0.1188  0.2072
 9967TIP3    H151392   4.727   5.474   2.210 -1.1406 -0.1139  0.8606
 9967TIP3    H251393   4.811   5.547   2.313  2.7956 -0.9638 -1.6766
 9968TIP3   OH251394   0.476   3.846   0.192 -0.4361  0.0932 -0.0625
 9968TIP3    H151395   0.405   3.808   0.141 -0.0218  0.3947 -0.8814
 9968TIP3    H251396   0.483   3.936   0.159  2.3861 -0.8460 -2.2394
 9969TIP3   OH251397   1.604   2.288   2.924  0.4716  0.2711 -0.2360
 9969TIP3    H151398   1.596   2.287   3.019  0.2293 -0.1579 -0.2594
 9969TIP3    H251399   1.690   2.327   2.907 -0.3348  2.2751  0.0975
 9970TIP3   OH251400   0.680   4.376   4.142  0.5014 -0.2523 -0.1259
 9970TIP3    H151401   0.673   4.313   4.071 -1.9729  0.2296 -0.3832
 9970TIP3    H251402   0.680   4.323   4.222  0.5331 -0.6763 -0.4078
 9971TIP3   OH251403   4.024   0.693  17.277  0.1936  0.1550  0.4169
 9971TIP3    H151404   3.954   0.745  17.239  1.6117  0.0915 -2.4271
 9971TIP3    H251405   3.982   0.610  17.302 -1.1466  0.9338  0.7679
 9972TIP3   OH251406   3.326   5.541  13.847 -0.0274  0.0190 -0.4370
 9972TIP3    H151407   3.323   5.518  13.754 -0.7601  0.8326 -0.6167
 9972TIP3    H251408   3.243   5.584  13.864  0.6741  1.1359  0.2661
 9973TIP3   OH251409   3.067   3.614   2.409  0.1846 -0.2095 -0.8085
 9973TIP3    H151410   3.021   3.640   2.488 -0.5672  2.2292 -2.0113
 9973TIP3    H251411   3.132   3.550   2.439 -0.4546  0.2688  1.6657
 9974TIP3   OH251412   3.046   4.816   4.311 -0.6980 -0.0465  0.1928
 9974TIP3    H151413   3.115   4.794   4.248 -0.1140  1.5702  0.2404
 9974TIP3    H251414   3.019   4.732   4.348 -0.8852 -1.0275 -2.0352
 9975TIP3   OH251415   4.982   0.540  12.906  0.2254 -0.7267 -0.0814
 9975TIP3    H151416   4.999   0.578  12.992  0.3701 -1.5520  0.2636
 9975TIP3    H251417   5.066   0.542  12.861 -0.0969  0.7466 -0.6327
 9976TIP3   OH251418   0.127   1.825  17.287  0.6559 -0.1364 -0.3944
 9976TIP3    H151419   0.176   1.743  17.293 -0.8072 -0.9498  0.7269
 9976TIP3    H251420   0.175   1.877  17.223  0.4244 -2.7187 -2.7853
 9977TIP3   OH251421   5.206   5.208   5.090  0.3108 -0.2723 -0.1055
 9977TIP3    H151422   5.273   5.144   5.113 -1.0555 -1.2975  1.0633
 9977TIP3    H251423   5.123   5.165   5.109 -0.6512  1.5665 -0.0084
 9978TIP3   OH251424   6.307   3.587   3.324  0.0454  0.1262  0.2649
 9978TIP3    H151425   6.270   3.499   3.339 -0.4428  0.7664  2.9613
 9978TIP3    H251426   6.239   3.647   3.355  0.9696  1.4515 -0.2459
 9979TIP3   OH251427   0.990   2.999   5.121  0.2347 -0.3872  0.0788
 9979TIP3    H151428   1.084   3.003   5.108  0.3975 -0.3191  1.2305
 9979TIP3    H251429   0.977   2.933   5.188 -0.4406  0.4556  0.7997
 9980TIP3   OH251430   0.151   2.038   5.748 -0.2629  0.4028 -0.2739
 9980TIP3    H151431   0.188   2.013   5.663  0.1084  0.0411 -0.0073
 9980TIP3    H251432   0.058   2.016   5.741  0.0392 -0.9324 -0.0850
 9981TIP3   OH251433   6.712   4.256   5.038 -0.1145 -0.3267 -0.2776
 9981TIP3    H151434   6.648   4.281   4.972 -0.5722  1.2977  0.7323
 9981TIP3    H251435   6.661   4.213   5.107  0.0482 -0.1467 -0.0403
 9982TIP3   OH251436   1.005   6.097  16.601  0.3369  0.3121 -0.3122
 9982TIP3    H151437   1.019   6.147  16.681 -0.2733 -0.8989  0.5672
 9982TIP3    H251438   0.911   6.079  16.600  0.3554  0.2314 -1.2522
 9983TIP3   OH251439   1.819   0.457   1.924 -0.5546 -0.1445  0.3863
 9983TIP3    H151440   1.856   0.372   1.947  2.7228  1.5145  1.5406
 9983TIP3    H251441   1.746   0.469   1.985 -0.4180 -1.6584  0.8720
 9984TIP3   OH251442   1.800   2.547  13.310 -0.2119  0.2065  0.0885
 9984TIP3    H151443   1.814   2.614  13.243  0.2811  0.4309  0.4188
 9984TIP3    H251444   1.828   2.588  13.392 -0.0934 -0.3387  0.3222
 9985TIP3   OH251445   1.229   2.109   5.661  0.3514 -0.5921 -0.2002
 9985TIP3    H151446   1.232   2.132   5.568 -0.3400  1.5164  0.2634
 9985TIP3    H251447   1.321   2.109   5.688  0.4224  1.0908 -0.3757
 9986TIP3   OH251448   3.705   6.566  12.663  0.1720 -0.0090 -0.1736
 9986TIP3    H151449   3.628   6.592  12.612  0.5216  2.0187  0.2814
 9986TIP3    H251450   3.752   6.504  12.606  0.2313  1.7130 -2.0792
 9987TIP3   OH251451   2.757   6.100   4.441  0.1842  0.0278 -0.0737
 9987TIP3    H151452   2.698   6.158   4.489 -1.0258 -0.3540 -1.0606
 9987TIP3    H251453   2.776   6.147   4.360  1.1331  0.0855  0.1752
 9988TIP3   OH251454   1.364   3.349  11.989 -0.4406 -0.5892  0.1529
 9988TIP3    H151455   1.391   3.380  11.903 -1.6843 -1.0215 -0.3877
 9988TIP3    H251456   1.413   3.404  12.050  1.8576 -1.4869 -0.8093
 9989TIP3   OH251457   1.375   2.956  16.800  0.2692 -0.7182  0.3426
 9989TIP3    H151458   1.379   2.993  16.712 -0.3400 -0.3107  0.4755
 9989TIP3    H251459   1.420   3.021  16.855 -1.9640  0.5201  0.7879
 9990TIP3   OH251460   4.320   5.991   4.541  0.9322  0.0870 -0.4381
 9990TIP3    H151461   4.382   6.050   4.583 -0.0837  0.8564 -0.0077
 9990TIP3    H251462   4.373   5.940   4.480  2.0431  0.4925  0.1784
 9991TIP3   OH251463   2.822   1.566  12.489  0.3219 -0.3828  0.7375
 9991TIP3    H151464   2.788   1.644  12.445  1.0555 -0.5654 -0.1627
 9991TIP3    H251465   2.913   1.589  12.509  0.0243 -0.3305  2.0951
 9992TIP3   OH251466   3.797   2.638  16.687  0.2378 -0.4791 -0.0055
 9992TIP3    H151467   3.782   2.619  16.780  0.0996 -1.7761 -0.2946
 9992TIP3    H251468   3.718   2.608  16.643  0.6985 -0.7251 -0.6669
 9993TIP3   OH251469   3.899   4.876  12.737  0.5466 -0.3529  0.4401
 9993TIP3    H151470   3.956   4.890  12.812 -0.2001 -0.3695  1.0172
 9993TIP3    H251471   3.910   4.783  12.715  0.9277 -0.2970  0.3894
 9994TIP3   OH251472   3.628   3.332   1.803  0.1862  0.4539  0.1259
 9994TIP3    H151473   3.621   3.239   1.827  1.7445  0.4431  0.5509
 9994TIP3    H251474   3.569   3.341   1.727  0.9858 -1.1550 -0.7113
 9995TIP3   OH251475   0.225   0.847  14.921 -0.2203  0.5858  1.1091
 9995TIP3    H151476   0.309   0.869  14.881  0.3787 -0.1719  1.9162
 9995TIP3    H251477   0.214   0.754  14.904 -1.9754  1.1357 -0.9108
 9996TIP3   OH251478   5.253   3.228   1.490 -0.4808  0.1939 -0.4917
 9996TIP3    H151479   5.254   3.297   1.423 -2.3899  0.5901 -0.1569
 9996TIP3    H251480   5.186   3.166   1.459 -0.0564 -0.5728  0.1225
 9997TIP3   OH251481   2.631   0.685   6.861  0.3029 -0.5028 -0.1566
 9997TIP3    H151482   2.658   0.726   6.943 -3.3336  2.2107 -0.1806
 9997TIP3    H251483   2.592   0.756   6.810 -1.1164 -2.8996 -2.5675
 9998TIP3   OH251484   5.753   2.666  11.573 -0.5370  0.4265  0.4860
 9998TIP3    H151485   5.812   2.712  11.513 -1.6611  0.0034 -0.9590
 9998TIP3    H251486   5.811   2.620  11.633  0.5984  1.5183  0.2470
 9999TIP3   OH251487   3.547   3.832  15.000  0.5152  0.4621  0.0155
 9999TIP3    H151488   3.497   3.758  14.966  0.9607  0.1354  0.0667
 9999TIP3    H251489   3.487   3.876  15.059 -0.5116  1.4683 -1.7551
10000TIP3   OH251490   1.361   3.477   0.151  0.6334  0.1059  0.4173
10000TIP3    H151491   1.433   3.463   0.213 -0.0954 -1.3651  0.9664
10000TIP3    H251492   1.399   3.533   0.083  1.9339  0.3763  1.3310
10001TIP3   OH251493   3.628   0.116  11.787  0.1980  0.5423  0.2781
10001TIP3    H151494   3.624   0.059  11.864 -0.6175  1.2367  0.7536
10001TIP3    H251495   3.609   0.057  11.713  1.7395 -0.2733  0.5185
10002TIP3   OH251496   5.051   5.980  11.589 -0.1147  0.0301 -0.2102
10002TIP3    H151497   5.127   6.010  11.538  0.2028  1.9851  1.3726
10002TIP3    H251498   5.087   5.957  11.674 -1.0926 -0.3645  0.0939
10003TIP3   OH251499   1.103   6.532  14.774  0.0321 -0.2348  0.2988
10003TIP3    H151500   1.032   6.489  14.727 -0.1921  0.3553  0.0893
10003TIP3    H251501   1.059   6.596  14.831  0.3790  0.0120  0.2926
10004TIP3   OH251502   1.235   1.308  15.885  0.1284 -0.5499 -0.1531
10004TIP3    H151503   1.251   1.336  15.975  0.7252  0.3622 -0.5346
10004TIP3    H251504   1.275   1.376  15.831  0.7667 -1.6412 -1.1044
10005TIP3   OH251505   6.498   4.873  16.076 -0.4910 -0.1321  0.5585
10005TIP3    H151506   6.565   4.888  16.142  0.4948 -0.4382 -0.3643
10005TIP3    H251507   6.534   4.910  15.996 -0.4573 -2.2534 -0.4423
10006TIP3   OH251508   4.764   5.236  16.624  0.2224 -0.0257 -0.3875
10006TIP3    H151509   4.792   5.155  16.581 -1.5015 -0.8746  0.0602
10006TIP3    H251510   4.687   5.211  16.674  1.2528  1.3037  1.9412
10007TIP3   OH251511   5.024   3.483  16.908 -0.1037 -0.8137  0.4452
10007TIP3    H151512   5.003   3.575  16.919 -0.2847 -0.9310  1.0606
10007TIP3    H251513   5.036   3.449  16.997 -1.6717 -1.7643  0.3204
10008TIP3   OH251514   5.891   5.496   3.356 -0.1320 -0.2480 -0.5080
10008TIP3    H151515   5.912   5.500   3.450  2.2597  0.2129 -1.0337
10008TIP3    H251516   5.831   5.570   3.343  0.1185  0.1619  0.5264
10009TIP3   OH251517   2.166   4.589  16.619 -0.6262 -0.0428  0.3628
10009TIP3    H151518   2.163   4.528  16.546 -0.7777  2.0057 -1.3736
10009TIP3    H251519   2.259   4.601  16.636 -0.5502  0.9639 -0.7611
10010TIP3   OH251520   3.065   3.059   1.914 -0.1618 -0.1497  0.7540
10010TIP3    H151521   3.043   3.132   1.971 -2.0287  0.5355 -0.7666
10010TIP3    H251522   3.020   2.984   1.952 -1.1528  0.2443  0.3829
10011TIP3   OH251523   2.850   3.980   4.690 -0.0534 -0.4522  0.1389
10011TIP3    H151524   2.906   3.914   4.649 -1.1999 -1.5664  0.3498
10011TIP3    H251525   2.902   4.060   4.687 -0.1294 -0.4416 -3.6182
10012TIP3   OH251526   4.970   4.842  15.136 -0.2749  0.0498 -0.1851
10012TIP3    H151527   4.888   4.889  15.150  2.0222  3.4095  2.6571
10012TIP3    H251528   4.987   4.799  15.220  1.6863  0.7569 -0.2017
10013TIP3   OH251529   2.823   6.366  11.379 -0.3033 -0.3588 -0.4364
10013TIP3    H151530   2.781   6.345  11.295 -0.0264  0.2360 -0.7258
10013TIP3    H251531   2.916   6.355  11.362 -0.0857  1.8060 -0.8112
10014TIP3   OH251532   0.036   5.380   1.533 -0.0342 -0.3808 -0.1837
10014TIP3    H151533   0.051   5.300   1.483  0.2901 -0.1223 -0.5029
10014TIP3    H251534   0.015   5.447   1.467  0.6424  0.0204  0.0042
10015TIP3   OH251535   0.534   1.345   0.466 -0.5880 -0.6035  0.2299
10015TIP3    H151536   0.443   1.370   0.478 -0.5308  0.1444 -0.8165
10015TIP3    H251537   0.538   1.253   0.492 -1.6562 -0.6735  0.1557
10016TIP3   OH251538   0.255   1.640   1.777  0.4431 -0.6133 -0.1295
10016TIP3    H151539   0.231   1.561   1.728 -0.6843 -1.2379  1.3889
10016TIP3    H251540   0.182   1.700   1.762  0.3331 -0.6205  0.3786
10017TIP3   OH251541   6.391   0.470  10.359 -0.6913 -0.6263  0.8803
10017TIP3    H151542   6.352   0.536  10.416 -1.6085 -2.3469  2.3199
10017TIP3    H251543   6.322   0.404  10.349 -0.2368 -0.7561 -1.5532
10018TIP3   OH251544   0.255   2.887  11.825  0.1932  0.4228 -0.1007
10018TIP3    H151545   0.220   2.846  11.904 -2.6080  1.2456 -0.8516
10018TIP3    H251546   0.274   2.813  11.767  0.9337 -0.1163  0.8190
10019TIP3   OH251547   1.454   5.289   4.275  0.6147  0.2650 -0.2754
10019TIP3    H151548   1.439   5.276   4.181 -2.5930  0.0879  0.2245
10019TIP3    H251549   1.491   5.206   4.305  0.3459 -0.1608 -1.1153
10020TIP3   OH251550   6.244   6.248  10.815  0.2990  0.0379  0.4043
10020TIP3    H151551   6.258   6.248  10.910 -0.8517  2.6839  0.6321
10020TIP3    H251552   6.185   6.175  10.799 -1.7557  1.2569  2.1464
10021TIP3   OH251553   6.739   1.206  16.495  0.1357  0.3924 -0.1450
10021TIP3    H151554   6.745   1.125  16.546  0.0648  0.4160 -0.0990
10021TIP3    H251555   6.675   1.187  16.427  0.3283  0.3163 -0.3070
10022TIP3   OH251556   4.725   4.062  11.083 -0.8017  0.3102  0.3128
10022TIP3    H151557   4.703   4.134  11.024 -1.3894 -0.6868 -0.7173
10022TIP3    H251558   4.817   4.043  11.065  0.1072  2.4739  2.4350
10023TIP3   OH251559   3.437   0.752  12.134 -0.8410 -0.4174 -0.3989
10023TIP3    H151560   3.448   0.678  12.194 -1.0109  0.6114  0.9417
10023TIP3    H251561   3.495   0.733  12.061  0.4396 -1.0487  0.7550
10024TIP3   OH251562   6.818   5.777  15.055  0.7924  0.1716  0.4036
10024TIP3    H151563   6.893   5.780  15.115  2.5189 -0.0719 -1.6546
10024TIP3    H251564   6.835   5.700  15.000 -0.9591  0.1389 -0.1205
10025TIP3   OH251565   1.383   6.817  16.792 -0.2306 -0.2678  0.1663
10025TIP3    H151566   1.322   6.874  16.745  2.6680  0.9416 -2.2728
10025TIP3    H251567   1.435   6.877  16.845 -0.3803 -1.1720  1.3537
10026TIP3   OH251568   5.455   0.971  11.165 -0.6632 -0.7590  0.1172
10026TIP3    H151569   5.509   0.902  11.205 -0.6782 -0.8309  0.0127
10026TIP3    H251570   5.371   0.964  11.211 -0.8418 -1.1655 -0.2663
10027TIP3   OH251571   3.625   5.547  11.718  0.0856 -0.2147  0.2963
10027TIP3    H151572   3.662   5.468  11.757 -0.5374 -0.5740  0.1608
10027TIP3    H251573   3.601   5.521  11.629  0.4603  0.2991  0.0416
10028TIP3   OH251574   6.503   4.502  13.636  0.3509 -0.4258  0.5289
10028TIP3    H151575   6.433   4.561  13.660 -0.6050 -0.3445 -2.2198
10028TIP3    H251576   6.583   4.545  13.667 -0.5150  1.2048  0.5474
10029TIP3   OH251577   0.933   3.739  14.239 -0.4443 -0.1168 -0.1709
10029TIP3    H151578   0.839   3.720  14.238 -0.3332 -0.6617 -0.4665
10029TIP3    H251579   0.946   3.791  14.318 -0.9292 -0.3593  0.0727
10030TIP3   OH251580   2.394   1.844   3.167 -0.2625  0.3705 -0.3588
10030TIP3    H151581   2.446   1.904   3.220  0.9876 -0.6741 -0.3745
10030TIP3    H251582   2.406   1.759   3.209  2.5277 -0.8900 -3.5619
10031TIP3   OH251583   4.403   3.280   3.055  0.0804 -0.9218 -0.2843
10031TIP3    H151584   4.469   3.326   3.003  0.5888 -1.5208 -0.1822
10031TIP3    H251585   4.323   3.286   3.003 -0.0069  0.5977  0.0197
10032TIP3   OH251586   1.849   2.676   2.212  0.3434 -0.3033 -0.0529
10032TIP3    H151587   1.865   2.706   2.123  1.5452 -2.3478 -0.5583
10032TIP3    H251588   1.765   2.631   2.207 -0.5341  1.2491  0.2965
10033TIP3   OH251589   3.947   2.384   5.255 -0.2963  0.2337  0.2491
10033TIP3    H151590   3.920   2.303   5.211  0.1417  0.4267 -0.3809
10033TIP3    H251591   3.922   2.371   5.346  0.7203 -1.0378  0.3583
10034TIP3   OH251592   1.699   3.415   4.016  0.7705  0.8525 -0.3412
10034TIP3    H151593   1.789   3.425   4.048 -0.3069  2.9110  2.2449
10034TIP3    H251594   1.651   3.485   4.058 -2.0304 -0.0374 -1.9271
10035TIP3   OH251595   2.912   1.494  16.781 -0.1338  0.4015 -0.1227
10035TIP3    H151596   2.976   1.499  16.710  0.0992 -0.8791 -0.0227
10035TIP3    H251597   2.964   1.494  16.861 -0.2345 -0.8630 -0.0471
10036TIP3   OH251598   0.297   1.594  17.245  0.4926  0.4368  0.0928
10036TIP3    H151599   0.381   1.629  17.216  0.4277 -0.4572 -1.2408
10036TIP3    H251600   0.317   1.547  17.326  1.0565  1.2239  0.4228
10037TIP3   OH251601   5.526   4.668   3.723 -0.2289 -0.1123  0.0741
10037TIP3    H151602   5.485   4.752   3.743  0.0916 -0.2150  1.2024
10037TIP3    H251603   5.506   4.613   3.799  0.3503 -0.7652 -0.2414
10038TIP3   OH251604   5.892   5.478   5.087  0.6330  0.1942 -0.0269
10038TIP3    H151605   5.899   5.480   4.992 -1.2690  0.8494 -0.1623
10038TIP3    H251606   5.814   5.426   5.104  0.6096  0.6069  1.1592
10039TIP3   OH251607   1.060   5.326  12.865  0.5208 -0.4858  0.0944
10039TIP3    H151608   1.000   5.256  12.842 -1.2115  0.8009  0.6205
10039TIP3    H251609   1.053   5.334  12.960 -2.5857  3.2047 -0.3000
10040TIP3   OH251610   5.023   3.499  16.546 -0.1069  0.1586 -0.3093
10040TIP3    H151611   5.107   3.468  16.511  0.0823 -0.9057  1.0672
10040TIP3    H251612   5.042   3.587  16.580  0.2149  0.3147 -0.8865
10041TIP3   OH251613   1.400   0.326   5.172  0.3310  0.0052 -0.0268
10041TIP3    H151614   1.456   0.347   5.097  1.3659  1.2795  1.0630
10041TIP3    H251615   1.460   0.316   5.245 -0.7806  0.5464  0.9934
10042TIP3   OH251616   5.077   0.620   4.995  0.4485  0.2153  0.1104
10042TIP3    H151617   5.022   0.588   4.923  0.3036  0.6409  0.0304
10042TIP3    H251618   5.035   0.586   5.074 -0.1211  0.8171  0.0694
10043TIP3   OH251619   5.359   2.129  16.565  0.3480  0.1628 -0.1549
10043TIP3    H151620   5.277   2.177  16.578  0.9681  0.9719  0.8760
10043TIP3    H251621   5.355   2.098  16.475 -0.6608  1.0359 -0.4167
10044TIP3   OH251622   3.960   0.761   2.277  0.2130  0.0205 -0.6221
10044TIP3    H151623   4.044   0.731   2.242  0.1485  1.2165 -1.8188
10044TIP3    H251624   3.895   0.709   2.229  0.2452 -0.7764  0.1767
10045TIP3   OH251625   1.212   0.219  15.705 -0.2646  0.3152 -0.0397
10045TIP3    H151626   1.213   0.124  15.717  0.9848  0.2871 -0.2328
10045TIP3    H251627   1.130   0.237  15.659 -0.5621 -0.6513  0.1008
10046TIP3   OH251628   4.485   4.036  16.474 -0.4730  1.0108  0.4681
10046TIP3    H151629   4.554   4.080  16.522 -0.5266 -0.6953  2.1758
10046TIP3    H251630   4.527   3.959  16.436 -1.2812  0.3043  0.9840
10047TIP3   OH251631   0.873   2.899  11.912 -0.5540  0.0608  0.0128
10047TIP3    H151632   0.930   2.947  11.852 -0.8132  0.7105  0.2836
10047TIP3    H251633   0.890   2.937  11.998 -0.3892 -0.6803  0.3127
10048TIP3   OH251634   2.737   3.274   0.959  0.0971  0.4012  0.7404
10048TIP3    H151635   2.755   3.301   1.049  1.7094  0.5476  0.3856
10048TIP3    H251636   2.681   3.344   0.924  0.6061  1.0433  1.2030
10049TIP3   OH251637   1.927   0.193  11.651  0.1765 -0.6677  0.5378
10049TIP3    H151638   2.009   0.210  11.605 -0.2443  0.2072  0.1016
10049TIP3    H251639   1.878   0.136  11.591  0.5319 -1.3451  0.8787
10050TIP3   OH251640   5.707   0.232   5.690 -0.1692  0.3546  0.2281
10050TIP3    H151641   5.762   0.198   5.761 -0.3359  0.1522  0.2617
10050TIP3    H251642   5.708   0.164   5.623 -0.4406  0.3158  0.2620
10051TIP3   OH251643   6.497   3.045  11.827 -0.2633  0.2571  0.7459
10051TIP3    H151644   6.552   3.078  11.899  2.1718 -0.1357 -0.8728
10051TIP3    H251645   6.485   3.121  11.770  1.2326 -0.4224 -0.4915
10052TIP3   OH251646   5.739   4.360  15.004 -0.7991 -0.4626 -0.0501
10052TIP3    H151647   5.691   4.310  15.070 -0.1189 -1.7499 -0.5068
10052TIP3    H251648   5.827   4.369  15.040 -1.5500  2.6876  1.2055
10053TIP3   OH251649   0.964   0.556   6.135  0.2133 -0.5518  0.4657
10053TIP3    H151650   0.976   0.507   6.053  1.8041 -1.5344  1.2500
10053TIP3    H251651   0.997   0.497   6.202 -3.5733 -0.8652  2.1717
10054TIP3   OH251652   3.717   0.224   1.626 -0.3883  0.1777  0.5952
10054TIP3    H151653   3.811   0.239   1.628 -0.2577 -0.5895  0.4647
10054TIP3    H251654   3.707   0.129   1.635 -1.1516  0.2613  0.7244
10055TIP3   OH251655   5.405   4.854   0.578 -0.6088  0.1922  0.0851
10055TIP3    H151656   5.390   4.761   0.557 -0.5587  0.3395 -0.6405
10055TIP3    H251657   5.352   4.901   0.513  0.6790  0.6876 -0.6248
10056TIP3   OH251658   0.693   6.617  13.537 -0.0958 -0.3453 -0.7320
10056TIP3    H151659   0.653   6.600  13.452  0.7621 -0.5990 -1.0892
10056TIP3    H251660   0.785   6.591  13.526  0.2314  0.4696 -0.0030
10057TIP3   OH251661   4.844   1.454   4.298  0.0583  0.1614  0.2940
10057TIP3    H151662   4.854   1.515   4.371 -1.1736  1.3131 -0.4779
10057TIP3    H251663   4.811   1.508   4.226  2.0626 -0.7803 -1.3820
10058TIP3   OH251664   4.824   4.026   5.820 -0.3240  0.0368 -0.1715
10058TIP3    H151665   4.853   4.114   5.844  0.7962 -0.9009  2.0312
10058TIP3    H251666   4.904   3.975   5.815 -1.1230 -1.3156  0.5113
10059TIP3   OH251667   1.297   5.855   2.935 -0.1667  0.1735  0.3297
10059TIP3    H151668   1.266   5.786   2.876 -1.8117  0.7909  0.4195
10059TIP3    H251669   1.287   5.819   3.023 -0.5630  0.3345  0.3537
10060TIP3   OH251670   4.872   2.839  11.692  0.1899 -0.0020  0.1502
10060TIP3    H151671   4.954   2.832  11.643  0.9153 -1.6651  1.5269
10060TIP3    H251672   4.879   2.923  11.737  1.0000  0.0228 -0.0027
10061TIP3   OH251673   4.030   0.761   1.339 -0.3465 -0.7035 -0.0516
10061TIP3    H151674   3.955   0.791   1.287  1.2727  1.2320 -1.3534
10061TIP3    H251675   4.041   0.828   1.406  0.7674 -0.4839 -0.4399
10062TIP3   OH251676   3.785   3.038   2.686 -0.2950  0.6629 -0.0820
10062TIP3    H151677   3.864   2.990   2.663 -0.5628 -0.2132  0.7936
10062TIP3    H251678   3.748   3.065   2.602 -0.3137 -0.9602 -0.6099
10063TIP3   OH251679   4.576   2.432  12.128 -0.3268  0.0637  0.1102
10063TIP3    H151680   4.524   2.366  12.173  1.5948 -0.7675  1.2109
10063TIP3    H251681   4.580   2.403  12.037 -0.5892 -0.6210  0.3212
10064TIP3   OH251682   1.638   4.185  12.123  0.5552  0.6177  0.9420
10064TIP3    H151683   1.622   4.216  12.033  0.8940  0.1869  0.7317
10064TIP3    H251684   1.708   4.120  12.114  0.4691  0.4457  1.4993
10065TIP3   OH251685   2.591   2.625   2.825 -0.6482  0.2961  0.4760
10065TIP3    H151686   2.684   2.618   2.801 -0.5770 -2.4612  1.3598
10065TIP3    H251687   2.568   2.716   2.805  1.4794  0.2785 -2.4918
10066TIP3   OH251688   4.962   2.518  15.778 -0.1650  0.2640 -0.4523
10066TIP3    H151689   4.946   2.490  15.868  1.0741 -1.5368 -0.7600
10066TIP3    H251690   4.965   2.613  15.782 -0.8798  0.2270  1.2750
10067TIP3   OH251691   5.815   2.696  15.687 -0.3636  0.2703  0.0133
10067TIP3    H151692   5.855   2.635  15.626  1.0841  2.6786 -1.5366
10067TIP3    H251693   5.721   2.677  15.683  0.0419 -1.7365 -0.5119
10068TIP3   OH251694   3.635   2.120   5.362  0.6195  0.0766 -0.3075
10068TIP3    H151695   3.723   2.128   5.325  0.3530  2.2376 -0.5483
10068TIP3    H251696   3.579   2.098   5.288  0.5742  1.2854 -0.6457
10069TIP3   OH251697   5.431   5.869   0.227 -0.1268  0.0844 -0.2649
10069TIP3    H151698   5.421   5.918   0.309 -2.3269 -1.1332  0.2378
10069TIP3    H251699   5.503   5.913   0.181 -0.1658  1.9923  1.4360
10070TIP3   OH251700   1.324   1.953   4.782 -0.1273 -0.0006 -0.5446
10070TIP3    H151701   1.255   2.013   4.753 -0.7951 -0.4350  0.1434
10070TIP3    H251702   1.329   1.966   4.876  0.3310 -0.4017 -0.5132
10071TIP3   OH251703   0.821   0.830  11.838 -0.8636 -0.4503 -0.4409
10071TIP3    H151704   0.824   0.779  11.757  0.1552  0.6630 -1.1282
10071TIP3    H251705   0.728   0.838  11.858 -1.0974 -1.2462 -1.1773
10072TIP3   OH251706   0.020   0.170   1.541  0.0185  0.2583  0.4489
10072TIP3    H151707   0.010   0.234   1.611 -0.5481  0.9794 -0.2721
10072TIP3    H251708  -0.064   0.174   1.494  0.5586  0.1127 -0.5313
10073TIP3   OH251709   5.681   6.295  14.939 -0.2075  0.2880  0.5911
10073TIP3    H151710   5.586   6.282  14.949 -0.0366 -0.5979  1.1196
10073TIP3    H251711   5.688   6.373  14.885 -1.2543  0.0544  0.0870
10074TIP3   OH251712   0.932   6.363   4.542  0.1975  0.0248 -0.1377
10074TIP3    H151713   1.025   6.383   4.546  0.8468 -2.7801  0.3476
10074TIP3    H251714   0.897   6.396   4.624  1.4606 -1.8375  1.2100
10075TIP3   OH251715   3.187   3.884  13.749 -0.6003  0.0532  0.3911
10075TIP3    H151716   3.277   3.902  13.776 -0.4237 -2.4663  1.6193
10075TIP3    H251717   3.184   3.909  13.657  1.1055  0.9892  0.5758
10076TIP3   OH251718   4.098   1.389   5.986 -0.4224 -0.1631 -0.2978
10076TIP3    H151719   4.159   1.427   5.923  0.0999  1.4023  1.0985
10076TIP3    H251720   4.072   1.306   5.948  1.1139  0.0297 -1.8196
10077TIP3   OH251721   1.887   2.387   0.613  0.2961 -0.5878 -0.0776
10077TIP3    H151722   1.886   2.472   0.568  0.3260  0.2048  1.3731
10077TIP3    H251723   1.926   2.327   0.550  0.8594  0.6171 -0.9023
10078TIP3   OH251724   0.965   0.714  13.621  0.1884 -0.2309  0.1852
10078TIP3    H151725   0.890   0.710  13.680  0.9150 -1.3259  1.0506
10078TIP3    H251726   0.951   0.642  13.560  0.2794 -0.1076  0.0173
10079TIP3   OH251727   5.525   0.912   6.025 -0.0199  0.0163  0.5319
10079TIP3    H151728   5.613   0.939   6.052  0.7912 -1.1059 -0.8935
10079TIP3    H251729   5.469   0.936   6.099  1.3990  1.1843  1.2647
10080TIP3   OH251730   0.900   5.760  15.251 -0.0964  0.4562  0.0676
10080TIP3    H151731   0.956   5.733  15.325  0.2660 -0.3634 -0.4943
10080TIP3    H251732   0.917   5.695  15.183  0.0780  1.5768 -0.9882
10081TIP3   OH251733   3.018   3.662   4.834  0.5190 -0.4223  0.5285
10081TIP3    H151734   3.072   3.712   4.895 -0.8505 -0.6824  1.9798
10081TIP3    H251735   2.958   3.613   4.890 -0.7530 -0.6677 -1.0321
10082TIP3   OH251736   2.657   4.613   0.540  0.5573  0.7114 -0.7826
10082TIP3    H151737   2.678   4.660   0.460 -2.2836  0.4945 -1.6994
10082TIP3    H251738   2.664   4.679   0.609 -0.8305  1.8559 -1.7198
10083TIP3   OH251739   5.345   5.896  12.837 -0.3173 -0.1070  0.0688
10083TIP3    H151740   5.365   5.978  12.791  0.7439  0.3891  1.3950
10083TIP3    H251741   5.261   5.868  12.801 -2.2069  3.1361  1.7428
10084TIP3   OH251742   2.567   0.251   3.096 -0.3778  0.4166  0.1881
10084TIP3    H151743   2.503   0.182   3.078 -1.1031  1.4482 -1.2319
10084TIP3    H251744   2.629   0.245   3.024 -0.0816  0.8351  0.4093
10085TIP3   OH251745   0.015   0.231  13.930 -0.3105 -0.7240  0.6959
10085TIP3    H151746  -0.039   0.307  13.953 -0.7353 -0.5847 -0.6842
10085TIP3    H251747   0.080   0.267  13.869  1.9144 -0.7096  3.0201
10086TIP3   OH251748   5.697   3.916  14.226  0.3755  0.0691 -0.5674
10086TIP3    H151749   5.792   3.914  14.229  0.4353  0.0184 -2.4231
10086TIP3    H251750   5.670   3.850  14.291  1.6220 -1.2946 -1.3882
10087TIP3   OH251751   0.806   3.840   1.012  0.2919 -0.0056  0.0887
10087TIP3    H151752   0.792   3.745   1.012 -0.5645  0.1115 -0.5824
10087TIP3    H251753   0.812   3.863   1.105 -1.8231 -0.4044  0.3660
10088TIP3   OH251754   1.855   2.175  15.791  0.4527 -0.0891  0.2220
10088TIP3    H151755   1.881   2.210  15.706  0.9693 -0.6138  0.1587
10088TIP3    H251756   1.907   2.096  15.801 -0.8752 -0.9808  0.2450
10089TIP3   OH251757   2.251   2.162   6.596 -0.4021 -0.0883 -0.2385
10089TIP3    H151758   2.211   2.226   6.537  2.3892  0.8533 -1.1858
10089TIP3    H251759   2.260   2.082   6.543  3.9756  1.3496 -1.9028
10090TIP3   OH251760   6.687   1.961   5.866  0.3913 -0.0070 -0.1630
10090TIP3    H151761   6.641   1.999   5.792 -1.0120  1.4999  1.4291
10090TIP3    H251762   6.667   2.019   5.940  2.9332 -0.6317  1.0968
10091TIP3   OH251763   4.702   4.897  15.171 -0.5415 -0.2491  0.1369
10091TIP3    H151764   4.689   4.842  15.249 -1.3653 -1.3841 -0.7673
10091TIP3    H251765   4.705   4.986  15.204  1.4244 -0.8574  1.7230
10092TIP3   OH251766   2.213   5.623   4.909 -0.3842  0.3179 -0.0497
10092TIP3    H151767   2.289   5.599   4.961 -1.6481  0.7569  2.0823
10092TIP3    H251768   2.222   5.718   4.894 -0.5260  0.3791  0.2463
10093TIP3   OH251769   5.770   3.868  15.798  0.2119 -0.5794  0.5172
10093TIP3    H151770   5.794   3.860  15.706 -2.6865  0.2468 -0.3739
10093TIP3    H251771   5.820   3.943  15.830  0.3767 -0.1487 -0.7251
10094TIP3   OH251772   6.503   0.923  15.326  0.6778  0.9152  0.6545
10094TIP3    H151773   6.515   0.830  15.308  1.1490  1.0867  0.0900
10094TIP3    H251774   6.427   0.948  15.273  0.0383  0.6588  1.4526
10095TIP3   OH251775   1.041   3.532   3.672  0.0802  0.0535  0.0783
10095TIP3    H151776   1.105   3.495   3.734 -2.1233 -1.8375  1.3092
10095TIP3    H251777   1.052   3.479   3.593  0.5589  0.2305  0.0246
10096TIP3   OH251778   1.377   1.144   2.434  0.1071  0.1589  0.2652
10096TIP3    H151779   1.329   1.061   2.439 -2.2881  1.4764 -0.2992
10096TIP3    H251780   1.385   1.162   2.341  0.5074  0.6542  0.3927
10097TIP3   OH251781   2.119   2.237   4.704  0.5953  0.3018 -0.1948
10097TIP3    H151782   2.026   2.262   4.709  0.1268 -1.2447 -0.9826
10097TIP3    H251783   2.128   2.196   4.618  2.2411  1.3048 -0.5226
10098TIP3   OH251784   0.914   6.437  17.274 -0.3302  0.5919  0.2314
10098TIP3    H151785   0.939   6.499  17.205 -0.1170 -1.1745 -1.3154
10098TIP3    H251786   0.993   6.431  17.329  0.4022  0.0596 -0.8544
10099TIP3   OH251787   3.405   2.865   1.538 -0.0215  0.2244  0.5651
10099TIP3    H151788   3.321   2.892   1.499 -1.3314 -1.9205  1.7815
10099TIP3    H251789   3.395   2.883   1.631  0.7235 -0.4152  0.7691
10100TIP3   OH251790   5.461   5.669   1.347 -0.6743  0.2513  0.0671
10100TIP3    H151791   5.477   5.601   1.412 -0.9818 -0.2804 -0.4075
10100TIP3    H251792   5.505   5.637   1.268 -0.5878  0.7304 -0.0765
10101TIP3   OH251793   2.648   3.252  16.833  0.2722  0.1625  0.3037
10101TIP3    H151794   2.683   3.338  16.807  1.4203 -0.3845  0.0301
10101TIP3    H251795   2.598   3.270  16.913  0.1583  1.1519  0.0236
10102TIP3   OH251796   4.292   4.515  11.574 -0.1918 -0.3936 -0.2127
10102TIP3    H151797   4.217   4.537  11.630 -0.8112 -0.9577 -0.8064
10102TIP3    H251798   4.295   4.419  11.576 -0.3226 -0.4298 -1.2619
10103TIP3   OH251799   3.294   3.690  14.968  0.5142 -0.6861 -0.0638
10103TIP3    H151800   3.227   3.621  14.968 -0.1595 -0.0681  1.7855
10103TIP3    H251801   3.247   3.768  14.937  1.3132 -1.0538 -2.3083
10104TIP3   OH251802   2.149   4.755  16.278  0.1801 -0.2371 -0.4346
10104TIP3    H151803   2.207   4.821  16.318 -0.2590 -0.0368 -0.1276
10104TIP3    H251804   2.180   4.672  16.314  1.1727 -0.2698 -1.3495
10105TIP3   OH251805   6.752   4.140   5.787 -0.1359  0.0418 -0.6062
10105TIP3    H151806   6.845   4.116   5.787 -0.2312 -0.3506  0.5412
10105TIP3    H251807   6.738   4.179   5.701  1.5312  1.8380 -0.1077
10106TIP3   OH251808   1.582   0.472   5.786 -0.5665  0.6196  0.5991
10106TIP3    H151809   1.545   0.560   5.781  0.1478  0.9132  0.4629
10106TIP3    H251810   1.517   0.421   5.834 -1.8813  0.7532 -0.9830
10107TIP3   OH251811   4.175   4.661   0.379 -0.0693  0.0886 -0.5321
10107TIP3    H151812   4.259   4.649   0.423 -0.7724  0.3207  0.9068
10107TIP3    H251813   4.198   4.681   0.289  1.3742 -2.0734 -0.6799
10108TIP3   OH251814   2.633   3.559   2.591  0.3575  0.0735  0.2191
10108TIP3    H151815   2.599   3.532   2.677  0.8316 -0.3991  0.2563
10108TIP3    H251816   2.709   3.614   2.611 -0.4994  1.3163  0.1395
10109TIP3   OH251817   1.370   0.177   1.413  0.3169 -0.0110  0.4106
10109TIP3    H151818   1.317   0.128   1.350  1.5338 -0.8313  0.0154
10109TIP3    H251819   1.418   0.240   1.359  2.7223 -1.9050  0.2520
10110TIP3   OH251820   5.634   2.867  16.063 -0.0286  0.3973  0.0589
10110TIP3    H151821   5.659   2.946  16.111 -0.4922 -0.8079  2.3350
10110TIP3    H251822   5.554   2.891  16.016  0.6834  1.7253 -0.5045
10111TIP3   OH251823   1.396   5.226   1.800 -0.3304  0.4720 -0.9890
10111TIP3    H151824   1.470   5.206   1.857 -0.2270  2.8080 -0.2475
10111TIP3    H251825   1.320   5.227   1.858 -0.5258  0.8465 -1.2486
10112TIP3   OH251826   1.370   6.773  13.938  0.0762  0.2891  0.2093
10112TIP3    H151827   1.304   6.752  13.872  1.3288 -1.5861 -0.4796
10112TIP3    H251828   1.433   6.830  13.894  1.6315 -2.0447 -0.6361
10113TIP3   OH251829   2.163   6.595  16.891 -0.0636  0.3723 -0.4736
10113TIP3    H151830   2.078   6.615  16.852 -0.2622  1.0226  0.2814
10113TIP3    H251831   2.153   6.507  16.926  0.1541 -0.2711 -1.9874
10114TIP3   OH251832   5.797   2.242   4.270 -0.1515  0.4162 -0.2959
10114TIP3    H151833   5.885   2.217   4.240 -0.0664  0.6273 -0.2197
10114TIP3    H251834   5.770   2.171   4.327 -0.2504  0.0848 -0.7487
10115TIP3   OH251835   3.238   5.339   4.764  0.2539  0.4636  0.1498
10115TIP3    H151836   3.193   5.256   4.747  1.4843 -0.2566  0.3867
10115TIP3    H251837   3.306   5.344   4.697 -1.2196  2.3647 -1.2848
10116TIP3   OH251838   6.661   5.111  14.852 -0.1212  0.2562 -0.3502
10116TIP3    H151839   6.753   5.091  14.872 -1.6565 -2.6670  4.3442
10116TIP3    H251840   6.624   5.028  14.822 -2.0688  0.5613  1.1443
10117TIP3   OH251841   2.040   4.833  12.437  0.2837 -0.0414 -0.0895
10117TIP3    H151842   2.101   4.762  12.459 -0.2384 -0.5520 -0.2515
10117TIP3    H251843   1.974   4.829  12.505 -0.8933 -1.0931 -1.2504
10118TIP3   OH251844   2.914   6.653   2.778 -0.5699 -0.3491  0.5320
10118TIP3    H151845   2.873   6.581   2.730 -1.4203  0.1348  0.5164
10118TIP3    H251846   2.992   6.675   2.727 -0.1993 -1.3954  0.6503
10119TIP3   OH251847   1.582   6.243  16.332 -0.4752  0.3760 -0.0758
10119TIP3    H151848   1.595   6.337  16.317  0.0060  0.7506  2.4109
10119TIP3    H251849   1.616   6.228  16.420 -1.2544 -2.0007 -0.1437
10120TIP3   OH251850   0.980   1.569  14.460  0.5583 -0.2601 -0.4672
10120TIP3    H151851   0.950   1.572  14.369  1.2668 -0.4930 -0.7074
10120TIP3    H251852   0.941   1.490  14.496 -4.2393  2.5281  1.0217
10121TIP3   OH251853   4.976   1.032  13.811  0.3768  0.4324  0.3057
10121TIP3    H151854   4.902   1.092  13.814 -0.7435 -0.8770 -0.7703
10121TIP3    H251855   5.016   1.048  13.725 -0.3041 -0.8181 -0.2408
10122TIP3   OH251856   2.744   4.682  12.940  0.2148  0.1574  0.4905
10122TIP3    H151857   2.683   4.695  13.012 -0.2803  0.0347  0.0934
10122TIP3    H251858   2.699   4.622  12.880  0.7564 -0.0065  0.2385
10123TIP3   OH251859   0.135   3.398   5.768  0.4528  0.2346 -0.2001
10123TIP3    H151860   0.104   3.489   5.775 -3.5310 -1.2179  2.8565
10123TIP3    H251861   0.094   3.365   5.688 -0.6730  0.2584  0.3521
10124TIP3   OH251862   2.332   6.524   2.134  1.2613  0.3297 -0.2416
10124TIP3    H151863   2.333   6.619   2.122  2.2119  0.3349 -0.1846
10124TIP3    H251864   2.287   6.510   2.216 -0.5384  0.6234 -1.1629
10125TIP3   OH251865   0.285   1.151   3.244 -0.3541 -0.6277  0.2604
10125TIP3    H151866   0.254   1.241   3.254 -1.3699 -0.7769 -1.3671
10125TIP3    H251867   0.223   1.098   3.293 -0.4597 -0.5543  0.2068
10126TIP3   OH251868   2.230   4.479  12.807 -0.3332  0.3727 -0.4185
10126TIP3    H151869   2.239   4.472  12.902  2.0338 -2.6744 -0.7960
10126TIP3    H251870   2.157   4.421  12.785 -0.5420  0.6753 -0.5319
10127TIP3   OH251871   5.302   0.646  13.787 -0.6381  0.1940 -0.5045
10127TIP3    H151872   5.275   0.579  13.725  0.5207  0.4105 -1.2649
10127TIP3    H251873   5.273   0.728  13.748  0.1682  0.3381 -0.8173
10128TIP3   OH251874   2.512   1.268  12.218 -0.0816 -0.3854  0.5653
10128TIP3    H151875   2.481   1.328  12.286  1.2546  1.7754 -0.6982
10128TIP3    H251876   2.575   1.212  12.264 -1.7051 -1.2174  1.8659
10129TIP3   OH251877   5.409   3.035  11.778  0.2474  0.2186 -0.1492
10129TIP3    H151878   5.472   2.971  11.745  0.3521  0.5049 -0.5070
10129TIP3    H251879   5.419   3.032  11.873  0.8403  0.3082 -0.2085
10130TIP3   OH251880   3.968   6.409  15.954  0.4233  0.6952 -0.3422
10130TIP3    H151881   3.920   6.370  15.881  1.9566 -0.8763 -0.5361
10130TIP3    H251882   3.925   6.375  16.032  0.2155  0.5632 -0.5134
10131TIP3   OH251883   5.724   5.257   4.090  0.0105 -0.2333 -0.4437
10131TIP3    H151884   5.675   5.218   4.018 -1.7261 -0.7354  0.9584
10131TIP3    H251885   5.697   5.349   4.090 -1.4575 -0.6345  0.6948
10132TIP3   OH251886   1.635   6.029   2.931 -0.3368 -0.7602 -0.1156
10132TIP3    H151887   1.664   6.120   2.934  1.0771 -1.1329 -1.5651
10132TIP3    H251888   1.635   6.000   3.022  1.3404  0.0474  0.1501
10133TIP3   OH251889   3.045   5.972   1.712  0.2722 -0.4450  0.4518
10133TIP3    H151890   3.066   5.900   1.653 -1.1828 -0.9729  0.5755
10133TIP3    H251891   3.126   6.024   1.716 -0.4759  1.3230 -4.4494
10134TIP3   OH251892   1.649   1.699  14.320  0.1568  0.3166 -0.6260
10134TIP3    H151893   1.560   1.715  14.351  0.3460  1.7416 -0.7805
10134TIP3    H251894   1.699   1.679  14.400  0.0435  1.1693 -0.3355
10135TIP3   OH251895   5.358   5.458  14.707 -0.0199  0.1760  0.1208
10135TIP3    H151896   5.304   5.520  14.658 -2.2609 -1.7893  0.0069
10135TIP3    H251897   5.343   5.374  14.664  2.0824 -0.6646  0.9598
10136TIP3   OH251898   4.572   3.441  10.828 -0.3823 -0.4976 -0.2472
10136TIP3    H151899   4.537   3.372  10.772  2.0461 -0.8632 -1.3875
10136TIP3    H251900   4.595   3.511  10.767  0.2413 -0.0191  0.5386
10137TIP3   OH251901   3.514   2.671  16.063 -0.3779 -0.7050 -0.2122
10137TIP3    H151902   3.483   2.756  16.031 -0.5053 -0.8309 -0.4203
10137TIP3    H251903   3.435   2.619  16.074 -0.1856 -1.3046 -1.5471
10138TIP3   OH251904   3.270   2.863   0.493  0.2614  0.0788  0.2666
10138TIP3    H151905   3.257   2.788   0.551 -0.8220  1.0712  1.3468
10138TIP3    H251906   3.209   2.850   0.421  0.5054 -0.3759  0.1408
10139TIP3   OH251907   5.686   3.463  15.465 -0.2774 -0.0368  0.2818
10139TIP3    H151908   5.603   3.494  15.499 -0.2003 -0.5489  0.9511
10139TIP3    H251909   5.709   3.389  15.522  0.7284  0.2294  0.2289
10140TIP3   OH251910   5.971   1.449  10.893 -0.0210  0.5722 -0.2714
10140TIP3    H151911   5.919   1.409  10.823 -1.7039  0.4408  1.0331
10140TIP3    H251912   5.957   1.543  10.883  1.6201  0.7010 -1.5429
10141TIP3   OH251913   1.204   4.856  13.781  0.2568 -0.0320  0.1896
10141TIP3    H151914   1.191   4.898  13.866 -0.6577  0.2472 -0.0834
10141TIP3    H251915   1.116   4.830  13.754  0.6722 -1.0792 -0.1804
10142TIP3   OH251916   2.860   1.983   2.919  0.1468  0.1499  0.2268
10142TIP3    H151917   2.816   2.066   2.934 -1.4971 -0.6904  0.1076
10142TIP3    H251918   2.797   1.916   2.947  0.3850 -1.1634 -2.1883
10143TIP3   OH251919   5.489   5.985   3.165  0.2672  0.2043  0.0307
10143TIP3    H151920   5.498   6.076   3.137 -0.5681  0.1812 -0.3262
10143TIP3    H251921   5.395   5.967   3.158  0.3847 -0.5796  0.4221
10144TIP3   OH251922   2.840   2.574  12.613  0.2067  0.0872 -0.0860
10144TIP3    H151923   2.828   2.494  12.562  0.3314  1.1111 -1.7600
10144TIP3    H251924   2.935   2.589  12.612  0.3405 -0.5166  1.4671
10145TIP3   OH251925   4.365   3.931   6.068 -0.4123 -0.0356  0.2785
10145TIP3    H151926   4.373   3.852   6.015 -1.4519 -0.1387  0.2676
10145TIP3    H251927   4.446   3.980   6.050  0.9417 -1.7645  1.4485
10146TIP3   OH251928   2.429   2.757  11.444 -0.0306 -0.1174 -0.3886
10146TIP3    H151929   2.495   2.826  11.442 -1.0500  0.9862  1.7878
10146TIP3    H251930   2.346   2.803  11.435 -0.6967 -1.1035  0.5966
10147TIP3   OH251931   6.082   4.926  11.629 -0.0116 -0.5272 -0.0669
10147TIP3    H151932   6.043   4.840  11.645  1.2206 -1.1716 -0.4251
10147TIP3    H251933   6.175   4.914  11.648 -0.1524  1.2964  1.9699
10148TIP3   OH251934   4.173   4.631  15.453 -0.1013 -0.0974  0.0413
10148TIP3    H151935   4.243   4.575  15.417  0.7789  1.5317 -0.8273
10148TIP3    H251936   4.206   4.720  15.441 -1.5810  0.6141  1.2423
10149TIP3   OH251937   5.205   5.576   0.020  0.6860 -0.5708 -0.2473
10149TIP3    H151938   5.298   5.561   0.002  1.0630  0.4694  0.7689
10149TIP3    H251939   5.195   5.671   0.014  0.0962 -0.5027  1.5668
10150TIP3   OH251940   1.321   4.236  12.783  0.2541 -0.5800  0.8510
10150TIP3    H151941   1.341   4.325  12.810 -0.9083 -0.0332 -0.0244
10150TIP3    H251942   1.405   4.198  12.761  0.5172  1.2292 -1.4704
10151TIP3   OH251943   3.986   1.788   3.063 -0.1739  0.4963  0.0681
10151TIP3    H151944   4.014   1.790   2.972  0.8886  0.5483  0.3891
10151TIP3    H251945   4.009   1.700   3.093  0.7282  0.9344  0.6690
10152TIP3   OH251946   1.185   3.833  17.160 -0.0360 -0.2186  0.6442
10152TIP3    H151947   1.189   3.847  17.255  2.8187  1.1318  0.3855
10152TIP3    H251948   1.158   3.742  17.150 -0.6726 -0.2804  2.7413
10153TIP3   OH251949   4.005   0.108  11.579 -0.2152  0.3553 -0.5453
10153TIP3    H151950   3.949   0.036  11.608 -0.1654  0.2849 -0.6219
10153TIP3    H251951   3.999   0.106  11.483  0.0888  0.2092 -0.5631
10154TIP3   OH251952   2.096   2.679   0.814 -0.2134 -0.0493 -0.2871
10154TIP3    H151953   2.101   2.766   0.775  1.3904  0.0735  0.1717
10154TIP3    H251954   2.161   2.627   0.766 -0.2429 -0.6494  0.3147
10155TIP3   OH251955   3.640   0.341  11.368 -0.3045 -0.1750  0.0226
10155TIP3    H151956   3.647   0.429  11.403  1.4021  0.1589 -1.0970
10155TIP3    H251957   3.730   0.308  11.367 -0.7376 -1.3782 -0.9252
10156TIP3   OH251958   4.844   4.434   1.005  0.3990  0.2668 -0.2197
10156TIP3    H151959   4.850   4.519   1.050  2.0864  0.4082 -0.6914
10156TIP3    H251960   4.754   4.432   0.971 -0.0426  1.3306  0.8224
10157TIP3   OH251961   1.367   0.483   4.261  0.2930  0.0162  0.1668
10157TIP3    H151962   1.337   0.498   4.172 -2.0475  0.8222  1.0204
10157TIP3    H251963   1.393   0.570   4.293 -1.5435  0.2464  1.1335
10158TIP3   OH251964   0.354   6.506   0.398  0.5541 -0.0886 -0.3757
10158TIP3    H151965   0.290   6.560   0.350 -1.1573  0.0110  1.9635
10158TIP3    H251966   0.412   6.570   0.440  0.9061 -0.1451 -0.7737
10159TIP3   OH251967   3.642   4.980  13.608 -0.3028  0.0565  0.2618
10159TIP3    H151968   3.665   5.002  13.698  1.8495 -1.6424  0.1460
10159TIP3    H251969   3.630   5.065  13.565  1.2722  0.9037  1.4645
10160TIP3   OH251970   1.976   0.085   0.896  0.1264 -0.1827 -0.3059
10160TIP3    H151971   1.881   0.091   0.895  0.1474  0.2673 -0.1024
10160TIP3    H251972   1.995  -0.007   0.911 -0.2788 -0.2471 -0.1934
10161TIP3   OH251973   2.009   4.562  12.556  0.5021  0.1779  0.1152
10161TIP3    H151974   1.952   4.572  12.480 -0.4415  1.2209  0.9328
10161TIP3    H251975   2.066   4.488  12.534 -1.4719 -1.1970 -0.5418
10162TIP3   OH251976   0.772   0.494   0.782  0.1027  0.2366  0.4630
10162TIP3    H151977   0.786   0.436   0.707 -0.4341  0.4210  0.2128
10162TIP3    H251978   0.803   0.579   0.752 -3.2810  1.1242 -0.8336
10163TIP3   OH251979   5.920   5.080  11.135 -0.8129  0.4106 -0.5023
10163TIP3    H151980   5.939   5.083  11.229  0.6278 -0.8570 -0.7396
10163TIP3    H251981   5.826   5.067  11.130 -0.9541  0.8787  0.7655
10164TIP3   OH251982   1.262   2.665   0.217  0.1451  0.2980 -0.4971
10164TIP3    H151983   1.269   2.602   0.146 -2.9781  0.1187 -0.7007
10164TIP3    H251984   1.231   2.614   0.292 -0.7923  1.2558 -0.2098
10165TIP3   OH251985   5.864   5.156  16.652 -0.2897  0.2323 -0.2636
10165TIP3    H151986   5.882   5.245  16.684 -0.8003 -0.1086  0.9992
10165TIP3    H251987   5.832   5.109  16.729  0.3652 -1.1660 -0.8260
10166TIP3   OH251988   2.943   5.973   3.315  0.0236  0.2206  0.0156
10166TIP3    H151989   3.001   5.971   3.238 -0.6733 -0.6151 -0.4987
10166TIP3    H251990   2.855   5.981   3.278 -0.1982  1.4598  0.7933
10167TIP3   OH251991   1.530   1.045  10.709 -0.3434  0.1653  0.3841
10167TIP3    H151992   1.508   0.955  10.685 -0.4201 -0.4311  2.5220
10167TIP3    H251993   1.623   1.054  10.689 -0.4127 -0.2765 -0.1409
10168TIP3   OH251994   0.816   2.317   5.790  0.5302 -0.0785 -0.3338
10168TIP3    H151995   0.756   2.247   5.817  0.1773  0.5228  0.4742
10168TIP3    H251996   0.798   2.331   5.698 -2.8171  2.2406  0.5721
10169TIP3   OH251997   6.573   3.315   5.426  0.2698 -0.4214 -0.4533
10169TIP3    H151998   6.662   3.319   5.391  1.1433  0.5808  1.7918
10169TIP3    H251999   6.524   3.381   5.377  1.2619  0.3994 -0.3482
10170TIP3   OH252000   4.236   5.907   0.832  0.7782  0.3216  0.1031
10170TIP3    H152001   4.288   5.907   0.752 -0.7082  0.0181 -0.8870
10170TIP3    H252002   4.210   5.815   0.844  0.9444  0.3748  0.8904
10171TIP3   OH252003   0.244   0.926  12.550  0.9391  0.2476  0.2410
10171TIP3    H152004   0.273   0.835  12.542  0.8974  0.3236 -0.8529
10171TIP3    H252005   0.159   0.928  12.507 -0.3222  0.2221  2.6877
10172TIP3   OH252006   2.293   2.486   4.770 -0.0674  0.0372  0.2859
10172TIP3    H152007   2.248   2.543   4.708  1.4401  0.6715 -0.2372
10172TIP3    H252008   2.248   2.402   4.762  0.1449  0.0821 -1.7346
10173TIP3   OH252009   1.245   5.431   6.367  0.4628 -0.1977 -0.0470
10173TIP3    H152010   1.156   5.464   6.351 -0.7676 -2.4515  1.8024
10173TIP3    H252011   1.273   5.475   6.447  1.4244  1.2376 -1.1526
10174TIP3   OH252012   2.225   2.656  16.070 -0.6145 -0.8797  0.2796
10174TIP3    H152013   2.192   2.711  15.998  1.4130 -0.4413 -0.3308
10174TIP3    H252014   2.200   2.567  16.044 -0.7129 -0.6306 -0.5036
10175TIP3   OH252015   4.511   2.015   4.637 -0.2319 -0.5546 -0.1081
10175TIP3    H152016   4.585   2.058   4.681  0.2078  0.2571 -1.5891
10175TIP3    H252017   4.542   1.927   4.618 -1.1412 -1.5941  2.9633
10176TIP3   OH252018   4.319   6.261  14.767  0.2844 -0.6396 -0.4470
10176TIP3    H152019   4.342   6.282  14.676 -0.8490  0.8214 -0.4106
10176TIP3    H252020   4.339   6.341  14.816 -0.3604 -0.9837  0.3778
10177TIP3   OH252021   1.286   1.947  14.914  0.4827  0.0893  0.2713
10177TIP3    H152022   1.257   1.858  14.934  0.6283  0.1733  0.8772
10177TIP3    H252023   1.308   1.945  14.821  1.1859 -0.7086  0.4507
10178TIP3   OH252024   1.719   1.283   1.011  0.1223 -0.3630 -0.0127
10178TIP3    H152025   1.679   1.368   0.994 -1.0137 -1.2738 -2.1308
10178TIP3    H252026   1.813   1.301   1.016 -0.1798  1.1308  0.4879
10179TIP3   OH252027   3.585   5.682  15.823 -0.4486  0.8400 -0.2393
10179TIP3    H152028   3.571   5.740  15.748 -1.7800 -0.2385 -0.8586
10179TIP3    H252029   3.567   5.595  15.789  0.6338  0.1540  0.9195
10180TIP3   OH252030   2.647   3.667   4.669  0.1432 -0.3089 -0.0522
10180TIP3    H152031   2.737   3.641   4.650  0.7034  1.2302  0.4256
10180TIP3    H252032   2.650   3.706   4.756 -0.7202  0.9859 -0.5806
10181TIP3   OH252033   3.268   3.946  16.174  0.0811 -0.4904  0.2870
10181TIP3    H152034   3.321   3.946  16.094 -0.2063  0.1343  0.0890
10181TIP3    H252035   3.194   3.888  16.155 -0.0471 -0.2512  0.0567
10182TIP3   OH252036   4.541   3.779   0.382  0.1470 -0.0062 -0.3295
10182TIP3    H152037   4.576   3.752   0.467  1.7723  2.5907 -0.1180
10182TIP3    H252038   4.596   3.735   0.318  0.8712  0.4217 -0.0050
10183TIP3   OH252039   0.993   2.148   6.028 -0.5318  0.1232 -0.1045
10183TIP3    H152040   0.940   2.069   6.035  0.8821 -0.8020  0.2796
10183TIP3    H252041   1.021   2.167   6.117 -0.8673  1.0777 -0.1898
10184TIP3   OH252042   3.750   3.488  14.464 -0.0427 -0.2880 -0.3594
10184TIP3    H152043   3.791   3.417  14.514  1.0786 -0.1121 -0.9993
10184TIP3    H252044   3.789   3.481  14.377  2.0508  2.6949  0.2600
10185TIP3   OH252045   0.605   5.021   1.626  0.0319 -0.2741 -0.1984
10185TIP3    H152046   0.592   4.950   1.690 -2.0769  0.6652  0.4593
10185TIP3    H252047   0.681   5.069   1.659 -0.1055 -0.6932  0.7526
10186TIP3   OH252048   1.675   2.953   2.015  0.1254 -0.5438 -0.6846
10186TIP3    H152049   1.755   2.913   1.980  1.5662  0.9414  0.8289
10186TIP3    H252050   1.702   2.992   2.098 -1.7921  1.3545 -0.8991
10187TIP3   OH252051   1.851   4.075   4.702 -0.5916 -0.1972 -0.2880
10187TIP3    H152052   1.918   4.021   4.660 -0.0175  0.5025 -0.2806
10187TIP3    H252053   1.897   4.121   4.771 -1.3549 -0.6846  0.5731
10188TIP3   OH252054   5.443   3.588  16.010  0.3484 -0.2751 -0.1592
10188TIP3    H152055   5.473   3.598  16.100 -0.8314  0.4354  0.1599
10188TIP3    H252056   5.462   3.672  15.968 -1.0213  0.1249  0.0018
10189TIP3   OH252057   3.245   5.194  14.041  0.2596 -0.0760  0.0129
10189TIP3    H152058   3.196   5.114  14.062 -0.6279  0.7798  1.2224
10189TIP3    H252059   3.178   5.259  14.021  0.9733  0.4888 -0.5710
10190TIP3   OH252060   3.222   2.946  13.319  0.0073 -0.5413  0.0718
10190TIP3    H152061   3.268   2.901  13.248  0.4534  0.2492 -0.1402
10190TIP3    H252062   3.194   3.029  13.281  1.2269  0.3833  1.1262
10191TIP3   OH252063   1.581   0.178   4.384  0.4445  0.2700  0.4919
10191TIP3    H152064   1.633   0.138   4.314  1.1053  0.6215  0.7855
10191TIP3    H252065   1.594   0.121   4.459 -0.1816 -0.0480  0.3641
10192TIP3   OH252066   5.525   2.769   1.688 -0.1231  0.6967 -0.2050
10192TIP3    H152067   5.580   2.694   1.664 -0.8634 -0.0487  0.3614
10192TIP3    H252068   5.483   2.795   1.607 -0.4116  0.0298 -0.2767
10193TIP3   OH252069   6.356   2.855  16.913  0.0581  0.4011 -0.1179
10193TIP3    H152070   6.333   2.821  16.999 -0.2170  0.6737 -0.0811
10193TIP3    H252071   6.427   2.799  16.882  0.1128  0.2640  0.2598
10194TIP3   OH252072   6.047   2.837   0.697 -0.0952  0.1643  0.2545
10194TIP3    H152073   6.028   2.769   0.633 -0.3329  1.7189 -1.3531
10194TIP3    H252074   5.962   2.877   0.716  0.0182 -0.0834  1.3259
10195TIP3   OH252075   3.474   4.763   3.264 -0.0929 -1.2546 -0.5574
10195TIP3    H152076   3.559   4.751   3.304  0.3470  0.4444 -0.9200
10195TIP3    H252077   3.476   4.709   3.185  1.3603  0.2279 -1.5571
10196TIP3   OH252078   6.501   4.490  12.851 -0.4791 -0.8276 -0.1188
10196TIP3    H152079   6.437   4.539  12.902  0.8653  1.5386 -0.6097
10196TIP3    H252080   6.580   4.544  12.855  1.2422 -3.2873 -0.1928
10197TIP3   OH252081   4.942   1.849  13.911  0.2834 -0.6821  0.0634
10197TIP3    H152082   5.003   1.776  13.903  0.5245 -0.3897 -0.8088
10197TIP3    H252083   4.995   1.927  13.895 -0.4122 -0.4573 -1.2155
10198TIP3   OH252084   1.636   1.513  15.292 -0.2445  0.1859  0.1807
10198TIP3    H152085   1.628   1.606  15.313 -0.7463  0.1483  0.1774
10198TIP3    H252086   1.725   1.490  15.316 -0.2433  0.5768  0.5548
10199TIP3   OH252087   4.999   6.456  13.182  0.3477  0.6390  0.2749
10199TIP3    H152088   5.075   6.428  13.233  0.4964  0.9233  0.2124
10199TIP3    H252089   5.026   6.539  13.144  0.4035  0.2135 -0.6334
10200TIP3   OH252090   3.794   2.064  16.237  0.4086  0.0573  0.0912
10200TIP3    H152091   3.795   2.112  16.154 -0.8306  1.5927  0.9233
10200TIP3    H252092   3.883   2.075  16.272  0.2895  1.3555  0.0241
10201TIP3   OH252093   5.591   5.079  12.684 -0.1352  0.6564  0.1228
10201TIP3    H152094   5.596   5.065  12.779  1.4945  3.0629  0.4212
10201TIP3    H252095   5.648   5.011  12.647 -0.7744 -0.2906  0.8254
10202TIP3   OH252096   1.657   6.023   5.835  0.0514 -0.1254  0.8016
10202TIP3    H152097   1.651   6.087   5.906 -0.1892  0.2372  0.4534
10202TIP3    H252098   1.566   6.006   5.810  0.0386 -1.6820  1.8572
10203TIP3   OH252099   6.333   4.999   0.868  0.2706 -0.0921 -0.4244
10203TIP3    H152100   6.413   5.022   0.916 -0.6049  0.4831  0.7821
10203TIP3    H252101   6.351   4.913   0.831  0.9359 -0.5698  0.9907
10204TIP3   OH252102   4.494   1.346   0.102 -0.0374 -0.1484 -0.0578
10204TIP3    H152103   4.410   1.345   0.057 -0.4034  0.4935  0.5899
10204TIP3    H252104   4.559   1.330   0.034 -0.7215 -1.1001 -0.4864
10205TIP3   OH252105   5.778   5.458   2.452 -0.0762 -0.1684 -0.2818
10205TIP3    H152106   5.779   5.376   2.500 -0.8928 -0.4972 -0.8158
10205TIP3    H252107   5.746   5.523   2.515  1.0189 -0.1694  0.2767
10206TIP3   OH252108   6.691   6.501   5.736  0.0501  0.2603  0.0429
10206TIP3    H152109   6.737   6.480   5.817  0.5429  0.6208 -0.1414
10206TIP3    H252110   6.721   6.435   5.673 -0.5163 -0.1658  0.2183
10207TIP3   OH252111   6.642   5.638  15.243 -0.2847 -0.2690  0.4280
10207TIP3    H152112   6.640   5.724  15.285  0.4519 -1.1204  2.2721
10207TIP3    H252113   6.700   5.650  15.168 -1.1141  1.1247 -0.0135
10208TIP3   OH252114   6.621   1.890   6.387  0.1422 -0.6182 -0.1306
10208TIP3    H152115   6.559   1.864   6.454  0.1660  0.2410  0.2316
10208TIP3    H252116   6.694   1.829   6.396 -0.6475 -1.6414 -0.5701
10209TIP3   OH252117   2.197   1.514   4.364 -0.5693  0.2717 -0.0175
10209TIP3    H152118   2.234   1.452   4.427  1.2296 -0.3030 -1.6071
10209TIP3    H252119   2.230   1.599   4.393 -0.8474  0.1759  0.5967
10210TIP3   OH252120   2.575   6.714  12.919 -0.4030  0.5387 -0.1888
10210TIP3    H152121   2.499   6.689  12.867 -0.6014  0.5804  0.0858
10210TIP3    H252122   2.608   6.793  12.876 -0.6866  0.6880 -0.1342
10211TIP3   OH252123   2.593   4.876   1.966  0.4972 -0.1380  0.2722
10211TIP3    H152124   2.498   4.877   1.956  0.4178 -0.2234  1.0246
10211TIP3    H252125   2.626   4.901   1.880 -0.2177  0.4852  0.1745
10212TIP3   OH252126   3.608   5.224   2.769 -0.6638 -0.9336 -0.1806
10212TIP3    H152127   3.613   5.279   2.847  0.1990 -0.4350 -0.5755
10212TIP3    H252128   3.686   5.169   2.773  0.5372  0.5830 -1.7748
10213TIP3   OH252129   0.730   0.929   4.299 -0.6136 -0.1327 -0.4918
10213TIP3    H152130   0.779   1.000   4.256  0.9737  0.9543  2.8974
10213TIP3    H252131   0.647   0.969   4.324  0.1224  0.4570  1.0661
10214TIP3   OH252132   1.532   2.560  14.674  0.0836  0.5204  0.8454
10214TIP3    H152133   1.546   2.653  14.658  1.2596  0.3869  1.0230
10214TIP3    H252134   1.462   2.556  14.739 -0.5887  1.2448  0.1699
10215TIP3   OH252135   1.420   2.147  13.663 -0.3020  0.1193 -0.1222
10215TIP3    H152136   1.459   2.065  13.634  1.6720  1.0175 -0.0410
10215TIP3    H252137   1.329   2.141  13.635  0.1719 -1.4725 -1.3885
10216TIP3   OH252138   0.446   2.781   1.793  0.0920  0.1944  0.1566
10216TIP3    H152139   0.399   2.751   1.871  0.5426 -2.6428 -0.5945
10216TIP3    H252140   0.524   2.725   1.790  0.4034  0.7251 -1.9525
10217TIP3   OH252141   0.790   2.268   2.560 -0.3961  0.5367  0.1406
10217TIP3    H152142   0.820   2.264   2.651  0.1748  2.3673  0.0640
10217TIP3    H252143   0.765   2.178   2.539  0.9310 -0.2065  1.6086
10218TIP3   OH252144   4.558   1.639  14.656 -0.3212 -0.5029  0.0988
10218TIP3    H152145   4.599   1.605  14.577  1.3413  0.1544  0.6526
10218TIP3    H252146   4.588   1.729  14.663 -1.5424 -0.1292  0.7585
10219TIP3   OH252147   1.194   0.397  13.042  0.3644 -0.4922 -0.2133
10219TIP3    H152148   1.272   0.400  12.986  0.3071 -0.6351 -0.3013
10219TIP3    H252149   1.144   0.475  13.018  0.2937 -0.6026 -0.4288
10220TIP3   OH252150   1.705   0.567   3.595 -0.7223 -0.1519 -0.4695
10220TIP3    H152151   1.614   0.596   3.602 -0.7368 -0.2435 -0.2372
10220TIP3    H252152   1.733   0.592   3.507 -0.5204  1.1498 -0.0368
10221TIP3   OH252153   0.192   3.013  13.236 -1.0295  0.5717  0.3897
10221TIP3    H152154   0.185   2.933  13.183 -0.7885 -0.8604  2.4692
10221TIP3    H252155   0.110   3.016  13.286 -0.4537  0.8775  1.3294
10222TIP3   OH252156   1.259   3.616  16.448 -0.0145 -0.0446 -0.0291
10222TIP3    H152157   1.314   3.596  16.372  1.1660  0.3626  0.7033
10222TIP3    H252158   1.317   3.661  16.509 -1.6879  2.3154 -0.0992
10223TIP3   OH252159   3.830   2.333  12.300  1.2014 -0.2311 -0.2582
10223TIP3    H152160   3.906   2.275  12.308  0.9152 -0.7295 -1.1282
10223TIP3    H252161   3.816   2.340  12.206  2.0275  2.2859 -0.2198
10224TIP3   OH252162   5.862   4.331   3.724 -0.2881  0.0557  0.1802
10224TIP3    H152163   5.949   4.372   3.720 -0.9662  1.5516  0.2101
10224TIP3    H252164   5.836   4.339   3.816 -0.1389 -1.0995  0.3311
10225TIP3   OH252165   5.853   1.912  13.741 -0.4312  0.3262  0.6535
10225TIP3    H152166   5.900   1.861  13.674 -1.3549 -0.1660  0.3552
10225TIP3    H252167   5.801   1.846  13.788  0.0213  0.7100  1.6928
10226TIP3   OH252168   6.157   2.728  11.121  0.1023  0.1385 -0.0430
10226TIP3    H152169   6.214   2.800  11.146  0.5605 -0.4785  0.7159
10226TIP3    H252170   6.118   2.755  11.038  1.1999  0.7351 -0.3693
10227TIP3   OH252171   0.117   6.287   1.276  0.4882 -0.2041  0.1042
10227TIP3    H152172   0.034   6.246   1.300  0.5380 -1.5393 -1.8753
10227TIP3    H252173   0.183   6.219   1.291  0.5297 -1.0770 -3.5802
10228TIP3   OH252174   2.088   3.661  12.153 -0.1371 -0.0769 -0.2674
10228TIP3    H152175   2.136   3.741  12.173  1.1960 -1.0659  0.6389
10228TIP3    H252176   2.142   3.591  12.191 -0.0992 -1.5985 -2.9912
10229TIP3   OH252177   2.209   3.585  11.466 -0.1513 -0.3451  0.4505
10229TIP3    H152178   2.275   3.615  11.403 -0.8762  0.1585 -0.0773
10229TIP3    H252179   2.132   3.640  11.448 -0.5615 -0.6126  1.3700
10230TIP3   OH252180   2.524   0.204  11.681 -0.1086 -0.3529  0.1275
10230TIP3    H152181   2.588   0.137  11.657 -0.6017 -0.2939 -1.4520
10230TIP3    H252182   2.576   0.280  11.706  0.4833  0.3379 -2.9889
10231TIP3   OH252183   4.480   2.103  15.537  0.2796 -0.0352 -0.0516
10231TIP3    H152184   4.405   2.153  15.570  0.6851  0.9035 -0.5218
10231TIP3    H252185   4.527   2.075  15.616  0.8634  1.6042  0.2120
10232TIP3   OH252186   2.918   0.507  15.464 -0.6952 -0.3506 -0.4242
10232TIP3    H152187   2.826   0.501  15.439 -0.4722 -1.2675 -1.0797
10232TIP3    H252188   2.962   0.534  15.383 -0.4462  0.5893  0.0191
10233TIP3   OH252189   4.920   1.701   5.291  1.0530 -0.2220  0.2547
10233TIP3    H152190   4.925   1.701   5.195 -0.1475 -2.2416  0.1709
10233TIP3    H252191   4.832   1.733   5.311  0.7231 -1.3228  0.6205
10234TIP3   OH252192   4.399   5.629   4.820  0.3134  0.8229  0.3435
10234TIP3    H152193   4.474   5.573   4.800  0.7891  1.1391  1.2013
10234TIP3    H252194   4.367   5.658   4.735  0.6559  0.0087 -0.0623
10235TIP3   OH252195   1.809   0.124   2.523 -0.5626 -0.1847  0.4686
10235TIP3    H152196   1.870   0.150   2.592  0.9529  0.2027 -1.0017
10235TIP3    H252197   1.746   0.196   2.519  0.2368  0.5162  0.3992
10236TIP3   OH252198   5.646   5.336  13.516 -0.1784 -0.0011 -0.1793
10236TIP3    H152199   5.556   5.308  13.534 -1.1454 -1.5020 -6.1107
10236TIP3    H252200   5.637   5.406  13.451  2.8988  2.2609  1.7184
10237TIP3   OH252201   0.187   6.434   4.297 -0.1469  0.4808 -0.0408
10237TIP3    H152202   0.107   6.381   4.296 -0.0116  0.2663  0.2333
10237TIP3    H252203   0.202   6.457   4.206  0.0578 -0.3553 -0.2206
10238TIP3   OH252204   0.482   5.880   3.762  0.4032 -0.6584  0.4313
10238TIP3    H152205   0.503   5.973   3.770 -0.6200 -0.4030  0.1904
10238TIP3    H252206   0.409   5.866   3.823 -0.6178 -0.9170 -0.8244
10239TIP3   OH252207   3.505   0.198   3.712 -0.2623  0.5294 -0.4476
10239TIP3    H152208   3.510   0.196   3.616  1.4932  1.4641 -0.4004
10239TIP3    H252209   3.435   0.261   3.731 -0.8775  0.0560 -1.1156
10240TIP3   OH252210   6.668   4.037  15.579  0.1624  0.5021  0.3990
10240TIP3    H152211   6.757   4.073  15.585  0.1163  1.0671 -2.0419
10240TIP3    H252212   6.614   4.112  15.554 -0.7996 -0.1430  0.5570
10241TIP3   OH252213   1.023   5.649   4.799 -0.1320 -0.5500 -0.0920
10241TIP3    H152214   1.037   5.707   4.724 -0.6547 -1.1314 -0.6434
10241TIP3    H252215   0.929   5.633   4.800 -0.0452 -1.0417  0.3187
10242TIP3   OH252216   0.049   2.360   4.869 -0.0278  0.0707 -0.0423
10242TIP3    H152217   0.060   2.330   4.779 -0.1476  0.0530 -0.0514
10242TIP3    H252218   0.136   2.351   4.908  0.0531  0.1971 -0.1916
10243TIP3   OH252219   4.398   3.841  14.024  0.2824 -0.3802 -0.1649
10243TIP3    H152220   4.459   3.915  14.024  0.5222 -0.5749  0.1131
10243TIP3    H252221   4.318   3.875  13.984 -0.0955  0.4373  1.2606
10244TIP3   OH252222   3.903   0.354   6.198  0.2077 -0.4370 -0.4800
10244TIP3    H152223   3.925   0.403   6.277 -0.2954  1.3817 -1.4450
10244TIP3    H252224   3.975   0.293   6.187 -0.1372 -1.3505  1.8691
10245TIP3   OH252225   2.742   5.400   0.860 -0.0965 -0.4383 -0.3277
10245TIP3    H152226   2.778   5.421   0.773  0.2235 -0.3033 -0.1615
10245TIP3    H252227   2.707   5.311   0.851 -0.9771 -0.0507 -0.8843
10246TIP3   OH252228   4.278   6.809   2.220 -0.2248 -0.3363 -0.5037
10246TIP3    H152229   4.358   6.859   2.206 -0.4441 -0.0798 -0.8277
10246TIP3    H252230   4.212   6.874   2.242 -0.6099 -0.4355 -1.3477
10247TIP3   OH252231   3.665   4.425  13.678 -0.5099 -0.4228 -0.0368
10247TIP3    H152232   3.698   4.462  13.596  0.9416 -0.7703  0.3725
10247TIP3    H252233   3.739   4.432  13.738 -1.0240 -1.7126  0.7597
10248TIP3   OH252234   2.025   0.648   5.460 -0.5771 -0.3489 -0.3966
10248TIP3    H152235   2.103   0.668   5.407 -0.4711  0.4310  0.0391
10248TIP3    H252236   2.018   0.723   5.520 -1.2275 -0.7836  0.0675
10249TIP3   OH252237   5.246   0.920  12.405 -0.5803  0.2816 -0.6513
10249TIP3    H152238   5.172   0.980  12.412 -0.7520 -0.1612  1.6768
10249TIP3    H252239   5.258   0.886  12.494  2.4644  0.4096 -0.9737
10250TIP3   OH252240   3.701   5.097  15.410 -0.1938 -0.0644 -0.1797
10250TIP3    H152241   3.707   5.004  15.392  0.5756  0.0628 -0.5811
10250TIP3    H252242   3.706   5.103  15.506  0.8972 -0.3517 -0.2155
10251TIP3   OH252243   4.737   1.433  13.478 -0.2464 -0.5117  0.0786
10251TIP3    H152244   4.676   1.441  13.404 -2.0935  0.1648  1.6486
10251TIP3    H252245   4.813   1.485  13.452  0.5238 -2.8692 -2.6967
10252TIP3   OH252246   3.876   5.638  10.909 -0.0724  0.6886 -0.4115
10252TIP3    H152247   3.835   5.587  10.840  1.4705 -1.0220 -0.1067
10252TIP3    H252248   3.813   5.635  10.982 -0.0396 -0.6745 -0.4421
10253TIP3   OH252249   5.323   2.766  15.959 -0.4042  0.5075  0.2099
10253TIP3    H152250   5.318   2.719  15.876 -2.6809  1.5919 -0.2926
10253TIP3    H252251   5.335   2.857  15.935 -0.4938  0.7563  1.0988
10254TIP3   OH252252   1.031   1.924   2.093  0.1016 -0.5117  0.1433
10254TIP3    H152253   1.029   1.937   1.998  1.7725 -0.7140  0.0628
10254TIP3    H252254   1.064   1.834   2.103 -0.5557 -0.6681  0.9079
10255TIP3   OH252255   5.330   1.243   1.889  0.1180  0.0673 -0.0537
10255TIP3    H152256   5.260   1.270   1.830  0.0134  1.9753  0.8975
10255TIP3    H252257   5.404   1.225   1.832 -0.6203 -0.2099 -0.9298
10256TIP3   OH252258   0.796   6.394   1.388  0.2910  0.1787  0.1326
10256TIP3    H152259   0.852   6.402   1.465 -0.4259 -1.2668  0.8154
10256TIP3    H252260   0.715   6.356   1.420  0.6101 -2.0820 -1.5860
10257TIP3   OH252261   5.613   2.187  16.135  0.3000 -0.3195 -0.7789
10257TIP3    H152262   5.615   2.227  16.048  3.3132 -0.2523 -0.7048
10257TIP3    H252263   5.640   2.097  16.121 -0.1151 -0.5669 -0.0339
10258TIP3   OH252264   0.402   4.819  16.568 -0.3271 -0.0926 -0.6001
10258TIP3    H152265   0.357   4.802  16.485  0.0768  0.6745 -0.9863
10258TIP3    H252266   0.414   4.733  16.607  1.3674 -0.6872 -2.3329
10259TIP3   OH252267   6.227   3.222   0.343 -0.0393 -0.1738 -0.3072
10259TIP3    H152268   6.203   3.141   0.388  3.7108 -0.2964  1.6795
10259TIP3    H252269   6.287   3.193   0.274  0.9674  0.8468  0.1308
10260TIP3   OH252270   1.769   5.408  12.465 -0.8152  0.2823  0.5211
10260TIP3    H152271   1.765   5.503  12.466 -0.1406  0.3027  1.3494
10260TIP3    H252272   1.746   5.384  12.375 -0.5871  1.2347  0.2076
10261TIP3   OH252273   1.233   1.842  11.574 -0.2583  0.0678 -0.1975
10261TIP3    H152274   1.246   1.758  11.618 -0.4191  0.7292  1.1384
10261TIP3    H252275   1.140   1.861  11.587  0.3320  1.7161  1.8243
10262TIP3   OH252276   5.978   2.147  12.023  0.2128 -0.2053 -0.3786
10262TIP3    H152277   6.063   2.103  12.032  0.1096 -0.4102 -0.4081
10262TIP3    H252278   5.914   2.077  12.035  0.0206  0.2406  1.2672
10263TIP3   OH252279   0.340   5.669   2.882 -0.2851 -0.4162  0.4627
10263TIP3    H152280   0.313   5.726   2.954  1.5289 -1.5611  2.0957
10263TIP3    H252281   0.284   5.695   2.809 -1.6893  1.2487  2.0737
10264TIP3   OH252282   5.364   6.368   4.191  0.1123  0.2421  0.0448
10264TIP3    H152283   5.367   6.427   4.266 -0.7443  0.6421 -0.2383
10264TIP3    H252284   5.367   6.280   4.230  1.8948  0.4476  0.4394
10265TIP3   OH252285   4.439   2.744   3.018 -0.6576  0.4340 -1.0285
10265TIP3    H152286   4.483   2.687   3.080 -2.2670  0.8760  0.5712
10265TIP3    H252287   4.493   2.823   3.013 -0.2355  0.1659 -0.6124
10266TIP3   OH252288   1.470   3.478   2.550  0.2082  0.3301 -0.4572
10266TIP3    H152289   1.499   3.492   2.460  1.2724 -0.9642 -0.3370
10266TIP3    H252290   1.478   3.384   2.563  1.0805  0.6248  1.3246
10267TIP3   OH252291   5.964   2.898   2.849 -0.0369  0.3598  0.1681
10267TIP3    H152292   5.899   2.843   2.806  0.1184  1.0833 -1.0217
10267TIP3    H252293   5.976   2.971   2.789  2.3948 -0.1139  0.0521
10268TIP3   OH252294   2.178   4.299   3.088  0.6976  0.2974  0.5005
10268TIP3    H152295   2.265   4.310   3.125 -0.0017  2.6607  1.5109
10268TIP3    H252296   2.137   4.385   3.094 -1.9812 -0.9193  0.7283
10269TIP3   OH252297   1.226   3.759   1.252 -0.1390  0.0123  0.0987
10269TIP3    H152298   1.219   3.807   1.169  2.7784  0.2906 -0.0301
10269TIP3    H252299   1.319   3.759   1.272 -0.7099 -0.7723  2.9909
10270TIP3   OH252300   3.295   6.806   1.642  0.3715  0.3463  0.2353
10270TIP3    H152301   3.295   6.875   1.708  0.7995  0.6356 -0.0677
10270TIP3    H252302   3.355   6.837   1.574  1.8901 -1.1062  0.9107
10271TIP3   OH252303   4.293   2.857  12.750 -0.1778  0.1438 -0.7237
10271TIP3    H152304   4.262   2.945  12.730 -1.4061  0.4415  2.1365
10271TIP3    H252305   4.387   2.866  12.762 -0.0154  0.6727 -2.3779
10272TIP3   OH252306   2.459   1.952  12.923 -0.1648  0.1309  0.1364
10272TIP3    H152307   2.487   2.035  12.883 -0.6751  0.6734  0.8864
10272TIP3    H252308   2.538   1.898  12.923 -0.2931 -0.1325 -2.1947
10273TIP3   OH252309   6.463   2.438   1.941 -0.2491  0.8056 -0.2020
10273TIP3    H152310   6.536   2.491   1.973  1.1067 -1.3341  0.4263
10273TIP3    H252311   6.451   2.466   1.850  1.5590  1.0224 -0.4049
10274TIP3   OH252312   0.532   3.803   5.482 -0.0474 -0.5522 -0.7021
10274TIP3    H152313   0.459   3.859   5.453 -0.3455 -0.6822 -0.1988
10274TIP3    H252314   0.497   3.755   5.557  0.0703 -1.7183 -1.3730
10275TIP3   OH252315   3.992   4.578   6.469 -0.3351 -0.2137  0.0143
10275TIP3    H152316   4.013   4.604   6.559  0.5427  1.8863 -0.7656
10275TIP3    H252317   4.063   4.519   6.443 -0.2443 -0.3060  0.4730
10276TIP3   OH252318   3.511   2.458   2.003 -0.3593  0.4119 -0.2851
10276TIP3    H152319   3.550   2.522   1.943 -1.8787 -0.3056 -2.0729
10276TIP3    H252320   3.520   2.499   2.090 -0.0322  2.4065 -1.2232
10277TIP3   OH252321   6.095   5.658   1.707 -0.3222 -0.3428 -0.4419
10277TIP3    H152322   6.135   5.717   1.644  0.1124 -1.8308 -1.5840
10277TIP3    H252323   6.144   5.576   1.699 -2.1450 -1.4953 -0.2669
10278TIP3   OH252324   3.149   6.156  15.774 -0.4147  0.2319  0.5821
10278TIP3    H152325   3.166   6.248  15.796  0.7639 -0.1143  1.1711
10278TIP3    H252326   3.081   6.160  15.706  1.1889  1.6584 -1.0012
10279TIP3   OH252327   3.690   4.768  11.968 -0.5898 -0.1287 -0.3519
10279TIP3    H152328   3.778   4.802  11.953 -0.6600 -0.1490 -0.8113
10279TIP3    H252329   3.679   4.699  11.903 -1.2726  0.4745 -0.8793
10280TIP3   OH252330   3.746   2.510  13.614 -0.1620  0.1499 -0.3583
10280TIP3    H152331   3.711   2.509  13.525  0.6559 -0.7392 -0.6864
10280TIP3    H252332   3.835   2.544  13.605  0.2412 -0.7778 -0.0224
10281TIP3   OH252333   2.883   5.726   6.116 -0.5135 -0.2819  0.1305
10281TIP3    H152334   2.872   5.765   6.203  1.0227 -1.0830  0.6824
10281TIP3    H252335   2.918   5.797   6.063  0.7211 -0.4267  0.7341
10282TIP3   OH252336   2.728   3.786   5.013  0.6722  0.2072  0.0045
10282TIP3    H152337   2.764   3.698   5.006  0.5675 -0.0951  2.6418
10282TIP3    H252338   2.633   3.774   5.009  0.7040  0.4324 -1.6524
10283TIP3   OH252339   6.349   2.750  14.627 -0.3126 -0.0346  0.4490
10283TIP3    H152340   6.379   2.754  14.536 -1.0910 -0.5209  0.1666
10283TIP3    H252341   6.324   2.840  14.648  1.8745  0.4972  0.8796
10284TIP3   OH252342   4.216   6.361  17.112  0.6054  0.5012  0.0679
10284TIP3    H152343   4.198   6.328  17.024 -0.9321  0.4395  0.3870
10284TIP3    H252344   4.310   6.378  17.112  0.5274  1.0695 -1.7730
10285TIP3   OH252345   4.137   0.248   2.334  0.5965 -0.2639  0.1751
10285TIP3    H152346   4.162   0.340   2.346 -0.1297 -0.1364  0.7324
10285TIP3    H252347   4.204   0.199   2.382  0.6490  0.0064  0.3822
10286TIP3   OH252348   2.020   2.546   4.951 -0.8164  0.4081  0.4796
10286TIP3    H152349   2.075   2.521   4.877  0.1626 -0.9446  1.6361
10286TIP3    H252350   1.952   2.601   4.913 -0.9967 -1.2070 -1.6033
10287TIP3   OH252351   6.798   0.637  16.295  0.5887  0.0910 -0.7096
10287TIP3    H152352   6.717   0.673  16.331  2.1290  2.1139  0.8555
10287TIP3    H252353   6.807   0.677  16.208  0.0693  0.0815 -0.7635
10288TIP3   OH252354   1.233   2.888  14.179  0.4989  0.3817  0.6082
10288TIP3    H152355   1.240   2.983  14.186 -0.2124  0.4760  0.0548
10288TIP3    H252356   1.224   2.858  14.270 -0.7030  0.9581  0.6829
10289TIP3   OH252357   5.376   1.720  16.105 -0.0810  0.2209  0.4983
10289TIP3    H152358   5.333   1.715  16.020  0.0355  2.5940  0.2554
10289TIP3    H252359   5.305   1.706  16.168 -0.0188 -2.4140  0.0459
10290TIP3   OH252360   2.531   5.451   2.775  0.1819 -0.5292 -0.3337
10290TIP3    H152361   2.536   5.433   2.869 -1.0146  0.9260  0.0280
10290TIP3    H252362   2.621   5.472   2.750  0.7820 -2.4394  0.1528
10291TIP3   OH252363   2.609   2.879   3.510 -0.4183  0.2718 -0.1366
10291TIP3    H152364   2.579   2.790   3.527  0.9500 -0.0167  0.8064
10291TIP3    H252365   2.529   2.926   3.485 -1.2161 -1.1120 -0.2802
10292TIP3   OH252366   1.196   3.749  12.774  0.2433 -0.2184  0.2163
10292TIP3    H152367   1.243   3.822  12.815 -0.8355  0.6079  0.0237
10292TIP3    H252368   1.264   3.698  12.731  1.1725 -0.0214  1.3975
10293TIP3   OH252369   0.450   0.889   0.451  0.9416 -0.4083  0.9669
10293TIP3    H152370   0.383   0.907   0.385  4.0524 -1.2735 -2.6673
10293TIP3    H252371   0.413   0.819   0.504 -0.6975 -1.5740 -1.5778
10294TIP3   OH252372   2.490   4.344   1.713  0.3918  0.4629  0.6956
10294TIP3    H152373   2.508   4.272   1.774  1.9913 -0.9255 -1.3649
10294TIP3    H252374   2.571   4.395   1.712  1.0778 -0.6165 -1.6875
10295TIP3   OH252375   2.575   2.230   1.559 -0.0372 -0.0051  0.6728
10295TIP3    H152376   2.582   2.312   1.607  1.4297  0.6413 -0.5854
10295TIP3    H252377   2.597   2.253   1.468 -0.1407 -1.6751  0.2075
10296TIP3   OH252378   3.492   0.833   1.284 -0.6063  0.4988  0.5901
10296TIP3    H152379   3.449   0.854   1.202  0.6162 -0.2024 -0.2487
10296TIP3    H252380   3.461   0.746   1.306  0.3890 -0.0282 -0.0412
10297TIP3   OH252381   0.417   0.138   2.744 -0.1414  0.2780  0.1341
10297TIP3    H152382   0.477   0.106   2.811 -0.9331 -1.0180  0.2201
10297TIP3    H252383   0.474   0.179   2.678  0.7891 -0.4630  0.4810
10298TIP3   OH252384   3.066   6.806   4.098 -0.6312  0.2085  0.0766
10298TIP3    H152385   3.030   6.891   4.073  2.3111  1.9396  1.3940
10298TIP3    H252386   3.055   6.803   4.193  1.9963  0.5230  0.4416
10299TIP3   OH252387   4.499   2.196  14.417  0.2573  0.4504 -0.3352
10299TIP3    H152388   4.556   2.212  14.492 -0.1399  1.2346 -0.1959
10299TIP3    H252389   4.411   2.190  14.455  0.0756  0.6523 -0.7193
10300TIP3   OH252390   2.595   4.348  15.379  0.1375  0.1591  0.0133
10300TIP3    H152391   2.549   4.265  15.372  1.2808 -0.5259  0.4783
10300TIP3    H252392   2.670   4.330  15.435 -0.4115  1.8735  1.3692
10301TIP3   OH252393   3.832   6.598  12.988 -0.1366  0.3487 -0.2180
10301TIP3    H152394   3.746   6.559  12.972 -0.3441  1.0104 -0.7829
10301TIP3    H252395   3.880   6.583  12.906 -0.5026  1.9888 -0.7465
10302TIP3   OH252396   5.320   4.767   0.154  0.3242 -0.1005  0.4731
10302TIP3    H152397   5.271   4.700   0.202  0.2479 -0.0194  0.5091
10302TIP3    H252398   5.308   4.743   0.062  0.6769 -0.3948  0.5048
10303TIP3   OH252399   5.083   0.443   1.850 -0.1529 -0.1120  0.4415
10303TIP3    H152400   5.029   0.479   1.779  0.5332 -0.3811 -0.2220
10303TIP3    H252401   5.151   0.393   1.805  1.7693  1.7436  1.2123
10304TIP3   OH252402   2.630   1.592  15.369  0.4043 -0.2629  0.3185
10304TIP3    H152403   2.719   1.624  15.357 -0.6315  2.7028  0.1287
10304TIP3    H252404   2.629   1.556  15.458  2.3664 -2.4453 -0.5040
10305TIP3   OH252405   2.991   3.741   4.195  0.0825 -0.0350 -0.3176
10305TIP3    H152406   3.055   3.754   4.265  1.1210  1.0861 -1.4532
10305TIP3    H252407   2.919   3.694   4.237  0.8692  0.2538  1.4027
10306TIP3   OH252408   0.306   5.707   0.147  0.6150  0.0571 -0.6294
10306TIP3    H152409   0.278   5.795   0.169 -2.0925 -0.0798 -3.1972
10306TIP3    H252410   0.398   5.717   0.120  0.5820  1.9359 -0.0788
10307TIP3   OH252411   4.866   5.119   5.033  0.0881 -0.1361 -0.1582
10307TIP3    H152412   4.887   5.204   5.073 -0.8797  0.4865 -0.9613
10307TIP3    H252413   4.771   5.117   5.029  0.1442 -0.6976 -1.3529
10308TIP3   OH252414   2.362   4.850   2.498  0.2420 -0.0981  0.8852
10308TIP3    H152415   2.315   4.913   2.444  1.1214  0.4692  0.7684
10308TIP3    H252416   2.312   4.847   2.580  1.0041  1.8943  1.4665
10309TIP3   OH252417   4.712   3.538  11.126  0.1927 -0.5411  0.0971
10309TIP3    H152418   4.624   3.505  11.145  0.2590 -0.5563  0.3911
10309TIP3    H252419   4.710   3.629  11.157  0.8405 -1.0930  1.8508
10310TIP3   OH252420   0.041   6.049  16.727  0.2511  0.1517 -0.0918
10310TIP3    H152421   0.026   6.042  16.822  0.2103 -0.4493 -0.1372
10310TIP3    H252422   0.066   5.960  16.701  0.5038  0.3725 -0.6052
10311TIP3   OH252423   2.646   3.879  13.847 -0.1821 -0.1512  0.8896
10311TIP3    H152424   2.686   3.817  13.909  0.3623 -0.7737 -0.0840
10311TIP3    H252425   2.668   3.965  13.882 -0.1470 -0.4988  1.7379
10312TIP3   OH252426   6.372   1.415   5.806 -0.2323 -0.6752 -0.0206
10312TIP3    H152427   6.360   1.321   5.818  0.3077 -0.5220  1.9474
10312TIP3    H252428   6.446   1.423   5.745 -0.7143 -1.5184 -0.7170
10313TIP3   OH252429   1.396   5.169   2.979 -0.4381  0.1758  0.0389
10313TIP3    H152430   1.480   5.214   2.981 -0.9320  1.0760  4.0091
10313TIP3    H252431   1.419   5.076   2.983  0.3961  0.2749 -1.8060
10314TIP3   OH252432   4.971   1.937   2.493 -0.3253  0.4242  0.2720
10314TIP3    H152433   4.949   2.028   2.472  2.5265  0.8387 -1.2623
10314TIP3    H252434   4.887   1.893   2.500 -1.7096  2.5230 -2.1154
10315TIP3   OH252435   3.529   1.450  13.352  0.6086  0.1033 -0.4882
10315TIP3    H152436   3.491   1.532  13.319  1.1848  0.3098 -0.6467
10315TIP3    H252437   3.565   1.407  13.275 -2.8474 -2.0562 -1.0359
10316TIP3   OH252438   2.070   2.140  16.340  0.1331  0.6829  0.0450
10316TIP3    H152439   2.019   2.079  16.287 -0.0842  0.4938  0.4600
10316TIP3    H252440   2.085   2.216  16.283  0.1537  0.3644 -0.3749
10317TIP3   OH252441   3.326   0.251  15.114 -0.0609 -0.4298 -0.3765
10317TIP3    H152442   3.265   0.315  15.077  1.0475  1.3100  0.7054
10317TIP3    H252443   3.386   0.231  15.043 -0.0729  0.1804 -0.5588
10318TIP3   OH252444   1.169   2.392   0.872 -0.1179 -0.1846 -0.1139
10318TIP3    H152445   1.104   2.353   0.930  1.0538 -2.0871 -0.0166
10318TIP3    H252446   1.139   2.481   0.858 -1.2647 -0.1807  2.1440
10319TIP3   OH252447   5.207   3.830   0.670  0.2696 -0.0790  0.0664
10319TIP3    H152448   5.164   3.778   0.738 -0.2345  0.2567  0.0029
10319TIP3    H252449   5.199   3.777   0.591  0.2736 -0.1704  0.1275
10320TIP3   OH252450   2.388   4.064   0.744  0.1878  0.1058  0.4813
10320TIP3    H152451   2.454   4.130   0.723  0.3020  0.2622  1.2930
10320TIP3    H252452   2.322   4.073   0.676  0.1509  1.1338  0.6483
10321TIP3   OH252453   1.721   1.897   4.401 -0.5156 -0.0922 -0.6165
10321TIP3    H152454   1.723   1.902   4.305 -0.3246  1.0076 -0.5606
10321TIP3    H252455   1.717   1.804   4.420  0.2698 -0.3510 -1.6886
10322TIP3   OH252456   1.576   0.005   6.001 -0.3307 -0.2780 -0.1190
10322TIP3    H152457   1.612  -0.080   5.977 -0.0209  0.0633 -0.8764
10322TIP3    H252458   1.644   0.068   5.979 -1.5321  0.4243 -2.0427
10323TIP3   OH252459   2.013   4.530  14.062  0.3391  0.5623 -0.6587
10323TIP3    H152460   2.090   4.552  14.008  1.4964  0.8915  1.1036
10323TIP3    H252461   2.050   4.500  14.145 -1.4432  0.4656  0.1062
10324TIP3   OH252462   0.081   5.576  14.894 -0.0845  0.2583  0.0658
10324TIP3    H152463   0.127   5.492  14.888  0.3876  0.6397 -2.0987
10324TIP3    H252464   0.148   5.641  14.875 -0.9192  0.9924 -0.3855
10325TIP3   OH252465   0.982   1.038   5.681 -0.2887 -0.0310  0.6044
10325TIP3    H152466   0.917   1.049   5.612 -0.8946 -1.8867  0.8666
10325TIP3    H252467   1.028   1.123   5.684 -1.3949  0.6434 -0.8789
10326TIP3   OH252468   3.867   0.016   3.509  0.4000 -0.2766 -0.1875
10326TIP3    H152469   3.953   0.046   3.478 -0.4725  1.9422 -0.5319
10326TIP3    H252470   3.821  -0.010   3.429 -0.4461  1.7493 -0.3824
10327TIP3   OH252471   1.575   6.705   1.368  0.0504  0.0413 -0.6753
10327TIP3    H152472   1.511   6.637   1.349  1.0269 -0.9905 -0.3419
10327TIP3    H252473   1.585   6.703   1.463 -0.1227  0.8507 -0.6332
10328TIP3   OH252474   3.134   3.283   1.248  0.2078  0.1022  0.2453
10328TIP3    H152475   3.130   3.335   1.328  0.6856 -0.7440  0.8211
10328TIP3    H252476   3.046   3.249   1.236 -0.2381  1.4229 -0.4025
10329TIP3   OH252477   2.273   5.684   2.545 -0.1886  0.2445 -0.1365
10329TIP3    H152478   2.292   5.771   2.580  0.0858 -0.6622  2.0472
10329TIP3    H252479   2.359   5.644   2.531 -0.3156  0.2633 -1.0519
10330TIP3   OH252480   0.408   6.038  14.849  0.1568  0.2032 -0.0975
10330TIP3    H152481   0.356   6.076  14.919 -0.0516 -0.9204  0.3698
10330TIP3    H252482   0.405   5.944  14.866 -0.5558 -0.1474 -2.0635
10331TIP3   OH252483   2.531   5.127  11.752  0.3394  0.5333  0.7840
10331TIP3    H152484   2.562   5.217  11.743 -0.8829  0.9163  0.2323
10331TIP3    H252485   2.523   5.113  11.846 -1.5511  1.7637  0.8439
10332TIP3   OH252486   5.653   4.223  12.684  0.6087  0.0492  0.0435
10332TIP3    H152487   5.651   4.136  12.644  0.4909  0.4806 -0.8999
10332TIP3    H252488   5.575   4.267  12.651  0.9673  0.7132  0.0568
10333TIP3   OH252489   5.066   3.992   0.470 -0.5431  0.0769  0.4836
10333TIP3    H152490   5.033   3.927   0.409 -2.6344  1.7758 -0.2540
10333TIP3    H252491   5.159   3.971   0.479 -0.3791 -0.7611 -2.5597
10334TIP3   OH252492   2.344   2.965   1.588  0.2112 -0.1490 -0.7360
10334TIP3    H152493   2.389   3.046   1.563  0.5910  0.0693  0.5896
10334TIP3    H252494   2.324   2.921   1.505  2.3478  0.0340 -1.3641
10335TIP3   OH252495   1.409   3.658   5.628 -0.8301  0.0978  0.1529
10335TIP3    H152496   1.486   3.608   5.603 -0.1748  1.6881 -1.1302
10335TIP3    H252497   1.361   3.672   5.546 -1.0638  1.4353  0.5048
10336TIP3   OH252498   0.943   3.725  16.154 -0.2049 -0.6237  0.1059
10336TIP3    H152499   1.020   3.781  16.159 -0.0177 -0.7738 -0.8586
10336TIP3    H252500   0.950   3.666  16.229  0.7434 -0.7825 -0.1038
10337TIP3   OH252501   6.370   4.280  12.542  0.2241 -0.5771  0.0350
10337TIP3    H152502   6.450   4.333  12.540  0.0599 -0.2387  1.9383
10337TIP3    H252503   6.312   4.325  12.603 -0.7207 -1.8220  0.0817
10338TIP3   OH252504   2.140   1.021  15.300 -0.2548 -0.4455 -0.3794
10338TIP3    H152505   2.154   1.104  15.346 -0.0471 -1.6096  1.7345
10338TIP3    H252506   2.214   1.014  15.241  1.3372 -0.4900  1.5546
10339TIP3   OH252507   6.814   0.908  12.436 -0.2033  0.0607  0.2649
10339TIP3    H152508   6.746   0.840  12.434 -1.2475  1.1297 -2.2294
10339TIP3    H252509   6.767   0.987  12.462  0.4036  0.4890  0.0624
10340TIP3   OH252510   0.724   3.589   1.015  0.0143  0.5075 -0.2960
10340TIP3    H152511   0.759   3.551   1.096  1.3566  3.0394  0.3905
10340TIP3    H252512   0.779   3.553   0.946  1.6976  1.6438  0.4054
10341TIP3   OH252513   6.099   6.662   3.282 -0.2592 -0.0463  0.2914
10341TIP3    H152514   6.147   6.605   3.222 -0.3489  0.1690  0.0189
10341TIP3    H252515   6.082   6.607   3.359  2.7013  0.6127  1.4812
10342TIP3   OH252516   2.002   0.586  13.579  0.1926 -0.1903 -0.1356
10342TIP3    H152517   1.993   0.508  13.634 -0.2081 -1.4997 -2.0196
10342TIP3    H252518   1.933   0.578  13.513 -0.5439  2.3158  0.2826
10343TIP3   OH252519   6.775   4.937  12.099 -0.2485 -0.3988  0.1527
10343TIP3    H152520   6.814   4.963  12.182  0.2858  3.6068 -1.2164
10343TIP3    H252521   6.834   4.870  12.064  0.4461 -0.8877  2.1815
10344TIP3   OH252522   3.842   1.929   4.509  0.1793  0.1577 -0.4909
10344TIP3    H152523   3.790   2.005   4.484 -1.6056 -0.3315  1.6216
10344TIP3    H252524   3.793   1.855   4.474  1.1515 -0.1098 -1.2844
10345TIP3   OH252525   3.759   5.883   0.670  0.0101  0.1089 -0.1908
10345TIP3    H152526   3.666   5.900   0.681  0.0052 -0.1905  0.2600
10345TIP3    H252527   3.798   5.970   0.659 -0.3928  0.1915 -0.9686
10346TIP3   OH252528   1.180   1.801   2.691 -0.1907 -0.2790 -0.3943
10346TIP3    H152529   1.158   1.721   2.739 -2.3438  0.8672  0.5696
10346TIP3    H252530   1.109   1.862   2.711  0.9980  1.6146 -1.7694
10347TIP3   OH252531   3.704   2.877   1.704 -0.2002 -0.4598  0.0061
10347TIP3    H152532   3.704   2.807   1.639  2.1573 -2.0521  1.6462
10347TIP3    H252533   3.779   2.932   1.680 -1.3042  0.8544 -0.5380
10348TIP3   OH252534   6.070   1.976   0.243 -0.1827 -0.1461 -0.1435
10348TIP3    H152535   6.097   1.974   0.335  1.9249  0.4363 -0.7128
10348TIP3    H252536   5.994   2.033   0.241  0.3184  0.5849  1.1041
10349TIP3   OH252537   4.288   1.731   6.368 -0.1349 -0.0531 -0.0480
10349TIP3    H152538   4.342   1.686   6.302  0.7465 -0.6275  1.0372
10349TIP3    H252539   4.198   1.705   6.348  0.1000  0.0469 -1.2251
10350TIP3   OH252540   5.446   4.817   2.494 -0.6056 -0.3240  0.0336
10350TIP3    H152541   5.360   4.777   2.490 -0.2447 -0.9387 -1.8939
10350TIP3    H252542   5.471   4.833   2.403  0.7113  1.1666  0.6125
10351TIP3   OH252543   6.239   4.470  13.272 -0.3138  0.0150 -0.1720
10351TIP3    H152544   6.252   4.535  13.203 -0.0503 -0.5162 -0.6165
10351TIP3    H252545   6.167   4.415  13.242  1.1400 -1.4873 -0.9700
10352TIP3   OH252546   4.829   5.682   4.230  0.2253  0.1134  0.6574
10352TIP3    H152547   4.857   5.669   4.321 -0.6727 -0.3702  0.8644
10352TIP3    H252548   4.768   5.611   4.213 -0.7481  1.0559  0.1418
10353TIP3   OH252549   0.754   1.439   4.245 -0.4687 -0.0569 -0.2366
10353TIP3    H152550   0.797   1.492   4.312 -0.7640 -1.0529  0.7382
10353TIP3    H252551   0.737   1.501   4.173  1.6724  0.5629 -0.2277
10354TIP3   OH252552   4.570   4.976   5.620 -0.1309  0.4695 -0.0021
10354TIP3    H152553   4.522   5.055   5.643 -0.7428  0.7314 -2.0299
10354TIP3    H252554   4.573   4.977   5.524  1.3769 -1.0647  0.0012
10355TIP3   OH252555   6.333   5.135   2.393  0.1796  0.2304  0.5086
10355TIP3    H152556   6.392   5.114   2.321 -1.6223 -1.1210 -0.6270
10355TIP3    H252557   6.350   5.227   2.413  2.0819  0.0719 -0.3179
10356TIP3   OH252558   4.822   4.551  12.598  0.2617 -0.1719  0.1492
10356TIP3    H152559   4.818   4.646  12.606 -1.1443 -0.3154  1.5237
10356TIP3    H252560   4.898   4.534  12.543  0.8502  1.7180  0.3571
10357TIP3   OH252561   0.966   4.495   3.157 -0.1265  0.3064 -0.3267
10357TIP3    H152562   0.937   4.577   3.196 -1.7533  0.3921 -1.6284
10357TIP3    H252563   0.940   4.428   3.220 -2.1942  0.4891 -0.9371
10358TIP3   OH252564   3.352   0.561   0.634  0.1692  0.4433 -0.2795
10358TIP3    H152565   3.289   0.511   0.684  0.9448  0.2194  0.4808
10358TIP3    H252566   3.422   0.581   0.696 -0.1572  2.5216 -0.5471
10359TIP3   OH252567   2.244   5.140  13.915 -0.2394  0.7223  0.6129
10359TIP3    H152568   2.240   5.174  14.004  0.4593 -2.8897  2.0815
10359TIP3    H252569   2.152   5.138  13.886 -0.9110 -1.8955  2.7837
10360TIP3   OH252570   3.993   6.342  16.456 -0.0124  0.0944 -0.3408
10360TIP3    H152571   4.055   6.384  16.515 -0.3655  1.7276 -1.1149
10360TIP3    H252572   4.047   6.285  16.402  0.1059 -2.7877  2.6748
10361TIP3   OH252573   5.748   5.135  15.320 -0.2021  0.8316  0.1164
10361TIP3    H152574   5.832   5.157  15.361  0.6690 -0.4475 -0.9848
10361TIP3    H252575   5.721   5.216  15.276  1.6743  0.5447 -1.6262
10362TIP3   OH252576   6.107   6.674   4.169 -0.0173 -0.8019  0.0967
10362TIP3    H152577   6.027   6.727   4.170 -1.4022 -2.7926 -1.4669
10362TIP3    H252578   6.161   6.713   4.100 -0.4186 -0.5839 -0.0944
10363TIP3   OH252579   4.262   6.148   2.920 -0.2144  0.7209 -0.0265
10363TIP3    H152580   4.278   6.135   2.827  0.7249  2.4936 -0.1228
10363TIP3    H252581   4.255   6.243   2.931  3.6056  0.8337  2.3259
10364TIP3   OH252582   0.039   3.969  15.349  0.4071 -0.3416 -0.5721
10364TIP3    H152583  -0.054   3.949  15.364  0.1328  1.4979  0.3247
10364TIP3    H252584   0.039   4.021  15.268  0.3570  1.7022  0.6916
10365TIP3   OH252585   1.687   3.016  17.099 -0.3366  0.0023 -0.1319
10365TIP3    H152586   1.686   2.921  17.093  0.6432 -0.0274  0.0671
10365TIP3    H252587   1.595   3.042  17.087 -0.1877 -0.7719 -3.2895
10366TIP3   OH252588   2.733   4.850  16.269  0.1795  0.1904 -0.1245
10366TIP3    H152589   2.739   4.866  16.364  0.4387 -0.1267 -0.0842
10366TIP3    H252590   2.659   4.902  16.241  0.0933  0.2807  0.2597
10367TIP3   OH252591   5.923   1.636   2.266  0.0259 -0.5431  0.2118
10367TIP3    H152592   5.985   1.704   2.239  0.4495 -0.3523  1.5886
10367TIP3    H252593   5.839   1.680   2.271  0.2339 -0.2038  0.7467
10368TIP3   OH252594   3.728   1.850   1.415  0.0702  0.2204  0.2884
10368TIP3    H152595   3.775   1.818   1.492  1.3602 -1.1431 -1.0217
10368TIP3    H252596   3.642   1.809   1.420  0.8268 -1.4367 -0.0110
10369TIP3   OH252597   0.719   0.140   1.325 -0.4820 -0.1544 -0.0562
10369TIP3    H152598   0.783   0.116   1.257 -3.2318 -0.2734 -2.6974
10369TIP3    H252599   0.717   0.235   1.323 -2.2391 -0.2065 -1.8079
10370TIP3   OH252600   0.356   6.241   4.483  0.8759 -0.0577  0.1963
10370TIP3    H152601   0.376   6.153   4.516  2.8644 -0.1979 -1.3031
10370TIP3    H252602   0.342   6.229   4.389  0.7778  1.1755  0.0520
10371TIP3   OH252603   4.931   0.243   0.830  0.0219  0.3494 -0.8027
10371TIP3    H152604   4.897   0.308   0.891  1.4600  0.4788 -0.1111
10371TIP3    H252605   4.939   0.163   0.882  0.3640  0.2130 -1.0622
10372TIP3   OH252606   3.820   5.322  14.853 -0.9833  0.3331  0.5177
10372TIP3    H152607   3.824   5.342  14.946 -2.7041 -0.1946  0.7344
10372TIP3    H252608   3.840   5.405  14.809  0.0305  0.5328  1.3402
10373TIP3   OH252609   5.930   1.838  11.252  0.0370 -0.3222 -0.7095
10373TIP3    H152610   5.980   1.861  11.330  0.2607 -1.4956 -0.4984
10373TIP3    H252611   5.873   1.766  11.280  1.4469 -2.0090 -2.0834
10374TIP3   OH252612   0.482   5.203   0.599  0.1312 -0.1952  0.3118
10374TIP3    H152613   0.462   5.175   0.510 -0.3162 -0.1113  0.3807
10374TIP3    H252614   0.556   5.263   0.590 -0.7238  0.8016 -0.1417
10375TIP3   OH252615   0.374   3.523  12.224 -0.2623  0.2302  0.5696
10375TIP3    H152616   0.440   3.535  12.157 -1.0170 -2.1994 -0.6345
10375TIP3    H252617   0.291   3.541  12.179 -0.8294 -2.1308  0.6142
10376TIP3   OH252618   4.899   6.569  15.983  0.1564  0.0338 -0.2823
10376TIP3    H152619   4.943   6.493  16.019 -0.3615 -0.2756 -0.3019
10376TIP3    H252620   4.806   6.546  15.985 -0.1762  1.3751  1.4686
10377TIP3   OH252621   1.553   4.427   1.982 -0.0240 -0.0190  0.3217
10377TIP3    H152622   1.535   4.429   1.888 -1.5820 -0.1067  0.6024
10377TIP3    H252623   1.639   4.469   1.991  0.6517 -1.0100 -1.2429
10378TIP3   OH252624   4.547   1.055   0.107 -0.6527 -0.1012  0.1870
10378TIP3    H152625   4.587   1.083   0.025  0.2859  1.5933  1.2044
10378TIP3    H252626   4.489   0.983   0.082  1.3166 -1.1151 -1.6359
10379TIP3   OH252627   2.332   6.365  12.680  0.4343  0.3868  0.2266
10379TIP3    H152628   2.337   6.302  12.609  0.1228 -0.5114  0.9967
10379TIP3    H252629   2.368   6.319  12.756 -0.3805  0.9102  0.9370
10380TIP3   OH252630   3.593   6.696  11.463  0.3022 -0.5711  0.2834
10380TIP3    H152631   3.505   6.661  11.447 -0.5059  1.2435  0.7002
10380TIP3    H252632   3.614   6.744  11.383  0.4493 -0.0313  0.6471
10381TIP3   OH252633   5.604   4.508  14.828  0.3411 -0.0890 -0.1976
10381TIP3    H152634   5.668   4.467  14.886  0.1884 -2.0295 -1.3507
10381TIP3    H252635   5.533   4.444  14.822 -0.6145  1.0153 -0.8288
10382TIP3   OH252636   1.663   4.767  10.864 -0.1722  0.0318 -0.2505
10382TIP3    H152637   1.593   4.833  10.860 -1.2750 -1.2251 -3.2433
10382TIP3    H252638   1.617   4.684  10.877  0.7283 -0.8013 -2.1424
10383TIP3   OH252639   2.771   1.060  16.090  0.0003  0.4943 -0.5672
10383TIP3    H152640   2.721   1.038  16.169 -1.4705 -1.9936 -2.1380
10383TIP3    H252641   2.721   1.130  16.049  0.0673  0.8879  0.0116
10384TIP3   OH252642   5.504   0.897  12.100 -0.6702  0.0893  0.2438
10384TIP3    H152643   5.523   0.927  12.011  1.2556  0.0443  0.6306
10384TIP3    H252644   5.510   0.802  12.096 -3.9747 -0.1844 -0.3176
10385TIP3   OH252645   0.931   0.676  12.637 -0.2778 -0.9105  0.2909
10385TIP3    H152646   0.987   0.733  12.690 -0.3299 -1.5409  1.0250
10385TIP3    H252647   0.923   0.722  12.553  1.9283 -1.1530 -0.0906
10386TIP3   OH252648   1.698   0.278  15.727 -0.1082  0.6365 -0.0002
10386TIP3    H152649   1.631   0.346  15.733 -0.0140  0.7835 -0.5627
10386TIP3    H252650   1.668   0.220  15.658 -0.9494 -0.7654  1.5111
10387TIP3   OH252651   0.047   1.521   2.712 -0.3101 -0.2121 -0.0029
10387TIP3    H152652   0.116   1.478   2.763  0.1723  0.7449  0.1490
10387TIP3    H252653   0.011   1.587   2.770 -0.9858 -0.3202 -0.2829
10388TIP3   OH252654   0.033   6.540  14.100 -0.1506 -0.0563 -0.1615
10388TIP3    H152655  -0.019   6.599  14.155  2.0012  0.5582  1.2929
10388TIP3    H252656   0.123   6.554  14.129  0.8747 -0.8890 -2.8063
10389TIP3   OH252657   0.236   4.004   4.834  0.3584 -0.1433 -0.1751
10389TIP3    H152658   0.176   4.032   4.904  1.4137 -0.0988  0.7363
10389TIP3    H252659   0.184   3.946   4.779 -1.0300  1.3457 -0.4414
10390TIP3   OH252660   0.866   4.665   5.236  0.4244  0.1978 -0.7661
10390TIP3    H152661   0.809   4.742   5.238 -0.1190 -0.2218  1.2968
10390TIP3    H252662   0.860   4.629   5.324  0.3542 -2.4496 -1.8237
10391TIP3   OH252663   1.846   1.097  16.390 -0.3547 -0.3671 -0.0080
10391TIP3    H152664   1.869   1.141  16.472  1.8953  0.3278 -0.9607
10391TIP3    H252665   1.767   1.141  16.360 -0.5348  0.1604  1.1924
10392TIP3   OH252666   0.136   4.839   3.648 -0.1746  0.3825 -0.0886
10392TIP3    H152667   0.064   4.843   3.711 -0.7836  0.0475 -0.7594
10392TIP3    H252668   0.188   4.763   3.675  0.0879  0.7857  0.5589
10393TIP3   OH252669   2.427   2.748   0.504 -0.8845  0.1692  0.5150
10393TIP3    H152670   2.395   2.837   0.494  0.4972  0.5011 -1.3898
10393TIP3    H252671   2.468   2.728   0.420  0.5922 -1.5329  1.5942
10394TIP3   OH252672   5.167   1.464  15.007  0.5320 -0.3134 -0.0726
10394TIP3    H152673   5.224   1.436  14.936  0.3911 -0.6279 -0.0654
10394TIP3    H252674   5.166   1.559  15.002 -0.3719 -0.3765 -1.1940
10395TIP3   OH252675   0.283   1.772   6.103  0.1393  0.0552 -0.0117
10395TIP3    H152676   0.289   1.727   6.187 -1.4021 -0.1210  0.0187
10395TIP3    H252677   0.290   1.703   6.038  0.3295  0.0808 -0.0207
10396TIP3   OH252678   2.034   6.535  13.655 -0.0813 -0.7810 -0.5316
10396TIP3    H152679   2.019   6.464  13.717 -0.8618 -0.1432  0.0157
10396TIP3    H252680   2.075   6.604  13.707 -1.8007  0.2083 -0.4395
10397TIP3   OH252681   2.657   5.046  14.858  0.4465  0.2776 -0.0262
10397TIP3    H152682   2.609   5.110  14.910  0.1229  0.6704 -0.7913
10397TIP3    H252683   2.694   5.098  14.786  1.0533 -0.2205 -0.0796
10398TIP3   OH252684   5.626   2.266   1.767  0.2657  0.3086 -0.6917
10398TIP3    H152685   5.574   2.344   1.786  0.3893 -0.1916  1.9035
10398TIP3    H252686   5.572   2.193   1.796  1.1190 -0.4145 -0.8967
10399TIP3   OH252687   2.653   1.949  16.600  0.9696  0.0448 -0.6433
10399TIP3    H152688   2.705   1.891  16.545 -0.0150 -2.7192  1.2220
10399TIP3    H252689   2.698   1.949  16.685 -0.1414  0.4370 -0.0436
10400TIP3   OH252690   4.501   4.136   5.044  0.2267  0.2912 -0.2251
10400TIP3    H152691   4.425   4.193   5.051  0.1576  0.0378  1.1099
10400TIP3    H252692   4.468   4.057   5.000 -0.0410  0.5937 -0.5719
10401TIP3   OH252693   3.364   1.507   3.852 -0.0674 -0.3713 -0.1236
10401TIP3    H152694   3.382   1.424   3.895  2.8311 -0.1647 -0.8093
10401TIP3    H252695   3.451   1.540   3.826 -1.4880  0.7747 -3.7419
10402TIP3   OH252696   4.600   1.328   3.512  0.2471 -0.3570  0.3713
10402TIP3    H152697   4.576   1.245   3.471 -3.1369  0.0925  1.2888
10402TIP3    H252698   4.589   1.393   3.443  0.4390 -0.3692  0.3304
10403TIP3   OH252699   1.571   4.010  11.462  0.0740  0.0421 -0.0577
10403TIP3    H152700   1.577   4.031  11.369 -0.2138 -0.1016 -0.1079
10403TIP3    H252701   1.490   3.960  11.471 -2.0619  3.5007  0.8973
10404TIP3   OH252702   5.707   5.383  15.174  0.4259  0.2314  0.2661
10404TIP3    H152703   5.657   5.434  15.237  0.0950 -0.4298  0.5339
10404TIP3    H252704   5.778   5.442  15.147 -0.5036  1.1775 -0.1409
10405TIP3   OH252705   4.435   6.459   6.353  0.0925 -0.7908  0.5530
10405TIP3    H152706   4.494   6.384   6.362  3.2854  1.4318 -1.1918
10405TIP3    H252707   4.436   6.501   6.439 -0.3093 -1.6829  1.0075
10406TIP3   OH252708   2.531   2.255  11.970 -0.1197  0.2422  0.6063
10406TIP3    H152709   2.564   2.200  11.900 -0.3009  1.2699 -0.2988
10406TIP3    H252710   2.581   2.229  12.047  1.4139  0.4205 -0.3207
10407TIP3   OH252711   0.295   4.765  14.896 -0.0053  0.6272 -0.2879
10407TIP3    H152712   0.283   4.836  14.832  1.1530  1.7392  0.7230
10407TIP3    H252713   0.252   4.797  14.975 -0.5856 -0.3425 -0.2102
10408TIP3   OH252714   2.099   4.570   3.823  0.2874  0.2867 -0.1286
10408TIP3    H152715   2.142   4.488   3.799  1.4478  1.2360 -1.4105
10408TIP3    H252716   2.151   4.603   3.897 -0.7355 -0.5714  0.9854
10409TIP3   OH252717   3.756   0.352   2.928 -0.0441 -0.4173 -0.2967
10409TIP3    H152718   3.722   0.263   2.936  0.6328 -0.6014  0.5962
10409TIP3    H252719   3.847   0.346   2.958 -0.3442  0.7970  0.9153
10410TIP3   OH252720   5.825   2.459  11.310 -0.4071  0.2079 -0.4116
10410TIP3    H152721   5.777   2.506  11.242  0.2391 -0.2832 -1.2037
10410TIP3    H252722   5.885   2.403  11.263  0.9341  0.7877  0.5817
10411TIP3   OH252723   4.917   5.391  16.070  0.3196 -0.0151 -0.0889
10411TIP3    H152724   4.997   5.423  16.029 -0.1167  0.9514 -0.1975
10411TIP3    H252725   4.942   5.370  16.160  1.1220 -1.4765 -0.6404
10412TIP3   OH252726   5.682   3.953  12.583  0.1803 -0.0655 -0.4854
10412TIP3    H152727   5.682   3.883  12.649 -1.1221 -0.2145 -0.6241
10412TIP3    H252728   5.645   3.912  12.505  2.0385  0.0237 -1.4274
10413TIP3   OH252729   1.759   5.207   5.587 -0.7929  0.2201 -0.0234
10413TIP3    H152730   1.756   5.301   5.608 -0.5294 -0.0400  1.2443
10413TIP3    H252731   1.713   5.165   5.660  0.4849 -0.7640  0.2376
10414TIP3   OH252732   3.656   1.110   4.386  0.4435 -0.6986  0.1314
10414TIP3    H152733   3.642   1.092   4.293 -2.0687  1.3626  0.0388
10414TIP3    H252734   3.569   1.100   4.426  1.0081  0.7505  1.8157
10415TIP3   OH252735   6.793   0.998   2.129 -0.3367 -0.8031 -0.2482
10415TIP3    H152736   6.864   1.056   2.156  1.1643 -3.6527  2.2981
10415TIP3    H252737   6.716   1.031   2.176  0.3490 -0.4480  0.6423
10416TIP3   OH252738   1.392   5.781   6.393 -0.1530 -0.2000  0.0123
10416TIP3    H152739   1.473   5.735   6.417 -0.8931 -1.1577  0.7543
10416TIP3    H252740   1.322   5.720   6.419 -1.1457  1.2460  0.7672
10417TIP3   OH252741   6.053   2.314  11.200  0.0148 -0.2687 -0.4126
10417TIP3    H152742   6.084   2.270  11.279 -0.0418  0.0889 -0.1912
10417TIP3    H252743   6.039   2.243  11.137 -0.4233 -0.6027  0.0570
10418TIP3   OH252744   0.340   6.523   3.116 -0.3104  0.0414 -0.1821
10418TIP3    H152745   0.370   6.507   3.026 -0.6174 -0.2779 -0.2267
10418TIP3    H252746   0.275   6.592   3.108  0.5062  0.8450 -0.0683
10419TIP3   OH252747   0.876   1.726  14.863  0.1366 -0.7559 -0.3557
10419TIP3    H152748   0.884   1.748  14.770 -0.2798 -0.8105 -0.4085
10419TIP3    H252749   0.813   1.654  14.865 -1.2002  0.3822  0.1117
10420TIP3   OH252750   0.029   5.211   5.084 -0.2542  0.6722 -0.2514
10420TIP3    H152751  -0.057   5.232   5.120 -0.7431 -1.6565  0.0456
10420TIP3    H252752   0.085   5.201   5.161  0.3887  2.5011 -0.4566
10421TIP3   OH252753   3.804   3.318   5.081 -0.4568 -0.8858  0.1809
10421TIP3    H152754   3.744   3.244   5.081 -0.9052 -0.5338 -0.2163
10421TIP3    H252755   3.780   3.368   5.159  0.9061 -1.9839  1.3269
10422TIP3   OH252756   2.332   3.491  12.910 -0.3569  0.2109  0.1754
10422TIP3    H152757   2.319   3.424  12.842  0.6205  1.3316 -1.1428
10422TIP3    H252758   2.375   3.563  12.864  1.9625  0.2818  2.3738
10423TIP3   OH252759   5.518   1.497  11.631  0.1487  0.1187 -0.4471
10423TIP3    H152760   5.553   1.486  11.720  0.4502 -0.9193 -0.6896
10423TIP3    H252761   5.518   1.591  11.617 -0.2344  0.3082  0.7928
10424TIP3   OH252762   1.010   2.101   5.009  0.4338  0.4754  0.4288
10424TIP3    H152763   0.942   2.040   4.980  0.8665 -0.9477  2.3365
10424TIP3    H252764   0.971   2.146   5.084  1.1975  0.4311  0.8574
10425TIP3   OH252765   5.489   1.775  11.588  0.0657  0.2774 -0.2573
10425TIP3    H152766   5.448   1.855  11.619 -0.4721  0.8294 -2.2823
10425TIP3    H252767   5.465   1.770  11.495  2.3381 -0.8072 -0.8329
10426TIP3   OH252768   6.294   2.875  11.700 -0.0648 -0.2801  0.3561
10426TIP3    H152769   6.364   2.926  11.742  1.3219 -2.1112  0.3227
10426TIP3    H252770   6.300   2.788  11.739  0.7688 -1.8329 -3.0501
10427TIP3   OH252771   5.120   3.571  13.732  0.6824  0.0030  0.6058
10427TIP3    H152772   5.213   3.592  13.747  0.6279  0.6853 -0.0015
10427TIP3    H252773   5.102   3.498  13.792  1.0204  1.3058  2.3257
10428TIP3   OH252774   1.966   1.157   4.601 -0.7882  0.1005 -0.5295
10428TIP3    H152775   2.035   1.159   4.667 -1.4276 -1.9080  0.2516
10428TIP3    H252776   2.009   1.185   4.520  1.1010 -1.6672 -0.1857
10429TIP3   OH252777   6.427   4.520  16.865 -0.4041 -0.3755  0.3509
10429TIP3    H152778   6.505   4.563  16.901  0.8823 -2.0982 -0.3139
10429TIP3    H252779   6.373   4.502  16.942 -0.6032  1.6697  0.7267
10430TIP3   OH252780   4.081   0.230  13.039  0.3058 -0.3079  0.6298
10430TIP3    H152781   4.038   0.298  12.987 -0.7505 -0.1038  1.7188
10430TIP3    H252782   4.015   0.161  13.047 -0.0457  0.2232  2.7451
10431TIP3   OH252783   1.444   5.349  15.976  0.2299  0.0069  0.5444
10431TIP3    H152784   1.504   5.276  15.959 -1.5652 -1.0771 -1.3665
10431TIP3    H252785   1.453   5.365  16.070  1.0520 -2.3438  0.9234
10432TIP3   OH252786   3.518   0.901   0.828 -0.9586  0.3926 -0.6217
10432TIP3    H152787   3.465   0.965   0.780 -1.5811 -0.7058 -1.4262
10432TIP3    H252788   3.576   0.954   0.882  0.1386  1.6911 -2.9896
10433TIP3   OH252789   4.579   0.783   5.738 -0.1431  0.0729  0.7022
10433TIP3    H152790   4.631   0.730   5.678 -0.0708  1.3552 -0.4060
10433TIP3    H252791   4.630   0.864   5.748 -1.4983  0.9947  0.2772
10434TIP3   OH252792   2.675   4.029   4.894  0.1951  0.3582 -0.7979
10434TIP3    H152793   2.700   3.964   4.959 -0.6938  0.0773 -0.7255
10434TIP3    H252794   2.727   4.006   4.816  0.6331  0.1839 -0.4542
10435TIP3   OH252795   1.437   0.028   0.902 -0.1298 -0.0096  0.1895
10435TIP3    H152796   1.393   0.107   0.872 -1.4630 -1.4104 -1.6742
10435TIP3    H252797   1.366  -0.027   0.937  0.7882 -0.3613  1.5540
10436TIP3   OH252798   4.419   4.120  13.437 -0.5339 -0.2962 -0.3797
10436TIP3    H152799   4.463   4.048  13.483  1.7789  1.9238  1.0151
10436TIP3    H252800   4.366   4.077  13.370  0.1409 -3.3252  0.9429
10437TIP3   OH252801   3.508   4.535   3.109 -0.0451 -0.0782  0.2536
10437TIP3    H152802   3.600   4.509   3.107  0.0837  0.3977  0.0833
10437TIP3    H252803   3.460   4.452   3.107  0.4161 -0.4637  3.0901
10438TIP3   OH252804   2.150   5.414  15.146  0.4065 -0.0593  0.6334
10438TIP3    H152805   2.077   5.469  15.118 -0.3622  0.2378  3.1376
10438TIP3    H252806   2.177   5.450  15.230  1.4115 -2.0709  1.2171
10439TIP3   OH252807   4.454   5.581  11.588  0.0156  0.0027  0.7207
10439TIP3    H152808   4.439   5.518  11.518  1.6793 -1.0690  1.2916
10439TIP3    H252809   4.401   5.657  11.564 -1.3887 -1.2993 -0.3860
10440TIP3   OH252810   2.401   0.378  16.064 -0.0491  0.0164 -0.3874
10440TIP3    H152811   2.360   0.307  16.014  1.2169 -0.5719 -0.6087
10440TIP3    H252812   2.394   0.455  16.008 -0.7647 -0.0976 -0.4563
10441TIP3   OH252813   4.017   5.037   3.676 -0.2272  0.0425 -0.2161
10441TIP3    H152814   4.060   5.098   3.736 -2.4213 -0.2168  1.6866
10441TIP3    H252815   4.088   4.980   3.644  0.9701  0.1328  2.2135
10442TIP3   OH252816   5.381   5.370  16.404 -0.5157  0.1355 -0.3405
10442TIP3    H152817   5.394   5.321  16.485 -0.2911 -0.9457 -1.0222
10442TIP3    H252818   5.293   5.408  16.412 -0.5532 -0.0904  0.3359
10443TIP3   OH252819   2.668   6.287  14.139 -0.0340  0.1118 -0.2136
10443TIP3    H152820   2.611   6.352  14.180 -1.1285 -0.6841 -0.4685
10443TIP3    H252821   2.712   6.335  14.069  0.4848  1.0193  0.7197
10444TIP3   OH252822   2.005   3.243   5.396  0.1853 -0.4412 -0.0911
10444TIP3    H152823   2.030   3.194   5.474  0.0605 -0.1103  0.1565
10444TIP3    H252824   1.942   3.186   5.351  1.7127 -1.4744 -0.9527
10445TIP3   OH252825   5.761   6.417   6.811 -0.3297  0.0197  0.3598
10445TIP3    H152826   5.665   6.421   6.820 -0.4869  0.4636 -1.3710
10445TIP3    H252827   5.777   6.333   6.768 -0.1585  1.1554 -1.8388
10446TIP3   OH252828   4.643   1.609  17.264 -0.4563  0.1134 -0.6611
10446TIP3    H152829   4.587   1.654  17.327 -0.8659 -1.3252  0.0084
10446TIP3    H252830   4.583   1.553  17.215  0.6092 -2.6359  1.1169
10447TIP3   OH252831   1.653   4.332   0.874 -0.6261 -0.1275  0.1326
10447TIP3    H152832   1.589   4.285   0.821 -0.3508 -0.3750  0.0202
10447TIP3    H252833   1.716   4.367   0.811  0.0001 -0.8804  0.3390
10448TIP3   OH252834   1.073   5.088   0.152  0.4543 -0.2697 -0.6054
10448TIP3    H152835   1.048   5.149   0.221  2.6867 -1.1485  1.0180
10448TIP3    H252836   1.013   5.109   0.080 -2.1758  0.4209  1.6696
10449TIP3   OH252837   0.847   5.573  14.280  0.3517 -0.0255 -0.2214
10449TIP3    H152838   0.844   5.654  14.331  0.9924  0.4584 -0.9414
10449TIP3    H252839   0.763   5.571  14.234 -0.4130 -0.6779  1.1563
10450TIP3   OH252840   6.414   2.942  10.628  0.0805 -0.3005 -0.1887
10450TIP3    H152841   6.439   3.025  10.667  0.8368 -0.7382  0.2896
10450TIP3    H252842   6.325   2.926  10.658 -0.2303  0.5504 -0.6532
10451TIP3   OH252843   0.637   5.976   4.252  0.4027  0.0757  0.1041
10451TIP3    H152844   0.543   5.991   4.241  0.8707  1.7178 -2.0725
10451TIP3    H252845   0.665   6.040   4.317 -0.2326 -1.4392  1.8987
10452TIP3   OH252846   2.384   5.388   2.513  0.6720 -0.6335 -0.2009
10452TIP3    H152847   2.470   5.357   2.543 -0.5126 -1.7956  2.1020
10452TIP3    H252848   2.335   5.405   2.593 -1.2877 -0.0500 -1.4866
10453TIP3   OH252849   3.989   1.027   4.539  0.1309  0.2786 -0.1976
10453TIP3    H152850   3.970   1.103   4.484 -2.0398  1.0975  1.6244
10453TIP3    H252851   4.045   0.971   4.484 -1.2016  1.4929 -2.8809
10454TIP3   OH252852   4.415   1.978   2.143  0.6759  0.4171 -0.2924
10454TIP3    H152853   4.399   2.071   2.126 -0.8789 -0.0203 -1.2790
10454TIP3    H252854   4.359   1.932   2.081 -0.1552 -1.1917  1.5960
10455TIP3   OH252855   1.677   3.882  14.487 -0.2836  0.7675  0.3891
10455TIP3    H152856   1.607   3.859  14.549  0.3134 -0.7165  0.5282
10455TIP3    H252857   1.754   3.837  14.521  0.2882  0.7934 -0.8598
10456TIP3   OH252858   2.179   4.348  14.650  0.1002  0.2699 -0.5206
10456TIP3    H152859   2.261   4.315  14.687 -0.1117  0.6715  0.3115
10456TIP3    H252860   2.173   4.439  14.678 -0.7667  0.1665 -0.3272
10457TIP3   OH252861   3.770   5.357   0.734 -0.3766 -0.1630 -0.3091
10457TIP3    H152862   3.780   5.269   0.700 -0.2761 -0.3412  0.1711
10457TIP3    H252863   3.698   5.351   0.797  0.4232 -0.1785  0.6253
10458TIP3   OH252864   4.372   2.684   4.163  0.2321  0.0031  0.4171
10458TIP3    H152865   4.426   2.606   4.157  1.2740  0.7747 -0.4481
10458TIP3    H252866   4.429   2.749   4.204 -0.4530  0.4721  0.6413
10459TIP3   OH252867   0.440   4.076  16.525 -0.5910  0.4179 -0.2051
10459TIP3    H152868   0.422   4.162  16.487 -0.4110 -0.3920 -2.2160
10459TIP3    H252869   0.517   4.089  16.580 -1.1137  1.7214  0.2331
10460TIP3   OH252870   2.758   3.140  16.036  0.2002  0.1330 -0.2944
10460TIP3    H152871   2.743   3.155  16.129 -2.3849 -0.7619 -0.5245
10460TIP3    H252872   2.748   3.227  15.996  0.0734  0.3061  0.1124
10461TIP3   OH252873   6.391   0.230  11.491  0.6205 -0.0501  0.0157
10461TIP3    H152874   6.357   0.196  11.408 -0.1980 -0.7127  0.6150
10461TIP3    H252875   6.482   0.200  11.493  0.3404 -0.9259 -0.1604
10462TIP3   OH252876   1.405   3.192  15.658 -0.0691  0.1803  0.0517
10462TIP3    H152877   1.451   3.211  15.740 -0.4532 -0.0565  0.3242
10462TIP3    H252878   1.342   3.263  15.649 -1.3832 -0.8211  0.9782
10463TIP3   OH252879   0.805   1.762   6.291 -0.8089  0.4257 -0.4260
10463TIP3    H152880   0.794   1.824   6.363 -0.5667  0.5579 -0.5032
10463TIP3    H252881   0.818   1.678   6.335 -1.9184  0.2964 -0.3315
10464TIP3   OH252882   1.890   0.557   5.002 -0.0250 -0.2888  0.2212
10464TIP3    H152883   1.869   0.588   5.090 -0.3040  0.8932 -0.2568
10464TIP3    H252884   1.970   0.506   5.013 -0.0234 -0.0923  1.1448
10465TIP3   OH252885   3.618   5.895  12.582  0.1009  0.1276  0.7008
10465TIP3    H152886   3.600   5.815  12.633  1.2572 -0.4902  0.1768
10465TIP3    H252887   3.532   5.931  12.561 -0.5273 -2.3520 -1.1950
10466TIP3   OH252888   4.592   5.098  14.189 -0.3264 -0.2727 -0.2490
10466TIP3    H152889   4.537   5.060  14.120 -0.7074 -0.3686  0.1036
10466TIP3    H252890   4.617   5.184  14.155  1.0403 -1.0637 -1.3174
10467TIP3   OH252891   3.920   4.013  13.749 -0.6404 -0.1285 -0.5572
10467TIP3    H152892   3.869   3.961  13.812 -0.0502 -0.0089  0.0274
10467TIP3    H252893   3.856   4.072  13.710 -0.5055  1.8911  2.0998
10468TIP3   OH252894   4.861   5.645  12.909  0.1644 -0.5290  0.2173
10468TIP3    H152895   4.842   5.637  13.003  0.5896 -1.6061  0.2183
10468TIP3    H252896   4.776   5.659  12.868 -0.2917 -2.2360  0.5442
10469TIP3   OH252897   6.250   1.982  15.502 -0.1982  0.2423 -0.9932
10469TIP3    H152898   6.216   1.987  15.412 -1.3013  1.1460 -0.5406
10469TIP3    H252899   6.345   1.988  15.492 -0.1820 -1.7400 -2.2413
10470TIP3   OH252900   1.074   1.521   6.200 -0.0369  0.4109  0.2264
10470TIP3    H152901   0.999   1.471   6.232  1.6375 -3.0924 -1.0156
10470TIP3    H252902   1.125   1.541   6.279 -1.0629  0.7007  0.8166
10471TIP3   OH252903   2.666   4.796   4.090  0.4417  0.5159  0.4301
10471TIP3    H152904   2.588   4.851   4.093 -0.4319 -0.7837  1.4910
10471TIP3    H252905   2.736   4.852   4.125 -0.3223  1.1395  0.9708
10472TIP3   OH252906   4.438   6.001   0.113  0.5104 -0.0770  0.0181
10472TIP3    H152907   4.472   5.925   0.065 -0.5360  1.4262 -3.2305
10472TIP3    H252908   4.352   5.972   0.145  1.7365 -1.5043  2.1270
10473TIP3   OH252909   2.198   3.720   1.887 -0.2265 -0.5095 -0.0158
10473TIP3    H152910   2.196   3.762   1.801 -0.0024  1.6696  1.0129
10473TIP3    H252911   2.108   3.691   1.902 -0.7143  0.9446 -0.1137
10474TIP3   OH252912   6.075   5.631  12.691 -0.1647 -0.2859  0.7465
10474TIP3    H152913   6.054   5.722  12.671 -0.6165 -0.3522  0.9075
10474TIP3    H252914   6.021   5.580  12.631  1.1115 -0.4374 -0.3062
10475TIP3   OH252915   1.644   6.364  11.445  0.6856 -0.2203  0.8190
10475TIP3    H152916   1.710   6.406  11.391 -0.1597 -0.9403 -0.8202
10475TIP3    H252917   1.574   6.429  11.454 -1.4123 -1.7371 -3.1707
10476TIP3   OH252918   0.483   6.564  16.443 -0.5688 -1.0377  0.8494
10476TIP3    H152919   0.563   6.604  16.476  0.4902 -0.9563 -1.7291
10476TIP3    H252920   0.481   6.587  16.350 -2.5885 -2.6660  0.4543
10477TIP3   OH252921   0.905   5.823  13.371 -0.2911  0.6044  0.1396
10477TIP3    H152922   0.929   5.823  13.464 -0.5888  3.0275  0.2432
10477TIP3    H252923   0.989   5.830  13.325 -0.2367  0.8816  0.2776
10478TIP3   OH252924   4.148   6.152  14.196 -0.1604  0.1639  0.0164
10478TIP3    H152925   4.235   6.113  14.195  0.1190  0.8110 -1.2095
10478TIP3    H252926   4.160   6.240  14.160 -0.9766  0.9948  1.7054
10479TIP3   OH252927   2.833   3.196   0.701 -0.1517  0.4718 -0.0869
10479TIP3    H152928   2.833   3.283   0.660 -0.1025 -0.0629 -1.2430
10479TIP3    H252929   2.810   3.213   0.792  2.1738  1.9565  0.2806
10480TIP3   OH252930   6.485   6.292   1.460  0.5967 -1.0484 -0.1330
10480TIP3    H152931   6.490   6.205   1.420  1.7114 -1.5486  1.0632
10480TIP3    H252932   6.554   6.342   1.417 -2.0630  0.2317 -3.0858
10481TIP3   OH252933   4.479   5.842  13.285  0.1858  0.1818  0.1026
10481TIP3    H152934   4.525   5.847  13.369 -0.1921  1.8340  0.2252
10481TIP3    H252935   4.545   5.864  13.220  0.2078 -0.0397  0.0486
10482TIP3   OH252936   2.590   1.257  15.100 -0.1207  0.3586 -0.6782
10482TIP3    H152937   2.589   1.167  15.066  1.0113  0.5066 -1.1230
10482TIP3    H252938   2.682   1.275  15.120 -0.2767  1.5531 -0.9661
10483TIP3   OH252939   4.100   1.355   0.347  0.4593  0.2537  0.1839
10483TIP3    H152940   4.126   1.370   0.256  0.2951  0.1449  0.1192
10483TIP3    H252941   4.181   1.326   0.390  0.1876 -1.2953 -0.3041
10484TIP3   OH252942   0.882   4.121  14.303 -0.2174 -0.2116  0.2770
10484TIP3    H152943   0.919   4.118  14.391  1.0147  1.1123 -0.1768
10484TIP3    H252944   0.814   4.189  14.308  0.3635  0.3960  0.0322
10485TIP3   OH252945   4.318   3.929   6.592  0.1763  0.0439 -0.8418
10485TIP3    H152946   4.315   4.021   6.566  2.2298  0.6932  0.9777
10485TIP3    H252947   4.412   3.910   6.598 -0.2437 -2.1475 -1.1356
10486TIP3   OH252948   6.279   4.129   3.745 -0.9871 -0.2265 -0.4887
10486TIP3    H152949   6.290   4.222   3.768 -3.4219 -0.3191  1.2157
10486TIP3    H252950   6.368   4.099   3.724  0.1472  1.9642  0.9401
10487TIP3   OH252951   6.723   2.822  12.955  0.2967  0.0398  0.4283
10487TIP3    H152952   6.704   2.822  13.048 -1.2156 -2.9012  0.1966
10487TIP3    H252953   6.744   2.730  12.935 -0.4991  0.4076 -2.3095
10488TIP3   OH252954   3.623   1.427   5.536  0.2572 -0.3494 -0.1404
10488TIP3    H152955   3.603   1.410   5.628 -0.4900  1.3116  0.0120
10488TIP3    H252956   3.629   1.522   5.529  0.1339 -0.4443 -1.8361
10489TIP3   OH252957   0.595   6.635  14.348  0.3762 -0.1580  0.3959
10489TIP3    H152958   0.567   6.705  14.406 -1.1112 -0.5838  0.2248
10489TIP3    H252959   0.605   6.676  14.263  0.3859  0.0185  0.4841
10490TIP3   OH252960   5.926   4.963  12.998  0.1761 -0.1468  0.2513
10490TIP3    H152961   5.987   5.022  12.954 -0.3755 -0.8001 -1.4248
10490TIP3    H252962   5.949   4.969  13.091 -0.2931  3.1585  0.1858
10491TIP3   OH252963   5.368   6.089  16.513  0.1577  0.4038 -0.5238
10491TIP3    H152964   5.369   6.097  16.418  2.7932 -2.7113 -0.8672
10491TIP3    H252965   5.438   6.147  16.543  0.2903  0.3024 -0.6341
10492TIP3   OH252966   5.099   4.465  15.909  0.3125 -0.4627 -0.3965
10492TIP3    H152967   5.153   4.507  15.842 -0.4851  0.1740 -0.6563
10492TIP3    H252968   5.083   4.535  15.974 -0.9669 -0.3657 -0.7971
10493TIP3   OH252969   4.302   1.048   2.584 -0.0042  0.1380 -0.3490
10493TIP3    H152970   4.341   1.038   2.497 -0.1222 -1.2775 -0.2438
10493TIP3    H252971   4.307   1.142   2.602  1.5400  0.2270 -1.1774
10494TIP3   OH252972   3.549   3.734  13.602  0.2502  0.2107 -0.3549
10494TIP3    H152973   3.531   3.780  13.520  0.3286  0.4927 -0.2160
10494TIP3    H252974   3.639   3.757  13.623 -0.3037  1.5031  0.6755
10495TIP3   OH252975   4.990   2.868   1.205 -0.2942  0.9221  0.0066
10495TIP3    H152976   5.062   2.819   1.245  1.0997  1.6601 -1.5071
10495TIP3    H252977   4.933   2.802   1.168 -0.6375  0.3058  1.5943
10496TIP3   OH252978   1.210   6.449  17.133  0.3380  0.2975 -0.4628
10496TIP3    H152979   1.226   6.364  17.093  0.5838  0.2673 -0.3088
10496TIP3    H252980   1.247   6.513  17.071  1.6387  0.1925  0.1775
10497TIP3   OH252981   0.128   6.073   4.875  0.4720  0.4394 -0.2349
10497TIP3    H152982   0.118   6.030   4.790 -2.0285 -1.5393  1.0069
10497TIP3    H252983   0.153   6.163   4.853 -2.8504  0.7627 -3.2521
10498TIP3   OH252984   2.139   1.847   5.224  0.6237  0.7147  0.5130
10498TIP3    H152985   2.159   1.929   5.180 -0.9058  1.2707  0.8134
10498TIP3    H252986   2.198   1.844   5.299  2.0815  0.5598 -0.6138
10499TIP3   OH252987   2.728   4.098  15.633  0.4258 -0.2317 -0.0196
10499TIP3    H152988   2.673   4.177  15.628  0.6094 -0.0949  0.1087
10499TIP3    H252989   2.716   4.056  15.548  0.3666 -0.0376 -0.1082
10500TIP3   OH252990   2.965   1.447  14.809 -0.6455 -0.3137 -0.2847
10500TIP3    H152991   3.020   1.418  14.883  0.8471 -0.2575 -1.3419
10500TIP3    H252992   2.877   1.421  14.833  0.1958 -2.7149  0.3232
10501TIP3   OH252993   2.711   1.728  16.126  0.1147 -0.2152  0.4404
10501TIP3    H152994   2.640   1.778  16.086 -0.8649 -0.8764  1.3306
10501TIP3    H252995   2.668   1.669  16.188  1.5327  0.3321  2.0110
10502TIP3   OH252996   0.951   6.685  14.958 -0.7444 -0.0125 -0.3184
10502TIP3    H152997   0.856   6.674  14.966 -0.7027 -0.3557 -0.2897
10502TIP3    H252998   0.973   6.755  15.020 -0.7914 -0.8433  0.6495
10503TIP3   OH252999   5.287   3.078   1.176 -0.1833 -0.3653  0.0009
10503TIP3    H153000   5.250   3.017   1.112 -1.2827 -1.0021  1.2161
10503TIP3    H253001   5.227   3.152   1.176  0.7848  0.4548 -0.9738
10504TIP3   OH253002   5.267   1.187  14.648  0.1928 -0.7070 -0.3387
10504TIP3    H153003   5.296   1.118  14.589  2.1331 -1.1478  1.1031
10504TIP3    H253004   5.195   1.230  14.601  0.5587 -2.1472 -2.2644
10505TIP3   OH253005   4.350   1.330   1.055  0.5121 -0.0737 -0.1713
10505TIP3    H153006   4.326   1.247   1.013  0.7082 -0.2217  0.0042
10505TIP3    H253007   4.328   1.397   0.990  1.3158 -0.3417 -0.7300
10506TIP3   OH253008   2.735   5.584  12.470  0.0908 -0.1239 -0.4249
10506TIP3    H153009   2.717   5.629  12.387  0.0672  0.0347 -0.3342
10506TIP3    H253010   2.806   5.634  12.509 -0.2903  0.1485 -0.0771
10507TIP3   OH253011   6.161   0.850  14.086 -0.3342  0.2461  0.3293
10507TIP3    H153012   6.140   0.922  14.145 -0.8262  1.6458 -1.5046
10507TIP3    H253013   6.252   0.866  14.061  0.1102 -0.7567  1.2441
10508TIP3   OH253014   5.349   0.768   1.692  0.0893  0.1110  0.3488
10508TIP3    H153015   5.263   0.781   1.653  0.4070  0.5485 -0.2118
10508TIP3    H253016   5.403   0.839   1.657  0.7446 -0.3021  0.5026
10509TIP3   OH253017   3.182   2.913  13.799  0.1868 -0.2438 -0.5233
10509TIP3    H153018   3.223   2.869  13.724  1.3126 -0.1836  0.0483
10509TIP3    H253019   3.137   2.843  13.846  0.5618 -0.5061 -0.5490
10510TIP3   OH253020   2.781   0.370   2.711  0.1891 -0.4956 -1.2015
10510TIP3    H153021   2.705   0.356   2.655  0.4624 -1.9768 -1.2381
10510TIP3    H253022   2.830   0.440   2.668 -1.2720  0.6753 -1.0215
10511TIP3   OH253023   3.419   5.738   3.645  0.1846 -0.0314 -1.0677
10511TIP3    H153024   3.451   5.657   3.605 -0.9575  0.2299 -2.5386
10511TIP3    H253025   3.495   5.796   3.646  1.0922 -1.1918  0.2534
10512TIP3   OH253026   6.184   6.066  13.246 -0.0985  0.8727 -0.7089
10512TIP3    H153027   6.145   6.154  13.248 -1.4354  0.3196 -1.8685
10512TIP3    H253028   6.128   6.014  13.303  0.2343  0.5801 -0.6477
10513TIP3   OH253029   5.457   0.891  17.094 -0.3718  0.4475 -0.3257
10513TIP3    H153030   5.433   0.907  17.185  1.0593  1.6102 -0.1273
10513TIP3    H253031   5.531   0.950  17.078 -0.9978  0.7168 -2.4209
10514TIP3   OH253032   6.785   2.125  14.228 -0.6328  0.4707  0.3048
10514TIP3    H153033   6.832   2.180  14.166 -0.2708 -1.4845 -1.2239
10514TIP3    H253034   6.710   2.091  14.178  0.3544 -2.1307  0.5174
10515TIP3   OH253035   0.853   1.493   2.112 -0.0821 -0.2516  0.2357
10515TIP3    H153036   0.920   1.476   2.046 -0.0424 -0.0173  0.2164
10515TIP3    H253037   0.820   1.406   2.135 -0.8157 -0.2620 -0.8435
10516TIP3   OH253038   3.649   5.995  11.444 -0.3000  0.4729  0.7109
10516TIP3    H153039   3.595   6.067  11.413 -0.3684 -0.4787 -1.4648
10516TIP3    H253040   3.592   5.947  11.504 -1.0735  0.8508  0.2853
10517TIP3   OH253041   1.162   2.176   3.325  0.1028 -0.5899  0.3349
10517TIP3    H153042   1.148   2.161   3.232  1.3562  1.2204 -0.1876
10517TIP3    H253043   1.207   2.261   3.329 -0.0941 -0.5528  2.5907
10518TIP3   OH253044   4.426   0.301   2.456  0.0807  0.2709 -0.2669
10518TIP3    H153045   4.376   0.382   2.448  0.0237  0.2794  0.1642
10518TIP3    H253046   4.516   0.326   2.436  0.2242  0.6374  0.8118
10519TIP3   OH253047   3.604   1.319  15.136  0.2289 -0.0014  0.2549
10519TIP3    H153048   3.643   1.302  15.051 -1.3005  0.4605 -0.5722
10519TIP3    H253049   3.608   1.236  15.182  1.0593 -0.2580 -0.2800
10520TIP3   OH253050   1.133   3.626  13.751 -0.4395  0.6295  0.0970
10520TIP3    H153051   1.194   3.552  13.754 -0.4801  0.6209  0.8253
10520TIP3    H253052   1.115   3.646  13.843 -2.4344 -0.1081 -0.1307
10521TIP3   OH253053   1.059   1.832  11.273  0.0858 -0.0250 -0.0067
10521TIP3    H153054   1.084   1.921  11.300 -0.6479  1.1341 -2.9634
10521TIP3    H253055   0.964   1.837  11.261  0.3655 -0.4951 -2.6202
10522TIP3   OH253056   0.517   0.101  16.331  0.2128  0.8986  0.3176
10522TIP3    H153057   0.475   0.158  16.267 -1.8122 -0.3733  0.4669
10522TIP3    H253058   0.509   0.013  16.294  1.6955  0.4833  0.9303
10523TIP3   OH253059   5.809   5.235  11.946 -0.1923  0.4419 -0.2517
10523TIP3    H153060   5.781   5.177  12.017  0.4705 -0.0789 -0.4111
10523TIP3    H253061   5.747   5.219  11.875 -0.0506 -0.0295 -0.2717
10524TIP3   OH253062   1.850   1.406  11.297  0.8655 -0.1006  0.6105
10524TIP3    H153063   1.851   1.321  11.341 -0.0706  0.1330  1.0866
10524TIP3    H253064   1.830   1.386  11.206  0.6335 -0.3905  0.7243
10525TIP3   OH253065   0.775   1.405   2.811 -0.1487  0.1267 -0.1426
10525TIP3    H153066   0.813   1.486   2.777  1.5516 -1.3552 -1.8976
10525TIP3    H253067   0.842   1.370   2.870 -1.1575  0.3256  1.1310
10526TIP3   OH253068   4.325   5.095  12.922 -0.5121  0.1522 -0.3251
10526TIP3    H153069   4.419   5.089  12.937 -0.5920 -0.0831  0.0949
10526TIP3    H253070   4.312   5.183  12.888 -0.4609  1.1643  2.1282
10527TIP3   OH253071   4.928   1.384  15.587  0.4002 -0.2853  0.0897
10527TIP3    H153072   4.871   1.380  15.510  1.0455 -0.6367 -0.3782
10527TIP3    H253073   4.870   1.369  15.661  0.3458 -4.0563 -0.5810
10528TIP3   OH253074   0.566   4.288  14.901  0.2526 -0.1319 -0.2793
10528TIP3    H153075   0.653   4.293  14.941 -0.5255  1.5393  1.2825
10528TIP3    H253076   0.571   4.349  14.827  0.3277  0.2214  0.0114
10529TIP3   OH253077   0.499   3.010   0.393 -0.0679  0.1690  0.0209
10529TIP3    H153078   0.446   3.071   0.444 -0.4159  0.2278 -0.4099
10529TIP3    H253079   0.579   3.060   0.373 -0.3920  0.5276 -0.4130
10530TIP3   OH253080   3.606   3.153   5.999 -0.6881 -0.6066 -0.2157
10530TIP3    H153081   3.547   3.136   5.926  0.3618 -0.6703 -1.0571
10530TIP3    H253082   3.637   3.067   6.026 -0.6349 -0.5410 -0.0647
10531TIP3   OH253083   2.071   0.423   3.470 -0.3231  0.5395  0.2870
10531TIP3    H153084   2.054   0.359   3.539  1.2665 -0.1253  0.0802
10531TIP3    H253085   2.080   0.507   3.516  0.8642  0.0774  0.9167
10532TIP3   OH253086   6.527   3.193  17.140  0.5808 -0.3128  0.1927
10532TIP3    H153087   6.562   3.106  17.154  1.2901  0.1834  1.4992
10532TIP3    H253088   6.491   3.190  17.051 -0.4535 -2.2822  0.6560
10533TIP3   OH253089   3.969   2.545   4.119 -0.7756  0.5749 -0.1961
10533TIP3    H153090   3.972   2.626   4.170 -2.1217 -0.3824  1.4757
10533TIP3    H253091   4.017   2.565   4.039 -0.1374  2.6769  0.6757
10534TIP3   OH253092   2.803   2.842   6.481  0.3367  0.3832  0.0869
10534TIP3    H153093   2.840   2.755   6.498  1.3884  0.7379 -0.3904
10534TIP3    H253094   2.716   2.839   6.522  0.0203 -1.1793 -0.6747
10535TIP3   OH253095   0.951   2.541  12.231 -0.1302  0.1572  0.5136
10535TIP3    H153096   1.027   2.488  12.206 -2.5750 -3.3445  0.1894
10535TIP3    H253097   0.975   2.580  12.315  2.5955  0.3819 -0.3213
10536TIP3   OH253098   5.815   4.394   2.243 -0.2177 -0.0126  0.3235
10536TIP3    H153099   5.790   4.475   2.288 -0.6695 -0.2515  0.5118
10536TIP3    H253100   5.900   4.413   2.205 -1.2309  1.2778 -1.4076
10537TIP3   OH253101   5.207   0.914   3.662 -0.1369 -0.4671 -0.0544
10537TIP3    H153102   5.290   0.935   3.705 -0.5191  3.1969 -0.9090
10537TIP3    H253103   5.190   0.989   3.605 -4.1837 -0.9839  0.3058
10538TIP3   OH253104   5.819   4.762  16.118 -0.1891  0.0018  0.3781
10538TIP3    H153105   5.861   4.794  16.198 -0.0244 -0.3794  0.4469
10538TIP3    H253106   5.862   4.810  16.047 -1.4628  1.5362  0.6231
10539TIP3   OH253107   3.700   6.083  17.059  0.4736  0.0785  0.4256
10539TIP3    H153108   3.661   6.112  16.976  2.7952  0.0216 -0.7100
10539TIP3    H253109   3.686   5.989  17.060 -2.0354  0.4327  1.4426
10540TIP3   OH253110   2.204   4.674   6.266 -0.1821 -0.1752  0.3536
10540TIP3    H153111   2.119   4.696   6.227 -0.4178  0.3829  1.1643
10540TIP3    H253112   2.182   4.645   6.355  0.2999 -1.9003 -0.0740
10541TIP3   OH253113   3.172   1.626   5.491 -0.0921 -0.1032  0.8173
10541TIP3    H153114   3.259   1.665   5.506 -0.0860  0.4317 -0.5453
10541TIP3    H253115   3.189   1.532   5.484 -0.0286 -0.3379  3.5685
10542TIP3   OH253116   1.986   0.923   4.164 -0.2704  0.2530 -0.4669
10542TIP3    H153117   1.977   0.842   4.213  0.9862 -0.0584 -0.7414
10542TIP3    H253118   1.898   0.963   4.167 -0.6873 -0.7138  0.3389
10543TIP3   OH253119   1.381   1.526  15.743  0.1186 -0.0903  0.0822
10543TIP3    H153120   1.363   1.484  15.658  1.4194 -1.5974  0.5095
10543TIP3    H253121   1.299   1.568  15.767 -1.2078 -2.2921 -0.4688
10544TIP3   OH253122   3.127   0.257  12.037 -0.1022  0.2319  0.3621
10544TIP3    H153123   3.081   0.325  12.087 -0.9152  0.5032 -0.7267
10544TIP3    H253124   3.192   0.305  11.985 -0.2547  0.1173  0.0616
10545TIP3   OH253125   0.385   4.308   5.496 -0.2320 -0.1640 -0.0211
10545TIP3    H153126   0.437   4.367   5.441 -0.8375 -0.3748 -0.8109
10545TIP3    H253127   0.301   4.352   5.507  0.0374  0.0851  1.1060
10546TIP3   OH253128   1.822   3.656  13.129  0.2511  0.2820 -0.3943
10546TIP3    H153129   1.817   3.650  13.224  5.1929  0.8859  0.0077
10546TIP3    H253130   1.884   3.588  13.103 -1.3417 -0.1810 -3.2732
10547TIP3   OH253131   3.293   6.203   0.817 -0.1998 -0.4961 -0.2034
10547TIP3    H153132   3.249   6.274   0.863 -0.2623  0.5140 -1.7747
10547TIP3    H253133   3.337   6.153   0.886 -0.3238  0.9450  0.9490
10548TIP3   OH253134   0.483   0.362  10.452  0.0022  0.5496 -0.1807
10548TIP3    H153135   0.567   0.357  10.407 -0.6909  0.4969 -1.4911
10548TIP3    H253136   0.503   0.405  10.535  1.5607 -0.7685  0.1468
10549TIP3   OH253137   2.210   6.648  14.551  0.0773 -0.2631  0.4081
10549TIP3    H153138   2.183   6.738  14.533  1.9453  0.6048  1.8467
10549TIP3    H253139   2.255   6.620  14.471  0.3741  0.4202  0.3357
10550TIP3   OH253140   4.372   3.384   0.992 -0.4602 -0.4267 -0.1647
10550TIP3    H153141   4.316   3.418   1.062 -0.3894 -0.2828 -0.1785
10550TIP3    H253142   4.320   3.315   0.951 -0.0923 -1.2201  0.6990
10551TIP3   OH253143   2.881   2.732   2.934  0.2913 -0.8909 -0.4129
10551TIP3    H153144   2.859   2.673   3.006 -1.4120 -0.5849 -0.6567
10551TIP3    H253145   2.964   2.772   2.960 -0.5705 -0.3793  1.6562
10552TIP3   OH253146   0.764   0.780  13.151 -0.3091  0.0791  0.5452
10552TIP3    H153147   0.807   0.806  13.069 -1.7398  0.7108 -0.0142
10552TIP3    H253148   0.780   0.854  13.210  1.4736 -0.7524  1.1338
10553TIP3   OH253149   0.184   2.080   3.892 -0.0500 -0.6290  0.1008
10553TIP3    H153150   0.259   2.094   3.835 -0.0312 -0.8487  0.0717
10553TIP3    H253151   0.116   2.043   3.834 -0.1927 -0.3949  0.1178
10554TIP3   OH253152   1.917   1.435  15.331  0.3154  0.1015 -0.3467
10554TIP3    H153153   1.995   1.487  15.315  0.8800 -0.4115  0.7198
10554TIP3    H253154   1.949   1.353  15.368 -0.5549 -1.0677 -2.1164
10555TIP3   OH253155   6.094   1.206  14.584 -0.0213 -0.2143  0.1022
10555TIP3    H153156   6.023   1.267  14.606  1.7853  2.0042 -0.0354
10555TIP3    H253157   6.138   1.188  14.667  0.4097 -0.0990 -0.1006
10556TIP3   OH253158   1.775   0.607   5.957 -0.3403 -0.3596 -0.1522
10556TIP3    H153159   1.714   0.577   5.890 -1.6676  0.5201  0.6251
10556TIP3    H253160   1.786   0.532   6.014 -0.1948 -0.7256 -0.6617
10557TIP3   OH253161   5.546   0.712   0.738  0.0044  0.4635  0.3445
10557TIP3    H153162   5.503   0.712   0.823  0.5156  0.8652  0.6103
10557TIP3    H253163   5.630   0.668   0.753  0.8084  1.9772  0.4337
10558TIP3   OH253164   2.700   6.070  12.285  0.3568 -0.0455 -0.1475
10558TIP3    H153165   2.668   6.022  12.209  1.9228  1.5244 -1.8650
10558TIP3    H253166   2.723   6.156  12.251  3.0378  0.0388  1.6676
10559TIP3   OH253167   0.099   3.771   0.638 -0.2381 -0.5124 -0.2583
10559TIP3    H153168   0.153   3.828   0.583  0.0885 -1.8717 -1.3914
10559TIP3    H253169   0.156   3.746   0.710  0.0072 -0.3844 -0.4072
10560TIP3   OH253170   6.430   3.312   3.265 -0.1908  0.4344 -0.1617
10560TIP3    H153171   6.374   3.284   3.193  1.6685  0.1446 -1.5494
10560TIP3    H253172   6.443   3.233   3.318  0.1687  0.1352 -0.6988
10561TIP3   OH253173   1.127   1.318   5.196  0.6045 -0.0019  0.5027
10561TIP3    H153174   1.128   1.271   5.113 -0.6300 -0.0166  0.4808
10561TIP3    H253175   1.063   1.388   5.183  0.8643  0.3761  1.2332
10562TIP3   OH253176   5.360   5.933   1.131  0.3384 -0.1330 -0.2126
10562TIP3    H153177   5.401   5.896   1.052  0.1301 -1.1313  0.1393
10562TIP3    H253178   5.269   5.948   1.106 -0.7032 -3.9761  0.9285
10563TIP3   OH253179   6.574   4.052   5.473  0.0969 -0.2385 -0.2415
10563TIP3    H153180   6.505   3.992   5.501  0.2221 -1.2926 -2.1133
10563TIP3    H253181   6.653   4.017   5.515 -0.4593  0.9630  1.8950
10564TIP3   OH253182   5.332   4.457   2.198 -0.6874  0.3430  0.2113
10564TIP3    H153183   5.335   4.419   2.110 -0.9798 -0.7356  0.6574
10564TIP3    H253184   5.239   4.452   2.222 -0.4120 -0.5746  1.0981
10565TIP3   OH253185   0.386   6.198  12.846  0.4921 -0.0776  0.4914
10565TIP3    H153186   0.306   6.147  12.858  0.0165  0.3441 -0.8136
10565TIP3    H253187   0.357   6.279  12.805  1.3092  1.0410  2.0627
10566TIP3   OH253188   0.987   5.378   0.228 -0.0265 -0.3751 -0.4179
10566TIP3    H153189   1.036   5.415   0.301  1.6268 -1.0465 -1.1615
10566TIP3    H253190   0.945   5.453   0.186 -1.0751  0.0042  1.2521
10567TIP3   OH253191   6.557   1.945  11.843  0.1682  0.3106  0.6133
10567TIP3    H153192   6.547   1.879  11.911  1.9803 -0.0161  0.5804
10567TIP3    H253193   6.639   1.922  11.799 -0.1793  1.4380 -0.6555
10568TIP3   OH253194   5.914   3.268  15.523  0.1106  1.3126 -0.5268
10568TIP3    H153195   6.007   3.274  15.503  0.0377 -0.5622 -1.4939
10568TIP3    H253196   5.900   3.331  15.594  2.2712  0.9447  0.2362
10569TIP3   OH253197   2.905   4.941   5.271  0.3353  0.2948 -0.1926
10569TIP3    H153198   2.863   4.894   5.199  0.1064  0.9533 -0.4925
10569TIP3    H253199   2.841   4.937   5.342  0.0588  0.6852 -0.4186
10570TIP3   OH253200   4.648   5.676   1.964 -0.0138 -0.0045 -0.2220
10570TIP3    H153201   4.634   5.581   1.972 -1.3325  0.3192  1.8324
10570TIP3    H253202   4.721   5.694   2.024  1.8137 -0.0304 -2.3811
10571TIP3   OH253203   0.549   2.712   0.438  0.3968  0.4649 -0.5481
10571TIP3    H153204   0.529   2.803   0.417  1.1665 -0.0960 -3.8408
10571TIP3    H253205   0.482   2.688   0.502 -2.0425  2.2764 -2.3154
10572TIP3   OH253206   0.436   1.267  14.709  0.0186  0.4997  0.2458
10572TIP3    H153207   0.441   1.254  14.804  0.8025  0.6386  0.2262
10572TIP3    H253208   0.415   1.360  14.699  0.9312  0.7076  0.2649
10573TIP3   OH253209   1.523   5.948  14.029  0.3018  0.2035  0.0735
10573TIP3    H153210   1.514   5.878  14.093  2.7791  0.0467  0.2875
10573TIP3    H253211   1.473   5.919  13.953  0.6352 -1.4112  0.4670
10574TIP3   OH253212   1.007   5.628   1.664  0.4218 -0.2888  0.0051
10574TIP3    H153213   1.026   5.601   1.753  0.8661  0.6984  0.2075
10574TIP3    H253214   0.917   5.660   1.667  0.4916 -0.1080  0.1279
10575TIP3   OH253215   3.988   0.899  16.855  0.2812 -1.1684 -0.5695
10575TIP3    H153216   3.928   0.949  16.911 -0.9033 -1.3384 -1.6736
10575TIP3    H253217   4.040   0.846  16.917 -0.9781 -1.3247  0.3752
10576TIP3   OH253218   0.060   4.036   5.049 -0.2346 -0.0253 -0.1922
10576TIP3    H153219  -0.007   3.977   5.082 -0.9994 -0.0254 -1.6896
10576TIP3    H253220   0.017   4.121   5.045  0.0970  0.1334 -0.4279
10577TIP3   OH253221   1.923   1.779  16.481  0.0954  0.0663  0.0276
10577TIP3    H153222   1.832   1.772  16.452  0.6136 -0.7120 -1.4342
10577TIP3    H253223   1.926   1.861  16.530 -1.3899  0.1111  0.0650
10578TIP3   OH253224   3.423   5.463  14.745 -0.3164  0.0037 -0.2721
10578TIP3    H153225   3.374   5.382  14.758  1.9814 -1.5362 -0.9277
10578TIP3    H253226   3.450   5.461  14.653  1.8838  0.2577  0.3262
10579TIP3   OH253227   4.427   0.746  13.560 -0.0202 -0.2978 -0.2478
10579TIP3    H153228   4.508   0.708  13.524  0.5804  0.6209  0.1132
10579TIP3    H253229   4.429   0.725  13.653 -0.2177 -0.3161 -0.2463
10580TIP3   OH253230   2.660   3.698  10.992  0.0854  0.0947 -0.4051
10580TIP3    H153231   2.604   3.686  10.915 -0.9956 -0.7618  0.4920
10580TIP3    H253232   2.748   3.706  10.956 -0.4351  0.0492 -1.7549
10581TIP3   OH253233   2.489   2.261  15.627 -0.7088 -0.6639  0.1178
10581TIP3    H153234   2.574   2.232  15.593 -0.2703  2.6816 -1.8850
10581TIP3    H253235   2.428   2.248  15.554 -1.8452 -2.4500  1.3375
10582TIP3   OH253236   5.683   2.064  12.064  0.1420  0.1490  0.2926
10582TIP3    H153237   5.652   2.102  12.146 -1.0026  1.3344 -0.6866
10582TIP3    H253238   5.642   2.116  11.995  1.5132 -0.4923 -1.0494
10583TIP3   OH253239   0.102   1.525  16.652  0.2943 -0.4438 -0.0343
10583TIP3    H153240   0.112   1.550  16.744 -2.5762  0.0151  0.1996
10583TIP3    H253241   0.163   1.582  16.605 -0.6414  1.6965  1.2724
10584TIP3   OH253242   3.608   6.300  11.455 -0.2404  0.4942 -0.1021
10584TIP3    H153243   3.566   6.329  11.374  0.1254  2.2422  0.2980
10584TIP3    H253244   3.686   6.355  11.462 -1.0527  1.4372  2.1761
10585TIP3   OH253245   4.377   1.101   5.920  0.3679  0.2101  0.3296
10585TIP3    H153246   4.414   1.068   5.838 -0.3881  1.9628 -0.7379
10585TIP3    H253247   4.385   1.027   5.981  1.0608 -1.0713 -1.2734
10586TIP3   OH253248   6.164   6.412  15.292 -0.2755 -0.2303 -0.1536
10586TIP3    H153249   6.137   6.334  15.339 -0.9440  0.2201  0.2118
10586TIP3    H253250   6.118   6.407  15.208 -0.1269 -0.3528 -0.2283
10587TIP3   OH253251   0.813   0.618  14.646  0.4783  0.2079  0.0028
10587TIP3    H153252   0.887   0.571  14.609  1.3018  0.3734  1.3963
10587TIP3    H253253   0.743   0.552  14.652  1.1114 -0.4350  0.4404
10588TIP3   OH253254   1.329   6.151   5.122 -0.5654 -0.3565  0.1754
10588TIP3    H153255   1.287   6.095   5.187  0.8418  0.6897  2.0071
10588TIP3    H253256   1.361   6.226   5.171 -0.9420  1.2803 -1.9868
10589TIP3   OH253257   5.746   3.950  15.249 -0.1017  0.7274  0.2452
10589TIP3    H153258   5.793   3.925  15.329  0.5404 -0.1872 -0.4155
10589TIP3    H253259   5.689   3.876  15.231  0.9715  0.2132 -1.0820
10590TIP3   OH253260   2.622   1.943   0.834  0.2801 -0.2320  0.1830
10590TIP3    H153261   2.621   1.936   0.738  0.1273 -2.2566  0.3115
10590TIP3    H253262   2.631   1.853   0.864  1.1227  0.4681  2.0766
10591TIP3   OH253263   0.658   4.338   6.234  0.1932  0.0505  0.8050
10591TIP3    H153264   0.711   4.413   6.207 -0.7010  0.1136 -0.8413
10591TIP3    H253265   0.693   4.265   6.184 -1.4256  0.1454 -0.5126
10592TIP3   OH253266   6.595   6.454  14.906  0.3393  0.5887  0.0340
10592TIP3    H153267   6.516   6.508  14.897  0.0542  0.2978  0.7523
10592TIP3    H253268   6.565   6.377  14.954  0.9351  0.1965 -0.2294
10593TIP3   OH253269   5.960   2.456   6.166  0.2428 -0.7199 -0.4206
10593TIP3    H153270   6.037   2.502   6.130  1.0804 -1.3369  0.5568
10593TIP3    H253271   5.946   2.496   6.252 -0.3885 -0.7796 -0.4920
10594TIP3   OH253272   5.465   3.190   0.533 -0.4273 -0.5964 -0.8599
10594TIP3    H153273   5.377   3.198   0.568  0.3585  0.0562  1.0594
10594TIP3    H253274   5.455   3.202   0.438 -2.3583 -0.4383 -0.6524
10595TIP3   OH253275   3.132   2.515   5.296  0.6332 -0.6243  0.1960
10595TIP3    H153276   3.139   2.609   5.311  2.0154 -0.7988  0.7056
10595TIP3    H253277   3.038   2.497   5.300  0.4439  0.5323  1.4131
10596TIP3   OH253278   2.437   1.904   2.459  0.4676  0.0788 -0.4571
10596TIP3    H153279   2.427   1.816   2.495 -0.6582 -0.3235 -1.7240
10596TIP3    H253280   2.430   1.962   2.535  0.8003 -0.8864  0.3228
10597TIP3   OH253281   5.842   1.940  14.078  0.7249  0.4815 -1.0189
10597TIP3    H153282   5.829   1.859  14.028 -0.0567  0.0268 -0.0867
10597TIP3    H253283   5.814   2.010  14.018 -1.0811 -0.1257 -0.9261
10598TIP3   OH253284   5.557   4.248   4.811  0.2331 -0.3009 -0.2344
10598TIP3    H153285   5.524   4.259   4.900 -1.5505  0.5887 -0.9829
10598TIP3    H253286   5.510   4.171   4.778 -0.9758  0.8314 -1.2207
10599TIP3   OH253287   2.754   5.948   2.847  0.0309  0.0104 -0.6867
10599TIP3    H153288   2.762   5.853   2.846  0.9381  0.0048  1.5338
10599TIP3    H253289   2.795   5.977   2.766  0.5566 -1.4671 -0.9622
10600TIP3   OH253290   2.274   5.491  16.973 -0.0433  0.2978  0.0579
10600TIP3    H153291   2.292   5.437  16.896 -1.2873  1.1518 -0.8545
10600TIP3    H253292   2.199   5.449  17.015  0.5422 -0.0820  0.7254
10601TIP3   OH253293   2.601   5.918   1.438  0.5875  0.4398 -0.1758
10601TIP3    H153294   2.675   5.880   1.486  0.4571 -0.1830 -0.4598
10601TIP3    H253295   2.631   6.005   1.412  0.0737  1.4031  2.4056
10602TIP3   OH253296   3.797   1.220   0.100 -0.1008 -0.3994  0.5729
10602TIP3    H153297   3.866   1.270   0.057  1.1129 -0.5901  2.2884
10602TIP3    H253298   3.818   1.224   0.193 -2.1448 -0.8529  1.0809
10603TIP3   OH253299   1.827   6.100   3.180  0.6288  0.2960  0.2687
10603TIP3    H153300   1.913   6.058   3.191  0.1650 -0.8221 -0.2889
10603TIP3    H253301   1.765   6.027   3.179 -0.3758  1.1232  1.0309
10604TIP3   OH253302   6.307   4.396   3.944 -0.1034  0.0935 -0.1099
10604TIP3    H153303   6.399   4.371   3.934  0.1547  1.0430 -0.1207
10604TIP3    H253304   6.309   4.490   3.961 -1.0200 -0.0569  0.8815
10605TIP3   OH253305   0.916   3.822  14.735 -0.0408  0.4358 -0.3829
10605TIP3    H153306   1.003   3.859  14.719  0.0474  1.0226  1.3455
10605TIP3    H253307   0.863   3.851  14.661  0.8115  1.4732 -0.5916
10606TIP3   OH253308   6.375   0.532  15.565  0.5312  0.8638  0.3468
10606TIP3    H153309   6.381   0.437  15.555 -0.0936  0.8628 -0.0663
10606TIP3    H253310   6.460   0.565  15.536 -0.3233  0.6565 -2.6023
10607TIP3   OH253311   3.248   3.525  14.047 -0.3140  0.2087  0.0396
10607TIP3    H153312   3.257   3.559  13.959  0.8600  3.3038  1.2811
10607TIP3    H253313   3.159   3.549  14.073 -0.3177  0.1831  0.0506
10608TIP3   OH253314   0.362   4.960  11.862 -0.3125 -0.0719 -0.5199
10608TIP3    H153315   0.441   4.906  11.859  0.2681  0.7972 -1.1178
10608TIP3    H253316   0.393   5.046  11.889 -0.6497  0.9837 -3.4100
10609TIP3   OH253317   3.357   5.943  13.795 -0.1354  0.2826  0.2387
10609TIP3    H153318   3.325   5.882  13.729  1.2079 -0.0804 -0.1061
10609TIP3    H253319   3.320   6.028  13.769 -1.4890 -0.2724  0.3532
10610TIP3   OH253320   5.262   4.672  16.279  0.1787  0.1067  0.2374
10610TIP3    H153321   5.287   4.756  16.240  2.0689 -0.5513  0.0224
10610TIP3    H253322   5.315   4.607  16.233 -0.5414 -1.1096  1.1087
10611TIP3   OH253323   6.171   0.249   5.151  0.8297  0.3721 -0.4154
10611TIP3    H153324   6.119   0.320   5.188  0.2183  0.2363 -1.0019
10611TIP3    H253325   6.237   0.231   5.217  1.5667  2.1134 -0.6421
10612TIP3   OH253326   0.310   0.900  12.183  0.1566 -0.5258  0.7786
10612TIP3    H153327   0.273   0.815  12.157  0.9945 -0.8166  0.4933
10612TIP3    H253328   0.403   0.892  12.163  0.1582  0.6504  0.2877
10613TIP3   OH253329   1.400   0.895  13.861  0.3450 -0.1442 -0.8336
10613TIP3    H153330   1.312   0.857  13.851  0.4129 -0.1971 -1.2285
10613TIP3    H253331   1.432   0.904  13.771  1.7206 -2.4258 -0.6066
10614TIP3   OH253332   3.043   1.433   2.943  0.0465  0.3019  0.2668
10614TIP3    H153333   3.044   1.426   3.038 -1.5857  0.8530  0.3391
10614TIP3    H253334   2.983   1.506   2.925  0.3291  0.1947 -1.1745
10615TIP3   OH253335   2.398   1.219  15.296 -0.1478 -0.1728 -0.1124
10615TIP3    H153336   2.360   1.180  15.217 -0.4045 -0.3575  0.0977
10615TIP3    H253337   2.488   1.240  15.272 -0.1435 -0.4833 -0.3686
10616TIP3   OH253338   3.177   2.199   0.673  0.1666 -0.1605 -0.2394
10616TIP3    H153339   3.173   2.115   0.629  2.9995 -0.3450 -0.2452
10616TIP3    H253340   3.125   2.188   0.752  2.0501 -2.5586  0.7244
10617TIP3   OH253341   6.676   3.451   1.008  0.3695  0.4711 -0.4590
10617TIP3    H153342   6.680   3.534   1.055  5.4837  0.2949 -0.3145
10617TIP3    H253343   6.667   3.385   1.076 -0.3606  0.6967 -0.3343
10618TIP3   OH253344   5.483   0.128  14.617  0.6440 -0.4575  0.0001
10618TIP3    H153345   5.481   0.221  14.637 -1.0784 -0.6924  1.0308
10618TIP3    H253346   5.468   0.123  14.523 -0.6791  0.2700  0.1535
10619TIP3   OH253347   2.273   4.016  11.466  0.2845 -0.6545 -0.2183
10619TIP3    H153348   2.185   3.977  11.464 -0.2978  0.5855  0.4806
10619TIP3    H253349   2.277   4.061  11.551  1.5817 -0.6735 -0.2683
10620TIP3   OH253350   0.653   2.492   1.632 -0.0239  0.3786  0.4809
10620TIP3    H153351   0.608   2.422   1.681  0.3411  0.2574  0.6419
10620TIP3    H253352   0.624   2.480   1.542 -0.1115  0.1393  0.5400
10621TIP3   OH253353   5.623   0.041  11.486 -0.1384 -0.1346  0.2718
10621TIP3    H153354   5.604   0.117  11.430  0.4326  0.6258  1.1079
10621TIP3    H253355   5.592  -0.034  11.434  0.4175  0.5516 -1.0885
10622TIP3   OH253356   0.482   4.935  11.511 -0.1442 -0.2133  0.4990
10622TIP3    H153357   0.441   5.018  11.535 -2.6740 -1.4020  0.4508
10622TIP3    H253358   0.574   4.945  11.537 -0.4926  2.4469  0.8028
10623TIP3   OH253359   1.162   0.588  13.410 -0.3187  0.3172 -0.6012
10623TIP3    H153360   1.083   0.623  13.368 -1.8240 -1.5339  0.6215
10623TIP3    H253361   1.165   0.497  13.383  1.2074  0.2872 -0.3386
10624TIP3   OH253362   0.781   1.163   4.656 -0.4686  0.3455 -0.6441
10624TIP3    H153363   0.857   1.212   4.688 -0.2880 -1.0717  1.1745
10624TIP3    H253364   0.759   1.103   4.727 -0.9550 -1.9266 -2.6406
10625TIP3   OH253365   3.635   6.196  11.712  0.3402  0.3051  0.0473
10625TIP3    H153366   3.628   6.257  11.638  0.3341 -0.3253 -0.4792
10625TIP3    H253367   3.719   6.152  11.699 -0.0704 -0.4445 -0.0729
10626TIP3   OH253368   6.525   0.513  14.926 -0.0273  0.2607  0.0493
10626TIP3    H153369   6.496   0.582  14.986 -1.6157  0.3001 -0.7464
10626TIP3    H253370   6.471   0.525  14.848 -0.5401 -2.0858  0.0107
10627TIP3   OH253371   1.064   1.810   6.840 -0.0440  0.4996  0.1512
10627TIP3    H153372   0.997   1.770   6.783  0.1000  1.3268 -0.6179
10627TIP3    H253373   1.035   1.901   6.850 -0.9390 -0.0230  2.7530
10628TIP3   OH253374   2.501   1.558   4.208 -0.4611  0.0604  0.0711
10628TIP3    H153375   2.589   1.530   4.181  0.0967  2.4705 -0.6603
10628TIP3    H253376   2.452   1.476   4.216  1.5481 -1.2464 -0.5519
10629TIP3   OH253377   0.101   6.126  14.701 -0.1559 -0.1182  0.1921
10629TIP3    H153378   0.188   6.166  14.694 -0.7291  1.2093  0.5642
10629TIP3    H253379   0.068   6.155  14.786 -0.3354 -1.8984  0.7606
10630TIP3   OH253380   0.846   4.034  16.959 -0.0569 -0.2462 -0.1754
10630TIP3    H153381   0.831   4.048  17.052 -1.8744 -2.3537 -0.0974
10630TIP3    H253382   0.852   3.939  16.949  1.3965  0.0015 -2.0389
10631TIP3   OH253383   3.190   5.895   1.131 -0.1163 -0.4212 -0.1678
10631TIP3    H153384   3.102   5.932   1.125 -0.3313 -0.5538  1.8808
10631TIP3    H253385   3.179   5.804   1.104 -0.6491 -0.4697  0.2023
10632TIP3   OH253386   0.807   6.462  14.045  0.5122  0.2526 -0.3653
10632TIP3    H153387   0.860   6.435  13.970  2.2933 -0.4728  1.0989
10632TIP3    H253388   0.817   6.390  14.108 -2.0241  0.2268  0.0717
10633TIP3   OH253389   0.800   4.633  15.446 -0.3947  0.0917  0.7159
10633TIP3    H153390   0.822   4.600  15.359  1.5322 -0.2826  1.3271
10633TIP3    H253391   0.748   4.564  15.486 -1.2305  0.2363 -0.0942
10634TIP3   OH253392   2.321   3.208  10.964  0.3618  0.6352 -0.2225
10634TIP3    H153393   2.331   3.149  10.890  0.2211  0.8531 -0.4160
10634TIP3    H253394   2.277   3.285  10.927  1.4033  1.2556 -0.1831
10635TIP3   OH253395   5.785   3.794  13.815 -0.0759  0.1327 -0.3808
10635TIP3    H153396   5.802   3.865  13.877 -3.0015  0.3287  0.2676
10635TIP3    H253397   5.790   3.715  13.868  1.1041 -0.0031 -0.6799
10636TIP3   OH253398   6.265   3.324  12.943  0.0452 -0.5922  0.8817
10636TIP3    H153399   6.350   3.331  12.899 -1.0641  0.3975 -1.1941
10636TIP3    H253400   6.243   3.231  12.936  1.1273 -0.9411  1.8239
10637TIP3   OH253401   4.616   4.060   2.121  0.2136 -0.3575  0.4168
10637TIP3    H153402   4.673   3.995   2.162  0.0296 -0.7068  0.1232
10637TIP3    H253403   4.533   4.052   2.167  0.2834 -0.1284  0.5781
10638TIP3   OH253404   6.125   0.571   3.122  0.3417 -0.3776 -0.7976
10638TIP3    H153405   6.171   0.553   3.204  1.9489 -0.2057 -1.6334
10638TIP3    H253406   6.042   0.611   3.148  0.1491 -1.7674  0.7959
10639TIP3   OH253407   4.524   4.020   2.898  0.1492  0.4725 -0.2573
10639TIP3    H153408   4.498   3.935   2.934 -0.9743  1.4084  1.1646
10639TIP3    H253409   4.476   4.084   2.950  0.5656  1.9682 -1.6888
10640TIP3   OH253410   4.362   0.888   4.601 -0.8083  0.0201 -0.4352
10640TIP3    H153411   4.391   0.880   4.692 -0.0549  0.1128 -0.6600
10640TIP3    H253412   4.422   0.952   4.562  0.0041 -1.3152 -1.4561
10641TIP3   OH253413   0.776   4.541  13.681  0.4796  0.3243 -0.0450
10641TIP3    H153414   0.798   4.450  13.663  1.8092  0.6481 -0.0493
10641TIP3    H253415   0.758   4.544  13.775  1.0776  0.1940  0.0742
10642TIP3   OH253416   6.190   5.778   1.973  0.5217 -0.0894 -0.2609
10642TIP3    H153417   6.158   5.721   2.043 -2.2267  0.6849 -0.8377
10642TIP3    H253418   6.161   5.735   1.893 -1.3580  1.9491 -0.7089
10643TIP3   OH253419   4.367   6.196   4.921 -0.2255  0.6295 -0.2715
10643TIP3    H153420   4.272   6.193   4.938 -0.4330 -0.0768 -1.4638
10643TIP3    H253421   4.392   6.103   4.917  0.2369  0.7998 -1.4148
10644TIP3   OH253422   0.866   4.043   1.852  0.5075 -0.0823 -0.0085
10644TIP3    H153423   0.936   3.978   1.862  0.2180 -0.3229  0.5177
10644TIP3    H253424   0.910   4.127   1.865  0.8055 -0.1988 -0.2518
10645TIP3   OH253425   1.156   2.554   4.460 -0.7386 -0.2315 -0.1689
10645TIP3    H153426   1.082   2.609   4.435  0.1629  0.8627 -0.4590
10645TIP3    H253427   1.200   2.534   4.377 -0.8569 -1.1123 -0.0264
10646TIP3   OH253428   5.357   6.420  15.818 -0.1291 -0.2108  0.3962
10646TIP3    H153429   5.322   6.443  15.731 -1.6028  0.8593  1.2449
10646TIP3    H253430   5.324   6.331  15.834 -1.2541  0.2292  0.5625
10647TIP3   OH253431   1.190   0.074  14.186 -0.6907 -0.0225 -0.5108
10647TIP3    H153432   1.220   0.127  14.113 -0.3819 -0.2640 -0.5613
10647TIP3    H253433   1.177  -0.013  14.149 -1.9111  0.1901 -0.5961
10648TIP3   OH253434   4.270   2.856   0.360 -0.1232  0.2666 -0.0842
10648TIP3    H153435   4.310   2.848   0.273 -1.7616 -0.1702 -0.8077
10648TIP3    H253436   4.184   2.816   0.350 -0.7869  1.3126  1.4340
10649TIP3   OH253437   0.119   5.701  13.178 -0.0903 -0.1209  0.2286
10649TIP3    H153438   0.024   5.691  13.172 -0.0469 -0.7310  0.4774
10649TIP3    H253439   0.146   5.727  13.090 -0.4321 -0.4484  0.0266
10650TIP3   OH253440   5.991   3.396  12.530  0.5085  0.4016  0.2657
10650TIP3    H153441   5.985   3.486  12.499  0.4820  0.8768  1.5952
10650TIP3    H253442   5.979   3.403  12.625 -1.1992 -1.1853  0.1882
10651TIP3   OH253443   1.358   1.481   6.050 -0.1292  0.6419  0.5696
10651TIP3    H153444   1.263   1.485   6.057 -0.0019  1.5111  1.8440
10651TIP3    H253445   1.381   1.395   6.084 -0.4857  0.2725 -0.1141
10652TIP3   OH253446   4.341   5.542   1.838 -0.2580  0.5760 -0.2665
10652TIP3    H153447   4.311   5.541   1.747 -1.6914 -0.0434  0.2003
10652TIP3    H253448   4.391   5.461   1.848 -1.1319  0.0406 -0.1747
10653TIP3   OH253449   0.901   3.940   3.363  0.0257 -0.4719 -0.0564
10653TIP3    H153450   0.967   4.008   3.371  0.0996 -0.4000 -1.2198
10653TIP3    H253451   0.898   3.899   3.449  0.5669  0.4564  0.4111
10654TIP3   OH253452   5.529   3.737   0.327  0.2137  0.1062 -0.3681
10654TIP3    H153453   5.539   3.697   0.414 -0.1939 -0.0243 -0.3847
10654TIP3    H253454   5.612   3.783   0.313  0.3593 -0.0416  0.0047
10655TIP3   OH253455   4.159   3.605   5.568 -0.3512  0.4097 -0.2020
10655TIP3    H153456   4.129   3.575   5.654  0.2517  1.3220  0.3424
10655TIP3    H253457   4.228   3.669   5.588  1.2573 -0.9194 -1.3905
10656TIP3   OH253458   2.676   4.720  16.920  0.3900  0.3945 -0.2512
10656TIP3    H153459   2.688   4.712  16.826 -0.1469  1.5840 -0.4241
10656TIP3    H253460   2.587   4.688  16.935  0.3784  0.4591 -0.1809
10657TIP3   OH253461   3.129   6.294   2.154 -0.4744 -0.2851 -0.7897
10657TIP3    H153462   3.158   6.218   2.204 -0.4033 -0.6388 -1.3633
10657TIP3    H253463   3.034   6.295   2.165 -0.2941  0.6194  0.7264
10658TIP3   OH253464   4.278   1.020   6.760  0.5187 -0.3846  0.4181
10658TIP3    H153465   4.321   1.068   6.830 -1.2329 -0.1654  1.3764
10658TIP3    H253466   4.315   1.057   6.680 -0.4553  2.2882  1.1397
10659TIP3   OH253467   5.617   2.844  15.139 -0.3204 -0.2284  0.0319
10659TIP3    H153468   5.657   2.884  15.062 -0.4382  3.4134  1.7425
10659TIP3    H253469   5.659   2.758  15.146 -1.2604 -1.2121 -4.7670
10660TIP3   OH253470   4.581   1.716   2.289  0.1340 -0.1396 -0.3696
10660TIP3    H153471   4.497   1.733   2.247 -1.0152 -0.7978  1.5557
10660TIP3    H253472   4.569   1.632   2.335  1.6103  0.0844  0.4898
10661TIP3   OH253473   5.040   3.939  11.219  0.0437  0.8931 -0.1665
10661TIP3    H153474   5.098   3.863  11.212 -1.6601 -0.6606  1.6587
10661TIP3    H253475   4.992   3.940  11.137  1.0925  0.8601 -0.7838
10662TIP3   OH253476   0.459   0.575  16.189  0.0083  0.4319  0.7560
10662TIP3    H153477   0.370   0.583  16.224 -1.6858 -0.3866 -3.0961
10662TIP3    H253478   0.501   0.658  16.211 -2.9150  2.3395 -0.4056
10663TIP3   OH253479   4.357   4.149   0.033 -0.4298 -0.1436 -0.4331
10663TIP3    H153480   4.338   4.199   0.112 -0.4962 -1.1929  0.2222
10663TIP3    H253481   4.292   4.079   0.032 -0.3117 -0.2541 -1.3209
10664TIP3   OH253482   4.839   4.936   1.672 -0.2328  0.1131  0.0839
10664TIP3    H153483   4.918   4.918   1.622 -0.8968  1.4812 -1.5046
10664TIP3    H253484   4.775   4.873   1.639 -0.4061  0.4091 -0.1498
10665TIP3   OH253485   0.970   6.042   1.468 -0.4239 -0.0596 -0.2531
10665TIP3    H153486   0.936   6.033   1.556 -1.7652 -1.3457 -0.8863
10665TIP3    H253487   0.933   6.124   1.436  1.3321  1.2257  0.9069
10666TIP3   OH253488   5.295   4.601   5.261 -0.7605  0.4059  0.2066
10666TIP3    H153489   5.353   4.586   5.336  0.3771 -1.0545 -0.9436
10666TIP3    H253490   5.288   4.696   5.255  1.7955  0.6113  0.1747
10667TIP3   OH253491   0.886   0.304  12.595  0.2870 -0.4261 -0.2578
10667TIP3    H153492   0.853   0.384  12.637 -1.3455 -1.5101  0.5585
10667TIP3    H253493   0.925   0.253  12.666  1.9175 -0.0916 -0.8851
10668TIP3   OH253494   2.774   4.408   5.068 -0.0835 -0.1382 -0.4806
10668TIP3    H153495   2.793   4.353   5.144  1.3475  1.1674  0.1622
10668TIP3    H253496   2.844   4.474   5.070 -0.2665  0.1475 -2.7064
10669TIP3   OH253497   5.791   5.610  17.232 -0.1401  0.6813  0.4514
10669TIP3    H153498   5.813   5.517  17.236  0.1761  0.7025 -0.5923
10669TIP3    H253499   5.695   5.612  17.233 -0.1387  0.3888  1.2429
10670TIP3   OH253500   4.509   6.289   0.792  0.3828 -0.1355 -0.6477
10670TIP3    H153501   4.480   6.380   0.784  1.5692  0.3645  0.4309
10670TIP3    H253502   4.546   6.269   0.706  2.1023  1.1529 -0.2503
10671TIP3   OH253503   4.019   0.240  14.171  0.5101 -0.1703  0.0546
10671TIP3    H153504   4.110   0.211  14.182  1.0282  0.5200 -2.1611
10671TIP3    H253505   3.978   0.171  14.119  0.1039  0.1092  0.0015
10672TIP3   OH253506   5.500   4.407   1.335 -0.4379 -0.5002 -0.1876
10672TIP3    H153507   5.504   4.493   1.377 -2.2088 -0.2884 -0.4099
10672TIP3    H253508   5.461   4.350   1.402 -0.6804 -0.7851 -0.5717
10673TIP3   OH253509   4.103   5.348  12.517  0.4387  0.0237 -0.2509
10673TIP3    H153510   4.041   5.281  12.543 -0.9507  0.8230 -1.4561
10673TIP3    H253511   4.056   5.401  12.453  2.3881  0.6058 -1.2280
10674TIP3   OH253512   3.336   2.179  16.474  0.6073 -0.3935  0.6052
10674TIP3    H153513   3.416   2.168  16.422 -0.0921  0.5154 -0.7070
10674TIP3    H253514   3.298   2.091  16.478  0.9285 -0.5657 -0.0140
10675TIP3   OH253515   3.080   6.665  11.501 -0.2153 -0.7064 -0.3318
10675TIP3    H153516   3.119   6.739  11.454  0.4489 -0.9380 -0.1475
10675TIP3    H253517   2.997   6.650  11.457  0.0130 -0.3689 -0.8838
10676TIP3   OH253518   3.341   6.110   0.494  1.1004  0.1394 -0.2521
10676TIP3    H153519   3.421   6.162   0.501  0.2379  1.3625  0.8079
10676TIP3    H253520   3.301   6.138   0.412 -0.0105  2.1392  0.9334
10677TIP3   OH253521   0.978   2.598   1.608 -0.0540 -0.1133  0.2244
10677TIP3    H153522   0.942   2.556   1.530  1.0029  0.9126 -0.8255
10677TIP3    H253523   0.954   2.539   1.680 -1.1461 -0.9965 -0.8449
10678TIP3   OH253524   3.665   0.526  13.439  0.0564 -0.7774  0.0706
10678TIP3    H153525   3.717   0.607  13.434  1.0597 -1.3940  0.4368
10678TIP3    H253526   3.680   0.483  13.355 -0.0265 -0.8634  0.1014
10679TIP3   OH253527   5.465   2.880   2.820  0.0102  0.0823 -0.6521
10679TIP3    H153528   5.539   2.928   2.856  0.8318 -0.2495 -1.8494
10679TIP3    H253529   5.391   2.906   2.874  1.1513 -0.2546  1.1385
10680TIP3   OH253530   4.033   6.105  10.792  0.5250  0.7956 -0.2896
10680TIP3    H153531   4.048   6.196  10.817  0.8745  1.1692 -1.8073
10680TIP3    H253532   4.120   6.065  10.794  0.4112  0.5646  0.0967
10681TIP3   OH253533   4.334   0.548  15.822 -0.2264  0.0325 -0.9133
10681TIP3    H153534   4.373   0.477  15.771 -1.8528 -4.4614  3.6935
10681TIP3    H253535   4.407   0.583  15.874  0.3320  0.9540 -2.2966
10682TIP3   OH253536   1.887   2.013  16.187  0.0775  0.0953  0.7932
10682TIP3    H153537   1.860   1.926  16.158 -0.3877 -1.2174  4.8003
10682TIP3    H253538   1.810   2.068  16.174 -0.0477 -0.3950 -0.5617
10683TIP3   OH253539   2.882   0.315  14.153  0.2839 -0.2716  0.0152
10683TIP3    H153540   2.945   0.382  14.178  0.1211  0.1764 -0.7327
10683TIP3    H253541   2.799   0.345  14.190 -0.1889  0.9882 -1.9769
10684TIP3   OH253542   1.970   0.536  11.585  0.0111 -0.4697 -0.0414
10684TIP3    H153543   1.902   0.517  11.650 -1.4516 -2.4056 -2.1019
10684TIP3    H253544   1.964   0.631  11.572 -0.7794 -0.3031  1.4433
10685TIP3   OH253545   5.127   5.014  11.724  0.0789 -0.0965 -0.7389
10685TIP3    H153546   5.105   4.997  11.632  0.8056 -0.0928 -0.9184
10685TIP3    H253547   5.054   5.066  11.757  1.0537  2.1878 -2.0471
10686TIP3   OH253548   6.777   4.491   0.752  0.1469  1.0347  0.1798
10686TIP3    H153549   6.694   4.463   0.792  0.4982 -0.3924 -0.0616
10686TIP3    H253550   6.822   4.409   0.731  1.9739  1.8018  1.0204
10687TIP3   OH253551   6.551   1.118   4.278 -0.9191 -0.6481 -0.6375
10687TIP3    H153552   6.504   1.151   4.201 -0.1540  2.1697  0.0690
10687TIP3    H253553   6.640   1.104   4.247 -0.4982  0.9296 -0.1677
10688TIP3   OH253554   6.085   1.222   5.644 -0.1100 -0.7843 -0.1672
10688TIP3    H153555   6.136   1.240   5.565  1.0996 -0.6204  0.6277
10688TIP3    H253556   6.081   1.306   5.690 -2.9053 -0.3053 -1.2226
10689TIP3   OH253557   3.846   0.146  13.784 -0.3053  0.1790 -0.0735
10689TIP3    H153558   3.883   0.232  13.804 -1.1205  0.3000  0.9630
10689TIP3    H253559   3.783   0.163  13.714  1.1876  0.0518 -1.4784
10690TIP3   OH253560   0.146   2.115  12.198 -0.4526  0.1094  0.0024
10690TIP3    H153561   0.148   2.027  12.234 -0.6570  0.5043  0.9946
10690TIP3    H253562   0.239   2.140  12.191 -0.3849 -0.3037 -0.5856
10691TIP3   OH253563   2.111   5.084  11.984  0.3436  0.3085  0.1559
10691TIP3    H153564   2.205   5.068  11.997  0.2476  0.3858  0.9389
10691TIP3    H253565   2.101   5.087  11.889  1.0895  0.0171  0.0618
10692TIP3   OH253566   2.718   1.488   5.034 -0.3724 -0.0565  0.0180
10692TIP3    H153567   2.785   1.433   4.995 -0.2075 -0.3507  0.7176
10692TIP3    H253568   2.678   1.434   5.101  0.8726  1.2015  1.8165
10693TIP3   OH253569   2.365   2.967   5.651  0.4536 -0.1435 -0.4004
10693TIP3    H153570   2.377   2.872   5.652  0.9196 -0.2136 -4.2298
10693TIP3    H253571   2.275   2.979   5.622  0.0566  0.6046  1.1047
10694TIP3   OH253572   2.072   4.208  13.371 -0.5244 -0.2566  0.1928
10694TIP3    H153573   2.147   4.161  13.335 -0.7184  0.7440 -1.5163
10694TIP3    H253574   1.996   4.158  13.341 -0.6367 -0.1816  0.3473
10695TIP3   OH253575   5.043   3.949  14.560 -0.3271 -0.0797  0.3039
10695TIP3    H153576   5.093   3.935  14.640  1.6980 -1.3000 -1.1137
10695TIP3    H253577   5.024   4.043  14.559  0.1809  0.0464  1.8867
10696TIP3   OH253578   4.251   4.641   4.346 -0.3383  0.2840  0.5089
10696TIP3    H153579   4.335   4.601   4.323 -0.6750  0.4832 -1.1692
10696TIP3    H253580   4.264   4.677   4.434  0.9983 -0.5982  0.6822
10697TIP3   OH253581   5.375   0.951   4.599  0.0946  0.4189  0.5624
10697TIP3    H153582   5.463   0.921   4.578 -1.1858 -1.0128 -3.2528
10697TIP3    H253583   5.335   0.877   4.645 -0.0816 -0.1647 -0.5101
10698TIP3   OH253584   3.125   0.402  15.869 -0.4561  0.3465 -0.1496
10698TIP3    H153585   3.184   0.340  15.911 -1.5308 -0.8154 -0.3339
10698TIP3    H253586   3.113   0.367  15.780 -1.1119  0.7841 -0.2371
10699TIP3   OH253587   3.348   0.329   1.011  0.1740  0.1094  0.2200
10699TIP3    H153588   3.264   0.343   0.967  0.3120 -2.3404 -0.8935
10699TIP3    H253589   3.324   0.320   1.104 -0.5796  1.2736  0.1460
10700TIP3   OH253590   1.345   2.292  14.249  0.3064  0.3623 -0.2019
10700TIP3    H153591   1.409   2.282  14.178  0.1800  2.3938 -0.6158
10700TIP3    H253592   1.280   2.353  14.215 -0.3535  0.5003  1.2641
10701TIP3   OH253593   4.811   5.369  11.961 -0.0678  0.4473  0.4039
10701TIP3    H153594   4.820   5.276  11.939 -1.2327  0.6899 -1.2344
10701TIP3    H253595   4.718   5.387  11.947 -0.1384  1.5128  2.1723
10702TIP3   OH253596   6.462   4.335  10.828 -0.4615 -0.0930 -0.3189
10702TIP3    H153597   6.502   4.385  10.757  0.2815 -0.4246 -0.1369
10702TIP3    H253598   6.410   4.268  10.782 -1.6685  0.9967 -0.5588
10703TIP3   OH253599   0.105   6.647  13.098 -0.1828  0.2283 -0.3598
10703TIP3    H153600   0.058   6.705  13.038 -0.3012 -0.4963 -0.9710
10703TIP3    H253601   0.112   6.564  13.051 -0.2934 -0.3517  0.6400
10704TIP3   OH253602   6.536   2.351  16.123 -0.4360 -0.0069 -0.2886
10704TIP3    H153603   6.594   2.282  16.093 -0.3868 -0.0458 -0.1009
10704TIP3    H253604   6.580   2.432  16.098 -0.1573 -0.0298  0.1233
10705TIP3   OH253605   0.179   4.206   2.274  0.0947 -0.0733  0.2376
10705TIP3    H153606   0.119   4.133   2.286  0.6096 -0.4295  0.6638
10705TIP3    H253607   0.264   4.166   2.257  0.7178  0.3869  2.1021
10706TIP3   OH253608   3.256   0.857  11.420  0.4940  0.6631  0.4895
10706TIP3    H153609   3.330   0.830  11.475  0.4367 -0.6665 -0.0627
10706TIP3    H253610   3.274   0.816  11.335 -0.3198  1.2358  0.0406
10707TIP3   OH253611   1.694   0.539  11.412  0.1391  0.0453 -0.0109
10707TIP3    H153612   1.717   0.458  11.458 -0.0793 -0.6227 -1.0620
10707TIP3    H253613   1.736   0.531  11.327  1.9573  2.0376  0.6387
10708TIP3   OH253614   6.389   6.227   5.439  0.0993 -0.5132 -0.1740
10708TIP3    H153615   6.373   6.210   5.531 -2.1780  0.6653 -0.3109
10708TIP3    H253616   6.414   6.320   5.436 -1.0751 -0.2096 -0.8554
10709TIP3   OH253617   2.903   4.175   3.048 -0.1077 -0.0186 -0.6898
10709TIP3    H153618   2.922   4.120   3.124 -1.7431 -0.4593 -0.5915
10709TIP3    H253619   2.835   4.236   3.078  0.7342  1.2013 -1.1891
10710TIP3   OH253620   0.423   0.658   5.591  0.2152 -0.3328 -0.0426
10710TIP3    H153621   0.354   0.694   5.534  1.2571  1.9058  0.0535
10710TIP3    H253622   0.375   0.624   5.666 -0.7865  1.5593  0.2116
10711TIP3   OH253623   1.607   1.118  15.141  0.0593  0.1343 -0.4957
10711TIP3    H153624   1.590   1.208  15.113  0.3144  1.0740  2.2589
10711TIP3    H253625   1.700   1.118  15.166 -0.3540 -0.4841  1.0368
10712TIP3   OH253626   2.805   2.525   3.107  0.4046 -0.0903 -0.0098
10712TIP3    H153627   2.823   2.482   3.191  3.2085  0.5713 -0.2069
10712TIP3    H253628   2.827   2.458   3.041  0.7045  0.2432 -0.2501
10713TIP3   OH253629   3.729   3.461   6.791 -0.3780 -0.5648  0.0297
10713TIP3    H153630   3.652   3.436   6.740 -0.7195 -2.0502  1.2374
10713TIP3    H253631   3.718   3.416   6.875  0.7968  0.8388  0.9670
10714TIP3   OH253632   1.218   3.667  14.290 -0.4671  0.1286  0.5241
10714TIP3    H153633   1.133   3.655  14.248 -0.7667  0.2526  1.0882
10714TIP3    H253634   1.282   3.643  14.223 -0.9120  1.2404 -0.3159
10715TIP3   OH253635   5.626   5.113   0.796  0.2414  0.0743  0.4375
10715TIP3    H153636   5.705   5.090   0.748  0.6221 -1.2757  1.6678
10715TIP3    H253637   5.639   5.077   0.884 -0.3463  2.6729  1.6572
10716TIP3   OH253638   4.435   2.189   0.798  0.1934  0.5426  0.2884
10716TIP3    H153639   4.453   2.229   0.713 -0.1396 -0.1632 -0.1191
10716TIP3    H253640   4.491   2.237   0.859  1.4266  0.1818 -0.5333
10717TIP3   OH253641   5.208   6.008  12.204 -0.2904 -0.1917  0.0686
10717TIP3    H153642   5.167   5.947  12.266 -0.6806 -0.7488 -0.7414
10717TIP3    H253643   5.245   5.952  12.136 -0.1724  0.4438 -0.3893
10718TIP3   OH253644   0.863   2.061  15.159  0.4565  0.4515  0.0704
10718TIP3    H153645   0.877   1.972  15.194  1.0417  0.5191  0.0090
10718TIP3    H253646   0.909   2.061  15.075 -0.0078  0.6451 -0.1819
10719TIP3   OH253647   0.464   6.543  13.753 -0.5141 -0.2946  0.0612
10719TIP3    H153648   0.503   6.630  13.755 -2.7285  0.7763 -1.2288
10719TIP3    H253649   0.485   6.505  13.839  0.8751  1.3048  0.4523
10720TIP3   OH253650   0.767   1.986  11.479 -0.0590  0.4391 -0.9546
10720TIP3    H153651   0.748   2.080  11.478 -0.6252  0.3237 -0.8245
10720TIP3    H253652   0.783   1.964  11.387  0.5960  0.7704 -0.9213
10721TIP3   OH253653   1.423   5.544   1.767 -0.0096 -0.0177  0.2205
10721TIP3    H153654   1.482   5.569   1.837  2.5720  0.2045 -1.9867
10721TIP3    H253655   1.407   5.450   1.782  1.8196 -0.3465  0.1548
10722TIP3   OH253656   0.666   4.447  11.920  0.6638  0.5960  0.0259
10722TIP3    H153657   0.752   4.416  11.891 -0.0580 -2.8565  1.2601
10722TIP3    H253658   0.604   4.400  11.864 -0.4892  0.6120  1.2714
10723TIP3   OH253659   5.578   1.279   0.518  0.0047 -0.2336  0.0903
10723TIP3    H153660   5.555   1.234   0.437 -0.9154  0.3081  0.0407
10723TIP3    H253661   5.544   1.368   0.506 -1.0656 -0.4341  1.4845
10724TIP3   OH253662   0.283   4.594   3.683  0.0648  0.2546 -0.5777
10724TIP3    H153663   0.326   4.585   3.768 -2.3424  0.7324  0.7251
10724TIP3    H253664   0.251   4.507   3.662 -1.3561  0.5843  0.1363
10725TIP3   OH253665   4.543   4.895   4.761 -0.0533  0.8236 -0.2312
10725TIP3    H153666   4.614   4.930   4.707  0.4453  0.6139  0.2803
10725TIP3    H253667   4.583   4.823   4.809 -1.0807 -0.5022 -1.3073
10726TIP3   OH253668   1.788   4.942   4.822 -0.2155  0.0336  0.1493
10726TIP3    H153669   1.756   4.923   4.734  0.7377 -1.0638  0.0169
10726TIP3    H253670   1.824   4.859   4.853  0.7097  0.7386  1.0308
10727TIP3   OH253671   2.629   1.105  11.788  0.3813 -0.0780  0.3868
10727TIP3    H153672   2.577   1.026  11.775  0.6945  0.1496 -2.5652
10727TIP3    H253673   2.578   1.158  11.849 -2.1843 -0.4971 -1.3308
10728TIP3   OH253674   5.218   3.494  14.267 -0.0429 -0.1673 -0.1612
10728TIP3    H153675   5.244   3.408  14.298 -0.4059 -0.2884 -0.1956
10728TIP3    H253676   5.216   3.485  14.172 -1.4714 -0.5136 -0.1018
10729TIP3   OH253677   5.414   2.798   2.115 -0.0927  0.1951 -0.0699
10729TIP3    H153678   5.380   2.886   2.135 -1.6496 -0.5255  0.4810
10729TIP3    H253679   5.391   2.784   2.023 -0.7186 -0.0214  0.1156
10730TIP3   OH253680   0.350   3.392  13.372  0.2855 -0.1417 -0.6205
10730TIP3    H153681   0.445   3.377  13.372  0.2257 -0.4985  0.1836
10730TIP3    H253682   0.326   3.395  13.464 -0.6002 -0.7296 -0.8339
10731TIP3   OH253683   5.421   3.847  14.858  0.2345  0.5428 -0.0743
10731TIP3    H153684   5.331   3.865  14.884  0.4049  0.1854  0.7870
10731TIP3    H253685   5.440   3.913  14.792 -0.5332  0.8678  0.0201
10732TIP3   OH253686   5.521   4.391   5.088 -0.0223 -0.4408  0.0183
10732TIP3    H153687   5.528   4.386   5.183  0.6477 -1.8290 -0.0913
10732TIP3    H253688   5.607   4.424   5.060  0.0875 -0.8914 -0.1693
10733TIP3   OH253689   0.035   4.720  15.901  0.0535  0.1399 -0.6932
10733TIP3    H153690   0.117   4.713  15.949  0.5659 -0.9212 -1.6844
10733TIP3    H253691  -0.028   4.672  15.955  0.4650 -0.4487 -0.7285
10734TIP3   OH253692   5.088   6.534   2.977  0.0913  0.1408 -0.0472
10734TIP3    H153693   5.161   6.491   2.932  0.5732 -0.7308  1.5431
10734TIP3    H253694   5.101   6.514   3.069 -1.7881  0.5462  0.3294
10735TIP3   OH253695   1.144   3.030  15.478  0.5675 -0.5471 -0.2161
10735TIP3    H153696   1.093   3.088  15.534  0.1652 -1.5411  0.4627
10735TIP3    H253697   1.091   2.951  15.471 -0.3538  0.2642 -3.6766
10736TIP3   OH253698   5.190   6.660   2.572  0.7545  0.0913 -0.3151
10736TIP3    H153699   5.102   6.655   2.535 -0.0897 -0.4395  1.6970
10736TIP3    H253700   5.243   6.602   2.517 -0.8426 -2.0280  0.3393
10737TIP3   OH253701   6.817   0.664  11.313  0.3557  0.2784 -0.3010
10737TIP3    H153702   6.849   0.707  11.393  1.4310  0.8125 -1.0017
10737TIP3    H253703   6.725   0.690  11.307  0.8283  2.0084 -0.3858
10738TIP3   OH253704   6.018   3.681  10.969 -0.4078 -0.0718  0.0862
10738TIP3    H153705   6.063   3.597  10.966 -0.6127 -0.1197 -1.7029
10738TIP3    H253706   5.925   3.659  10.966 -0.4593  0.2203 -0.5521
10739TIP3   OH253707   4.912   3.743   5.864  0.5464  0.3980  0.0526
10739TIP3    H153708   4.947   3.666   5.819 -0.6731 -0.1074 -0.0533
10739TIP3    H253709   4.968   3.815   5.836  2.2050 -0.5842  0.7893
10740TIP3   OH253710   1.337   0.259   0.806 -0.5935 -0.4432  0.1275
10740TIP3    H153711   1.400   0.241   0.736 -0.2461 -1.1399  0.6047
10740TIP3    H253712   1.297   0.343   0.782  0.2927 -0.1474 -0.3429
10741TIP3   OH253713   1.189   5.845   1.935 -0.1476 -0.4820  0.4188
10741TIP3    H153714   1.163   5.754   1.924  2.6062 -0.9388 -3.1022
10741TIP3    H253715   1.181   5.883   1.848  2.0303  1.7271  1.1340
10742TIP3   OH253716   0.331   2.452  11.702 -0.3306  0.5963  0.1654
10742TIP3    H153717   0.389   2.526  11.684 -1.3135  1.0339 -1.2528
10742TIP3    H253718   0.245   2.492  11.715 -0.2965 -0.0182  2.5857
10743TIP3   OH253719   2.155   6.749   5.515 -0.4259 -0.1358  0.6797
10743TIP3    H153720   2.108   6.695   5.578  0.6458 -0.7624  0.9504
10743TIP3    H253721   2.098   6.825   5.501 -0.6438  0.0456  2.4376
10744TIP3   OH253722   6.002   5.968   6.031 -0.2794 -0.0347 -0.3211
10744TIP3    H153723   6.046   5.896   6.076  1.2043  0.5243 -0.8267
10744TIP3    H253724   5.938   6.001   6.094  0.5284 -0.4072  0.7009
10745TIP3   OH253725   3.729   1.717   4.350  0.0027  0.4953  0.3691
10745TIP3    H153726   3.707   1.738   4.259 -1.2251  0.3501  0.6195
10745TIP3    H253727   3.822   1.698   4.348 -0.4033 -1.5875 -1.2568
10746TIP3   OH253728   3.111   1.019   2.023 -0.1817 -0.4986  0.0539
10746TIP3    H153729   3.063   1.091   2.064  0.9728 -0.2295  0.9757
10746TIP3    H253730   3.059   0.941   2.043 -1.5722  0.0982 -1.1739
10747TIP3   OH253731   3.974   3.683   6.388  0.2203  0.3871  0.1908
10747TIP3    H153732   3.910   3.747   6.355 -0.2209 -0.1518  0.0018
10747TIP3    H253733   3.978   3.699   6.482 -0.4770  0.1664  0.2600
10748TIP3   OH253734   6.304   6.049   6.113  0.1083 -0.7067  0.5191
10748TIP3    H153735   6.222   6.022   6.071  0.4167 -1.5157  0.4227
10748TIP3    H253736   6.282   6.130   6.160 -0.5184 -0.4329 -0.2445
10749TIP3   OH253737   3.835   3.006  12.867 -0.1557 -0.3957  0.1285
10749TIP3    H153738   3.890   3.057  12.808 -0.1980 -0.8940 -0.3469
10749TIP3    H253739   3.888   2.996  12.946 -1.1195  2.5314  1.2132
10750TIP3   OH253740   1.240   2.317  16.103 -0.8629 -0.5511  0.2849
10750TIP3    H153741   1.198   2.384  16.156 -0.4985  2.0987 -2.6655
10750TIP3    H253742   1.181   2.304  16.029  0.1788 -1.8800 -0.3380
10751TIP3   OH253743   0.280   6.170  11.755  0.5843 -0.2830 -0.1519
10751TIP3    H153744   0.222   6.143  11.684 -1.0675 -0.8039  1.3418
10751TIP3    H253745   0.275   6.097  11.818 -0.7530  1.6567  2.0890
10752TIP3   OH253746   6.545   2.186  14.421  0.1326 -0.3548 -0.4479
10752TIP3    H153747   6.457   2.223  14.431 -0.8545 -2.3638 -1.4433
10752TIP3    H253748   6.593   2.254  14.373 -0.9823  0.6095 -0.2310
10753TIP3   OH253749   2.168   2.815   4.950  0.5165  0.2694 -0.1791
10753TIP3    H153750   2.124   2.761   5.015  0.2380 -1.7892 -2.0041
10753TIP3    H253751   2.233   2.864   5.000 -0.1979 -0.6883  1.7551
10754TIP3   OH253752   4.704   4.720   4.888 -0.0023  0.1196 -0.1179
10754TIP3    H153753   4.665   4.732   4.974 -1.3001 -0.0157 -0.6857
10754TIP3    H253754   4.788   4.677   4.906 -0.4853 -0.3556  1.0399
10755TIP3   OH253755   2.016   4.919  13.041 -0.3571  0.2712 -0.4185
10755TIP3    H153756   1.940   4.971  13.067 -0.0454  0.9852 -0.9230
10755TIP3    H253757   1.990   4.881  12.956 -0.6312 -0.5110  0.0052
10756TIP3   OH253758   3.747   5.531   1.383  0.5037  0.0474 -0.2604
10756TIP3    H153759   3.827   5.580   1.362  0.2276  1.1620  1.1869
10756TIP3    H253760   3.677   5.577   1.336  0.4586  0.1167 -0.1239
10757TIP3   OH253761   4.076   6.719   0.173 -0.5041  0.0700 -0.0012
10757TIP3    H153762   4.028   6.676   0.103  1.3014 -2.3796  0.2127
10757TIP3    H253763   4.134   6.781   0.128 -2.3798  1.6264 -0.3629
10758TIP3   OH253764   1.639   1.069  17.279  0.2028 -0.1923 -0.8885
10758TIP3    H153765   1.723   1.030  17.254  0.0070 -0.3204 -1.3500
10758TIP3    H253766   1.598   1.003  17.335  1.2428  0.6655  0.9217
10759TIP3   OH253767   0.507   4.227  10.430  0.7412 -0.3833 -0.1367
10759TIP3    H153768   0.443   4.157  10.419 -2.2513  2.1180  0.6402
10759TIP3    H253769   0.524   4.259  10.342 -1.0646  0.6163 -0.1369
10760TIP3   OH253770   3.735   6.137  12.370  0.1711  0.2858 -0.1241
10760TIP3    H153771   3.781   6.053  12.366 -1.4970 -0.7103  0.6553
10760TIP3    H253772   3.672   6.133  12.297 -1.3307 -0.0480  1.1520
10761TIP3   OH253773   2.701   5.539  14.770  0.0164 -0.2858  0.0131
10761TIP3    H153774   2.627   5.577  14.818  1.5492  1.4984  1.0318
10761TIP3    H253775   2.726   5.607  14.707  2.0643 -0.0145  1.0789
10762TIP3   OH253776   6.429   4.333  15.931 -0.6763  0.4038  0.8221
10762TIP3    H153777   6.460   4.308  16.018  0.6821  1.3476  0.6270
10762TIP3    H253778   6.338   4.303  15.928 -0.2101 -1.1655  1.9260
10763TIP3   OH253779   5.300   4.692  17.193  0.3052  0.1294 -0.0697
10763TIP3    H153780   5.375   4.682  17.133 -0.5153 -2.0950 -0.7726
10763TIP3    H253781   5.224   4.691  17.136 -0.3426  1.6635  0.7258
10764TIP3   OH253782   1.452   2.859   0.092  0.2447 -0.1796  0.1495
10764TIP3    H153783   1.371   2.817   0.120  0.1861 -0.1116  0.0846
10764TIP3    H253784   1.467   2.826   0.004 -0.1257  0.3967 -0.1331
10765TIP3   OH253785   6.147   1.353  16.664  0.2169  0.2934  0.3252
10765TIP3    H153786   6.068   1.408  16.667 -0.5514 -0.7546 -0.0030
10765TIP3    H253787   6.196   1.375  16.742 -1.3582 -0.4069  1.5361
10766TIP3   OH253788   6.476   3.634  16.289  0.0060 -0.0993 -0.4924
10766TIP3    H153789   6.419   3.560  16.268  0.4252 -0.6052  0.1583
10766TIP3    H253790   6.474   3.688  16.210  0.5836 -1.3604 -1.3786
10767TIP3   OH253791   4.716   6.328   1.401 -0.1541  0.2823 -0.5535
10767TIP3    H153792   4.626   6.315   1.431 -0.0425 -0.8361 -0.6782
10767TIP3    H253793   4.714   6.304   1.308  0.5292 -0.9666 -0.2568
10768TIP3   OH253794   0.994   0.935  14.603 -0.0455 -0.1614 -0.3167
10768TIP3    H153795   1.023   1.025  14.614 -1.2700  0.0658  1.1081
10768TIP3    H253796   0.901   0.942  14.581 -0.0689 -1.0643 -0.5175
10769TIP3   OH253797   1.397   2.583   4.640 -0.1208  0.3017 -0.1196
10769TIP3    H153798   1.337   2.574   4.566  0.4577 -1.5422 -0.3928
10769TIP3    H253799   1.456   2.655   4.614 -1.0150  0.8499 -0.6689
10770TIP3   OH253800   4.218   0.598   5.807  0.0215  0.3578 -0.1444
10770TIP3    H153801   4.146   0.622   5.749 -0.5934 -0.9117  0.0697
10770TIP3    H253802   4.255   0.519   5.767 -0.5645 -0.6652  1.3023
10771TIP3   OH253803   0.628   3.169   2.678  0.1534 -0.2793  0.3779
10771TIP3    H153804   0.551   3.157   2.623  0.6419 -1.1195 -0.1273
10771TIP3    H253805   0.680   3.236   2.632  0.2861 -0.5610  0.1208
10772TIP3   OH253806   0.778   6.364  15.707  0.6256 -0.0423 -0.0400
10772TIP3    H153807   0.824   6.370  15.791 -0.6364 -1.1425  0.7495
10772TIP3    H253808   0.773   6.270  15.689 -2.1071 -0.0085  0.3693
10773TIP3   OH253809   6.405   4.618  15.808  0.4432  0.8218 -0.2329
10773TIP3    H153810   6.495   4.647  15.793  0.6876 -0.0532 -0.4976
10773TIP3    H253811   6.411   4.523  15.809 -0.2496  0.7906  1.2502
10774TIP3   OH253812   4.607   0.656   5.035 -0.1117  0.0000 -0.3337
10774TIP3    H153813   4.664   0.731   5.018 -0.0064 -0.1118 -0.4805
10774TIP3    H253814   4.534   0.666   4.973 -1.3061  1.2431  1.2324
10775TIP3   OH253815   2.703   5.787  14.190  0.8304  0.0284 -0.0810
10775TIP3    H153816   2.724   5.733  14.114  0.8626 -0.1977  0.0913
10775TIP3    H253817   2.789   5.814  14.224  0.8219 -0.2665  0.1672
10776TIP3   OH253818   6.741   1.842  14.214 -0.0410 -0.1098  0.4828
10776TIP3    H153819   6.801   1.865  14.286  0.4464  0.1582 -0.0059
10776TIP3    H253820   6.669   1.905  14.223 -1.4189 -1.9003  2.4875
10777TIP3   OH253821   3.407   2.991  13.540 -0.5586 -0.4875 -0.2101
10777TIP3    H153822   3.333   2.971  13.483 -1.0733  1.8861 -0.4299
10777TIP3    H253823   3.424   3.084  13.526 -0.7439  0.1990  3.4940
10778TIP3   OH253824   0.406   0.675  12.860 -0.3103 -0.3305 -0.4985
10778TIP3    H153825   0.492   0.699  12.895 -0.0759 -3.1984  1.0375
10778TIP3    H253826   0.423   0.649  12.770  0.1614  0.7612 -0.7237
10779TIP3   OH253827   6.608   2.680   4.727 -0.0442 -0.4164 -0.0345
10779TIP3    H153828   6.677   2.745   4.714 -0.7970  0.5167  0.4665
10779TIP3    H253829   6.597   2.677   4.822 -0.3285 -0.9387 -0.0863
10780TIP3   OH253830   4.055   0.103   1.338  0.6958 -0.2521 -0.2337
10780TIP3    H153831   4.034   0.054   1.417 -1.2823  0.8607 -0.0374
10780TIP3    H253832   4.048   0.039   1.267 -0.0712 -0.6710  0.2155
10781TIP3   OH253833   2.479   5.260   6.664 -0.4526 -0.3641 -0.5385
10781TIP3    H153834   2.565   5.298   6.685 -1.2351  0.9341  0.4103
10781TIP3    H253835   2.499   5.183   6.611  1.2447  0.6943 -1.5046
10782TIP3   OH253836   5.257   3.172   5.789  0.8660  0.1293  0.1150
10782TIP3    H153837   5.168   3.207   5.787  0.7471 -0.1208  0.8560
10782TIP3    H253838   5.251   3.089   5.743  0.7194  0.1344  0.1237
10783TIP3   OH253839   1.689   1.795  15.346 -0.2436 -0.5233  0.0429
10783TIP3    H153840   1.625   1.861  15.319 -0.0400 -0.1630  0.4147
10783TIP3    H253841   1.753   1.845  15.398  0.9034 -0.6828 -1.1885
10784TIP3   OH253842   1.711   0.454   0.445  0.3083 -0.4151 -0.2486
10784TIP3    H153843   1.800   0.481   0.465  0.1625 -0.5448  0.5946
10784TIP3    H253844   1.720   0.368   0.404  0.6116 -0.1501 -0.7407
10785TIP3   OH253845   6.418   3.887   0.023  0.4863  0.1579 -0.5049
10785TIP3    H153846   6.348   3.838  -0.020 -0.5538  0.3128  0.9372
10785TIP3    H253847   6.460   3.824   0.081 -0.2278  0.7046  0.6367
10786TIP3   OH253848   5.000   2.311  11.068  0.3501  0.4777 -0.0147
10786TIP3    H153849   5.085   2.355  11.074 -0.4238  1.6117  3.1516
10786TIP3    H253850   4.944   2.374  11.023  0.3507  1.0365  0.7619
10787TIP3   OH253851   6.190   1.401  16.096  0.2282 -0.7308 -0.3321
10787TIP3    H153852   6.244   1.412  16.018  1.4184  0.3460  0.6230
10787TIP3    H253853   6.128   1.474  16.093  0.0866 -0.8540 -0.4151
10788TIP3   OH253854   6.039   0.258  13.997  1.0634 -0.1085 -0.9140
10788TIP3    H153855   6.055   0.320  13.926 -0.2370  0.6138 -0.5688
10788TIP3    H253856   5.999   0.182  13.954 -2.0136  1.2985 -0.6412
10789TIP3   OH253857   6.060   4.577  16.330  0.2687  0.6204  0.6454
10789TIP3    H153858   6.151   4.558  16.310  0.0847  0.3850  0.0282
10789TIP3    H253859   6.009   4.522  16.270 -0.2844  0.4104  1.2932
10790TIP3   OH253860   5.762   0.069  14.997  0.3274  0.8141  0.2671
10790TIP3    H153861   5.725   0.009  14.932  0.9738  0.2636  0.4089
10790TIP3    H253862   5.850   0.035  15.014  1.4785  2.9006 -1.1270
10791TIP3   OH253863   4.700   3.782   5.672  0.8346  0.7776  0.6931
10791TIP3    H153864   4.639   3.781   5.746 -0.4157  0.6276 -0.3322
10791TIP3    H253865   4.784   3.807   5.711  0.3856 -0.1590  2.3116
10792TIP3   OH253866   4.888   3.208  16.665  0.1851 -0.9054  0.3953
10792TIP3    H153867   4.802   3.247  16.680  0.1483 -0.9826  0.3832
10792TIP3    H253868   4.949   3.283  16.667  0.1844 -0.9170  0.9638
10793TIP3   OH253869   4.325   5.322  15.562  0.2167 -0.7643 -0.4882
10793TIP3    H153870   4.376   5.241  15.553 -0.2759 -1.4352  2.2942
10793TIP3    H253871   4.338   5.349  15.653 -1.9066  0.7421 -0.5881
10794TIP3   OH253872   1.563   6.475   3.787 -0.6661 -0.0723  0.6377
10794TIP3    H153873   1.648   6.502   3.820  0.0626  0.5712 -1.6941
10794TIP3    H253874   1.500   6.514   3.848  0.6954 -0.9342  2.6330
10795TIP3   OH253875   4.382   3.731  15.106  0.5282  0.1952  0.3214
10795TIP3    H153876   4.412   3.773  15.186 -1.4146  1.1604  0.5944
10795TIP3    H253877   4.359   3.642  15.132  1.6388 -0.0599  0.4357
10796TIP3   OH253878   2.010   4.560   4.813 -0.0939 -0.2510 -0.1648
10796TIP3    H153879   2.013   4.581   4.719  0.9703 -1.7679 -0.4850
10796TIP3    H253880   2.101   4.542   4.836 -0.5909 -1.5840  0.7806
10797TIP3   OH253881   2.360   4.466   5.153  0.2708 -0.3531  0.6289
10797TIP3    H153882   2.408   4.452   5.071  1.3783  1.2129  0.9874
10797TIP3    H253883   2.400   4.405   5.215 -1.6368 -2.7067 -0.3642
10798TIP3   OH253884   1.697   0.023   2.905  0.3590  0.0689 -0.1881
10798TIP3    H153885   1.679  -0.004   2.816  0.2159  1.8996 -0.7319
10798TIP3    H253886   1.789  -0.001   2.920  0.3130 -0.4435 -0.7416
10799TIP3   OH253887   4.609   5.645   3.672 -0.8163 -0.4561  0.3557
10799TIP3    H153888   4.543   5.671   3.735  0.1707 -0.8342  1.5662
10799TIP3    H253889   4.610   5.549   3.675 -0.6988 -0.4734 -0.1528
10800TIP3   OH253890   0.971   1.855  11.642  0.3597  0.0624 -0.1713
10800TIP3    H153891   0.970   1.943  11.680  0.1732  0.4002 -0.9288
10800TIP3    H253892   0.885   1.847  11.601  0.8852  0.0575 -1.2846
10801TIP3   OH253893   4.883   2.284   0.845  0.1839  0.0765 -0.1679
10801TIP3    H153894   4.843   2.363   0.879 -0.4901 -0.5027  0.3965
10801TIP3    H253895   4.948   2.259   0.910 -1.3739 -1.2480  0.9338
10802TIP3   OH253896   4.978   4.185   1.964  0.2710 -0.2434 -0.6157
10802TIP3    H153897   5.019   4.099   1.971 -0.0330 -0.4458 -1.2671
10802TIP3    H253898   5.032   4.232   1.899  0.6159  0.1654 -0.0394
10803TIP3   OH253899   1.485   2.778   2.320  0.7643 -0.1134 -0.5292
10803TIP3    H153900   1.503   2.864   2.281  1.3701  0.1449  0.3076
10803TIP3    H253901   1.429   2.734   2.256  0.0654  1.0802 -0.7546
10804TIP3   OH253902   3.335   2.031  12.942  0.0813  0.3403 -0.7990
10804TIP3    H153903   3.240   2.031  12.959  0.3138  0.7892  0.5563
10804TIP3    H253904   3.373   1.992  13.021  0.9056 -1.6642 -2.1300
10805TIP3   OH253905   1.442   2.722   4.889 -0.7181  0.2740 -0.1129
10805TIP3    H153906   1.479   2.808   4.907  0.4517 -0.0009 -1.1533
10805TIP3    H253907   1.349   2.738   4.873 -0.8097  1.1426  1.2264
10806TIP3   OH253908   1.754   1.108  13.574  0.0124  0.1786  0.3234
10806TIP3    H153909   1.741   1.182  13.634 -0.5557  0.6748 -0.4118
10806TIP3    H253910   1.755   1.148  13.487 -0.7967 -0.7313 -0.1134
10807TIP3   OH253911   5.746   0.956  15.719  0.1706  0.5630  0.0267
10807TIP3    H153912   5.706   1.028  15.767  1.8152  0.5989  1.3760
10807TIP3    H253913   5.792   0.998  15.646  0.9857  0.8750  0.7153
10808TIP3   OH253914   1.091   2.518  16.205 -0.3139 -0.5684 -0.1619
10808TIP3    H153915   1.017   2.568  16.239  0.2912 -0.0510  0.4243
10808TIP3    H253916   1.106   2.554  16.117  0.4878  0.7173  0.4790
10809TIP3   OH253917   3.250   2.022  15.544  0.1406 -0.0604  0.7090
10809TIP3    H153918   3.175   2.057  15.592 -0.3803  0.0258 -0.1509
10809TIP3    H253919   3.267   1.937  15.583 -1.1405 -0.5829  0.1457
10810TIP3   OH253920   3.946   5.268  14.251  0.2576 -0.0273 -0.1642
10810TIP3    H153921   3.925   5.360  14.266  1.9681  0.3342  0.0646
10810TIP3    H253922   3.888   5.241  14.180 -1.1370  0.8741  0.6201
10811TIP3   OH253923   3.582   6.624  13.254 -0.2494  0.1785  0.2979
10811TIP3    H153924   3.650   6.580  13.306 -1.6778 -0.1423  1.9436
10811TIP3    H253925   3.514   6.557  13.242 -1.0031  0.9720  0.0474
10812TIP3   OH253926   3.579   5.878   4.645 -0.2644  0.2307 -0.3247
10812TIP3    H153927   3.526   5.798   4.650  0.2348 -0.0143  1.1206
10812TIP3    H253928   3.662   5.854   4.684 -0.2110  1.5555  0.3904
10813TIP3   OH253929   1.567   6.428   3.381 -0.8451  0.9708  0.3131
10813TIP3    H153930   1.537   6.385   3.461 -1.5721 -1.0032 -0.9868
10813TIP3    H253931   1.487   6.448   3.332 -0.3703  1.3992 -0.3011
10814TIP3   OH253932   0.973   5.324  12.337  0.6021  0.4775  0.1769
10814TIP3    H153933   1.012   5.392  12.282 -0.8877  2.7346  1.7866
10814TIP3    H253934   1.035   5.315  12.410  1.2274 -0.5301 -0.4759
10815TIP3   OH253935   3.076   1.045  15.419 -0.2648  0.1327 -0.7576
10815TIP3    H153936   3.068   1.136  15.447 -0.6649 -0.0157 -0.3611
10815TIP3    H253937   3.008   1.034  15.352 -2.4592 -0.7166  1.4936
10816TIP3   OH253938   3.520   4.671   1.661  0.2531  0.4024 -0.6712
10816TIP3    H153939   3.523   4.708   1.573 -1.6474  0.0323 -0.9112
10816TIP3    H253940   3.435   4.699   1.696  0.5597 -0.2884  0.6684
10817TIP3   OH253941   6.566   1.967   4.010 -0.7476 -0.3914  0.0792
10817TIP3    H153942   6.603   1.945   4.096 -1.4323 -1.2953  0.1471
10817TIP3    H253943   6.520   2.049   4.025  0.0156 -0.0041  0.3333
10818TIP3   OH253944   1.250   6.001   5.329  0.1845  0.0240 -1.1235
10818TIP3    H153945   1.267   5.938   5.400  2.7089  1.3291 -0.5282
10818TIP3    H253946   1.209   6.075   5.372  2.3398  1.1054 -0.8595
10819TIP3   OH253947   0.817   5.178   1.713 -0.7801 -0.3552 -0.4823
10819TIP3    H153948   0.903   5.173   1.671 -0.3443 -0.1835  0.3705
10819TIP3    H253949   0.821   5.111   1.781 -2.0944 -1.8039 -1.8071
10820TIP3   OH253950   1.378   6.283   0.597 -0.1795  0.0490  0.0228
10820TIP3    H153951   1.345   6.208   0.548 -0.0867 -0.3684  0.6085
10820TIP3    H253952   1.435   6.329   0.535 -0.4989 -0.1749 -0.4376
10821TIP3   OH253953   6.402   6.032   2.481  0.3402  0.0110 -0.1032
10821TIP3    H153954   6.485   5.995   2.511  0.0691 -0.7244 -0.2339
10821TIP3    H253955   6.340   6.013   2.551  0.4787  1.3297  0.3764
10822TIP3   OH253956   2.878   5.847   0.038  0.0012 -0.2856  0.5825
10822TIP3    H153957   2.909   5.932   0.006 -1.1340 -0.2141 -0.3970
10822TIP3    H253958   2.837   5.867   0.122 -0.5926  0.2176  0.1854
10823TIP3   OH253959   2.159   5.625   3.472 -0.4180  0.0154 -0.2373
10823TIP3    H153960   2.194   5.672   3.396  1.3983 -1.1813 -0.1616
10823TIP3    H253961   2.086   5.680   3.502  1.9749  3.0865  0.1983
10824TIP3   OH253962   1.177   1.339  10.920 -0.4384 -0.3346 -0.2730
10824TIP3    H153963   1.239   1.314  10.852  0.6524 -0.7501  0.8463
10824TIP3    H253964   1.186   1.433  10.928 -0.3998 -0.3148 -0.5457
10825TIP3   OH253965   6.223   1.697   0.218 -0.2940  0.3949 -0.3477
10825TIP3    H153966   6.262   1.780   0.246 -0.5015  0.5229 -0.4409
10825TIP3    H253967   6.291   1.632   0.236 -0.5626  0.4297  0.7752
10826TIP3   OH253968   1.977   5.213   4.644  0.3955  0.4531 -0.2060
10826TIP3    H153969   1.968   5.299   4.686  0.2057  0.1081  0.4543
10826TIP3    H253970   2.069   5.190   4.655  0.4834  0.6405 -0.5266
10827TIP3   OH253971   6.464   5.807  10.514 -0.0243  0.3079 -0.3341
10827TIP3    H153972   6.474   5.734  10.574  2.9075  0.4127 -0.6400
10827TIP3    H253973   6.440   5.881  10.570 -1.7367 -0.5742  0.1229
10828TIP3   OH253974   3.138   5.266  17.116 -0.5263  0.0913  0.2013
10828TIP3    H153975   3.227   5.251  17.085 -1.0941 -0.8043 -1.0259
10828TIP3    H253976   3.130   5.362  17.118 -0.3987  0.1968 -2.3077
10829TIP3   OH253977   2.368   4.224  14.187 -0.0975  0.5494  0.3868
10829TIP3    H153978   2.341   4.302  14.236  0.1197 -0.2220  1.7744
10829TIP3    H253979   2.303   4.158  14.210  0.5001 -0.0702  0.3235
10830TIP3   OH253980   2.782   6.721   5.419 -0.0389 -0.0172 -0.5008
10830TIP3    H153981   2.744   6.672   5.491 -0.4438 -0.1152 -0.7737
10830TIP3    H253982   2.822   6.798   5.460 -0.7940  0.2395 -0.2308
10831TIP3   OH253983   4.144   4.246  16.282  0.0633  0.3285  0.2846
10831TIP3    H153984   4.175   4.330  16.316 -2.4233  1.3299  0.1753
10831TIP3    H253985   4.049   4.249  16.292 -0.4363 -0.8915 -3.2942
10832TIP3   OH253986   2.453   1.581  15.905  0.5968 -0.2469 -0.2735
10832TIP3    H153987   2.498   1.603  15.823  1.7950  0.9056  0.6694
10832TIP3    H253988   2.476   1.652  15.965 -0.4862 -0.9368  0.9820
10833TIP3   OH253989   2.503   2.002   4.219 -0.0872  0.5202 -0.3866
10833TIP3    H153990   2.576   1.946   4.192  1.3854  1.7120  0.9575
10833TIP3    H253991   2.507   2.002   4.315 -2.8263 -0.6015 -0.2406
10834TIP3   OH253992   2.510   5.035   1.208  0.0976 -0.2327 -0.4320
10834TIP3    H153993   2.434   5.004   1.257  2.4782 -1.3857  2.6694
10834TIP3    H253994   2.522   5.125   1.237  1.8916 -1.1189  1.6598
10835TIP3   OH253995   3.678   5.000  11.570  0.6179  0.2794  0.3589
10835TIP3    H153996   3.647   5.082  11.532 -1.0283 -0.8764 -0.8342
10835TIP3    H253997   3.654   5.006  11.663 -0.4927  0.6569  0.0525
10836TIP3   OH253998   0.924   1.915  10.906 -0.0911 -0.3229 -0.4043
10836TIP3    H153999   0.956   1.834  10.946  0.4281 -0.3879 -0.9434
10836TIP3    H254000   0.832   1.898  10.889 -0.1194 -0.5933  0.0134
10837TIP3   OH254001   3.789   0.257   3.326  0.2656 -0.0525 -0.1443
10837TIP3    H154002   3.849   0.205   3.273 -0.9626 -0.8198 -0.8054
10837TIP3    H254003   3.827   0.257   3.414  0.5813 -1.5830 -0.2778
10838TIP3   OH254004   5.853   3.672   0.645 -0.2821  0.0039 -0.4309
10838TIP3    H154005   5.948   3.675   0.662 -0.1407  0.8234 -1.3172
10838TIP3    H254006   5.813   3.708   0.724  0.3098  2.7633 -1.3252
10839TIP3   OH254007   4.357   3.002  13.254  0.3855  0.0145 -0.3465
10839TIP3    H154008   4.362   3.097  13.250  2.4993 -0.0876 -0.8670
10839TIP3    H254009   4.441   2.975  13.293 -0.6701 -1.5718  0.9288
10840TIP3   OH254010   5.915   3.243  14.910 -0.1784 -0.3769  0.2021
10840TIP3    H154011   5.926   3.185  14.986  0.7068 -0.6114 -0.1091
10840TIP3    H254012   5.838   3.208  14.865  0.3906 -1.3563 -0.0228
10841TIP3   OH254013   4.653   0.363  16.030  0.4594  0.1632  0.4907
10841TIP3    H154014   4.745   0.335  16.034 -0.3574 -2.6501  1.0314
10841TIP3    H254015   4.645   0.408  15.946  2.6129  1.6139  1.0149
10842TIP3   OH254016   6.166   3.557  14.736  0.0116 -0.9878 -0.3935
10842TIP3    H154017   6.234   3.625  14.739 -0.0072 -0.9259 -1.4369
10842TIP3    H254018   6.102   3.585  14.801  0.9914 -1.0653  0.6432
10843TIP3   OH254019   2.342   3.797  13.089  0.2914  0.6669  0.3526
10843TIP3    H154020   2.375   3.821  13.003 -1.5542  0.3110 -0.4653
10843TIP3    H254021   2.255   3.836  13.094 -1.2551 -2.5980  0.4625
10844TIP3   OH254022   3.799   3.609   4.127  0.4011  0.0451  0.4187
10844TIP3    H154023   3.742   3.580   4.198  0.3623  0.9059  0.7467
10844TIP3    H254024   3.866   3.541   4.120 -0.9893 -1.2666 -0.3430
10845TIP3   OH254025   1.104   1.571   1.092  0.1092 -0.0235  0.2096
10845TIP3    H154026   1.145   1.591   1.176 -0.1115  2.7194 -0.2924
10845TIP3    H254027   1.169   1.518   1.046  1.0491  0.1486  1.3090
10846TIP3   OH254028   6.012   2.122   2.976  0.1713 -0.1484 -0.1447
10846TIP3    H154029   5.996   2.068   3.054  1.3128  0.8123  0.7811
10846TIP3    H254030   5.927   2.163   2.957  0.2311  0.7946  1.5185
10847TIP3   OH254031   2.848   1.911  13.670 -0.0221  0.2706  0.6191
10847TIP3    H154032   2.807   1.889  13.587  2.3054 -0.0851 -0.4946
10847TIP3    H254033   2.790   1.976  13.710 -1.0343  0.6260 -1.3846
10848TIP3   OH254034   4.190   1.923  16.959 -0.2335 -0.0846  0.2184
10848TIP3    H154035   4.157   1.837  16.932  2.6314 -0.8128 -1.1114
10848TIP3    H254036   4.268   1.904  17.010  1.1104  1.7763 -1.0914
10849TIP3   OH254037   3.878   2.796   3.242 -0.4470 -0.0242 -0.0768
10849TIP3    H154038   3.787   2.823   3.231 -0.2652  0.2261 -0.9791
10849TIP3    H254039   3.912   2.786   3.153  0.0615 -1.3080  0.2564
10850TIP3   OH254040   3.759   5.127   1.320 -0.5901  0.8398 -0.1582
10850TIP3    H154041   3.744   5.034   1.300 -2.1764  1.1992 -0.7152
10850TIP3    H254042   3.718   5.174   1.247  1.3248  1.9641 -0.5580
10851TIP3   OH254043   1.467   1.365  16.602 -0.0914  0.6146 -0.2556
10851TIP3    H154044   1.381   1.350  16.641 -0.5153 -2.1065 -2.1187
10851TIP3    H254045   1.529   1.348  16.674 -1.0601  2.0461  0.9386
10852TIP3   OH254046   2.103   1.725  13.090  0.2271 -0.0063 -0.0749
10852TIP3    H154047   2.187   1.772  13.087  0.9477 -1.2798 -0.0874
10852TIP3    H254048   2.081   1.719  13.183 -0.1946  0.9129 -0.1084
10853TIP3   OH254049   4.474   0.550  15.498  0.9343 -0.7474 -0.3051
10853TIP3    H154050   4.485   0.535  15.404  0.8719  1.4948 -0.6973
10853TIP3    H254051   4.488   0.643  15.509  0.0900 -0.8434  1.8031
10854TIP3   OH254052   1.707   1.035  15.575  0.0649  0.2714  0.1839
10854TIP3    H154053   1.789   1.056  15.622 -0.2994  0.2108  0.8551
10854TIP3    H254054   1.731   0.962  15.518  0.8139  1.1216 -0.6134
10855TIP3   OH254055   5.689   1.914  16.676 -0.5633  0.4424 -0.5249
10855TIP3    H154056   5.620   1.896  16.739 -1.4334 -2.9012 -2.3318
10855TIP3    H254057   5.650   1.979  16.616  0.1344  3.3192  2.0224
10856TIP3   OH254058   5.130   4.318   0.434 -0.1158 -0.0196 -0.0659
10856TIP3    H154059   5.165   4.336   0.521  1.0888 -0.2808 -0.4950
10856TIP3    H254060   5.186   4.248   0.399 -1.5970 -1.0671 -0.4129
10857TIP3   OH254061   2.334   6.638  12.379 -0.1265 -0.2158  0.3098
10857TIP3    H154062   2.255   6.668  12.425 -0.6027 -1.7978  0.5772
10857TIP3    H254063   2.387   6.717  12.368 -1.2170  0.6643  1.1824
10858TIP3   OH254064   2.140   6.175  11.941 -0.3065  0.1392 -0.2318
10858TIP3    H154065   2.234   6.165  11.952 -0.4327  0.9790  1.7658
10858TIP3    H254066   2.126   6.270  11.941 -1.2575 -0.0024  0.3458
10859TIP3   OH254067   2.110   6.659   0.846  0.0644 -0.0950 -0.5712
10859TIP3    H154068   2.063   6.640   0.764  0.7892  0.6811 -1.1778
10859TIP3    H254069   2.063   6.609   0.912 -1.1611  0.0650 -1.2901
10860TIP3   OH254070   5.916   1.368   6.338  0.2193  0.6414 -0.0751
10860TIP3    H154071   6.004   1.400   6.357  1.4790 -2.3151 -0.7526
10860TIP3    H254072   5.880   1.344   6.423  1.3398 -1.2424 -0.1070
10861TIP3   OH254073   1.462   2.793  12.664  0.6494 -0.0204  0.0246
10861TIP3    H154074   1.511   2.806  12.745  1.2499  1.6134 -0.5943
10861TIP3    H254075   1.397   2.863  12.664  1.6019  0.8872 -1.6073
10862TIP3   OH254076   3.472   3.339   0.634  0.5912  0.1698 -0.2934
10862TIP3    H154077   3.410   3.412   0.643 -0.6060 -1.1084  2.5996
10862TIP3    H254078   3.422   3.270   0.591  0.1013 -0.6646  1.5336
10863TIP3   OH254079   3.708   1.288  17.096 -0.1024 -0.2820 -0.5070
10863TIP3    H154080   3.801   1.299  17.114 -0.3159  0.2142  0.3156
10863TIP3    H254081   3.666   1.299  17.181 -0.9535 -0.0782 -0.9492
10864TIP3   OH254082   4.124   4.868   4.691 -0.4185  0.0315 -0.7753
10864TIP3    H154083   4.212   4.834   4.675 -0.7562 -0.0775 -2.4898
10864TIP3    H254084   4.114   4.939   4.628 -2.4330 -1.5247 -2.2905
10865TIP3   OH254085   2.492   5.065   2.757  0.4827 -0.2510  0.5128
10865TIP3    H154086   2.429   5.117   2.807  0.6455 -0.0624  0.5206
10865TIP3    H254087   2.474   4.974   2.783 -1.7195 -0.4745 -1.6074
10866TIP3   OH254088   4.828   3.168  12.732 -0.3849 -0.2298 -0.0772
10866TIP3    H154089   4.736   3.183  12.751 -0.2663  1.3283 -0.7215
10866TIP3    H254090   4.829   3.122  12.648 -0.5145  0.8504 -0.6649
10867TIP3   OH254091   0.822   2.815   1.555 -0.0055  0.3468 -0.2892
10867TIP3    H154092   0.803   2.870   1.630 -0.1360  0.5386 -0.4623
10867TIP3    H254093   0.878   2.745   1.590 -0.1627  0.3682  0.0076
10868TIP3   OH254094   3.836   6.559   0.534  0.1347  0.4978  0.0210
10868TIP3    H154095   3.900   6.627   0.511  1.0644 -0.5913 -0.6598
10868TIP3    H254096   3.863   6.483   0.484 -2.3063  0.2877 -1.0140
10869TIP3   OH254097   2.276   5.219  14.183 -0.6771 -0.0412 -0.9734
10869TIP3    H154098   2.288   5.154  14.252 -0.3036  0.3898 -0.6285
10869TIP3    H254099   2.193   5.261  14.204 -0.1406  0.6893 -0.2838
10870TIP3   OH254100   3.852   5.080   3.413  0.1469  0.8085 -0.0588
10870TIP3    H154101   3.836   5.022   3.488 -3.4907  2.0078  0.2156
10870TIP3    H254102   3.862   5.167   3.452  0.0411  1.1783 -0.8520
10871TIP3   OH254103   3.807   0.727   2.521 -0.2907 -0.0918  0.3721
10871TIP3    H154104   3.870   0.728   2.593 -0.8646 -1.4964  0.9053
10871TIP3    H254105   3.862   0.728   2.442  0.3511  0.8084  0.8223
10872TIP3   OH254106   6.357   4.235  15.600 -0.0663  0.0802 -0.0208
10872TIP3    H154107   6.362   4.163  15.536  2.2056  0.5297 -0.4144
10872TIP3    H254108   6.357   4.314  15.547 -0.1849  0.4071  0.4696
10873TIP3   OH254109   0.825   3.274   2.101 -0.5445 -0.1096 -0.3247
10873TIP3    H154110   0.909   3.235   2.076  0.2604  1.0003  0.6498
10873TIP3    H254111   0.793   3.219   2.172  0.8994  1.3529  1.4913
10874TIP3   OH254112   2.521   3.947  16.793  0.3839 -0.6776  0.5364
10874TIP3    H154113   2.529   4.039  16.768  0.0878 -0.8001 -0.0421
10874TIP3    H254114   2.451   3.946  16.858  2.8826 -0.0165  3.3280
10875TIP3   OH254115   6.569   0.027   4.157 -1.1677 -0.0015 -0.1146
10875TIP3    H154116   6.628   0.064   4.222 -0.5280  1.3490 -1.4417
10875TIP3    H254117   6.508   0.099   4.137 -0.1016  0.2754 -2.4868
10876TIP3   OH254118   1.394   1.350   1.242 -0.3749  0.7764  0.7076
10876TIP3    H154119   1.314   1.315   1.282 -0.4361 -0.5719 -0.5465
10876TIP3    H254120   1.368   1.376   1.154  0.7606 -0.5077 -0.0197
10877TIP3   OH254121   2.182   0.060  13.254 -0.6800  0.5188  0.5255
10877TIP3    H154122   2.167  -0.034  13.255 -0.5561  0.5009  0.6973
10877TIP3    H254123   2.103   0.097  13.215 -1.3813  0.4709  1.8608
10878TIP3   OH254124   1.566   6.071   4.220  0.1338 -0.4292  0.2600
10878TIP3    H154125   1.518   6.109   4.146 -0.3989 -0.3052  0.6644
10878TIP3    H254126   1.498   6.037   4.277  0.4497  1.1300  1.5946
10879TIP3   OH254127   4.732   6.321  12.060 -0.7211 -0.4696 -0.1215
10879TIP3    H154128   4.680   6.327  11.979 -0.4725  0.2765 -0.2282
10879TIP3    H254129   4.751   6.228  12.069 -2.0977 -0.7573 -0.0760
10880TIP3   OH254130   3.450   2.424  13.579  0.4330  0.8981  0.1121
10880TIP3    H154131   3.393   2.478  13.524 -1.0657  0.3688  1.1181
10880TIP3    H254132   3.390   2.376  13.636  1.8375 -0.4353  0.5092
10881TIP3   OH254133   4.318   0.068   6.131  0.2697 -0.5301 -0.7656
10881TIP3    H154134   4.363  -0.011   6.162  0.8860 -0.1290 -0.6341
10881TIP3    H254135   4.388   0.125   6.100  0.1637  1.3268  2.2053
10882TIP3   OH254136   3.227   5.669   1.381  0.8557  0.2153 -0.4852
10882TIP3    H154137   3.153   5.613   1.358  2.8944 -2.4363 -0.8012
10882TIP3    H254138   3.304   5.625   1.345  2.4262  4.0103 -2.0567
10883TIP3   OH254139   5.273   1.427   0.501 -0.3141 -0.1832  0.2532
10883TIP3    H154140   5.230   1.508   0.473 -0.3478 -0.2433  0.1305
10883TIP3    H254141   5.260   1.367   0.428 -0.0126 -0.1986  0.2099
10884TIP3   OH254142   4.674   6.612  13.129 -0.0636 -0.6262  0.3000
10884TIP3    H154143   4.685   6.523  13.096 -0.6613 -1.1150  1.4106
10884TIP3    H254144   4.649   6.601  13.221  0.9129  0.6981  0.7437
10885TIP3   OH254145   4.373   1.589   0.680 -0.2293 -0.0713  0.2107
10885TIP3    H154146   4.384   1.683   0.694 -1.4594  0.0555  0.4421
10885TIP3    H254147   4.382   1.550   0.767 -0.9022 -0.0335  0.3011
10886TIP3   OH254148   2.942   6.041  14.002 -0.4950 -0.6414  0.3908
10886TIP3    H154149   3.016   6.029  13.943  0.1241 -1.0534  1.2451
10886TIP3    H254150   2.939   6.135  14.020  0.0997 -0.6825  0.7103
10887TIP3   OH254151   5.132   2.283  16.576 -0.3292 -0.5007 -0.4367
10887TIP3    H154152   5.045   2.276  16.614 -0.8350  0.5129 -1.4096
10887TIP3    H254153   5.121   2.337  16.498  0.9642 -1.2992 -1.2080
10888TIP3   OH254154   5.239   3.396   3.403 -0.0336 -0.1890  0.3128
10888TIP3    H154155   5.331   3.370   3.412  0.1010  0.4477  0.8495
10888TIP3    H254156   5.242   3.472   3.344 -0.4494 -1.5304 -1.4993
10889TIP3   OH254157   4.540   5.315   3.472  0.4460 -0.0924 -0.3005
10889TIP3    H154158   4.629   5.325   3.507  0.4405  1.2203 -0.6547
10889TIP3    H254159   4.544   5.235   3.419  0.9425 -1.0487  1.1473
10890TIP3   OH254160   1.734   2.089   0.369 -0.2466 -0.0754 -0.2075
10890TIP3    H154161   1.691   2.074   0.284 -0.8111 -1.6008  0.3385
10890TIP3    H254162   1.663   2.083   0.433  0.1605  1.1812  0.3807
10891TIP3   OH254163   0.379   4.936   4.151  0.3504 -0.0819  0.4615
10891TIP3    H154164   0.473   4.943   4.168  1.2693 -2.2600 -3.3137
10891TIP3    H254165   0.359   5.011   4.095  0.4699 -1.2096 -1.1177
10892TIP3   OH254166   3.339   0.297  13.685 -0.0392  0.0266 -0.2158
10892TIP3    H154167   3.325   0.281  13.778 -1.7693  1.8488 -0.1377
10892TIP3    H254168   3.266   0.253  13.641  0.5178 -0.4429 -0.6797
10893TIP3   OH254169   6.239   6.207   4.956 -0.1064 -0.5368 -0.4658
10893TIP3    H154170   6.240   6.163   5.041  1.0475  0.0245 -0.1836
10893TIP3    H254171   6.282   6.291   4.972 -1.4183  0.2925 -1.2208
10894TIP3   OH254172   1.934   2.463   6.037 -0.7015  0.3597  0.4636
10894TIP3    H154173   2.008   2.522   6.055 -0.7346  0.2981  0.8061
10894TIP3    H254174   1.933   2.403   6.112 -1.6379  0.9028  0.9092
10895TIP3   OH254175   1.936   4.578   5.238  0.6315  0.1301  0.1534
10895TIP3    H154176   1.876   4.629   5.183 -0.1094 -0.4120  0.4483
10895TIP3    H254177   1.969   4.641   5.302 -0.4950  0.1938  0.6894
10896TIP3   OH254178   0.959   2.057   2.323 -0.7015 -0.4995  1.0743
10896TIP3    H154179   1.038   2.029   2.368  1.4141  0.6643 -1.7806
10896TIP3    H254180   0.969   2.024   2.234 -2.1232  1.9998 -0.0669
10897TIP3   OH254181   2.377   4.574   4.256 -0.5809 -0.6354 -0.4227
10897TIP3    H154182   2.326   4.626   4.318  1.2202  0.7250 -0.0300
10897TIP3    H254183   2.344   4.485   4.266 -0.4786 -0.4199  2.3649
10898TIP3   OH254184   3.326   2.377   2.278 -0.3463  0.1696 -0.0364
10898TIP3    H154185   3.262   2.355   2.346 -0.5526  0.4238 -0.1432
10898TIP3    H254186   3.277   2.371   2.196 -0.1378  0.0143 -0.1495
10899TIP3   OH254187   1.217   5.840  12.380 -0.0156  0.0956 -0.7426
10899TIP3    H154188   1.242   5.884  12.461  0.6933 -0.0291 -0.8846
10899TIP3    H254189   1.160   5.768  12.408 -0.0923  0.2935 -0.3929
10900TIP3   OH254190   4.727   6.605   1.883 -0.1879 -0.3368 -0.7645
10900TIP3    H154191   4.817   6.616   1.850  0.7193  0.2172  1.7485
10900TIP3    H254192   4.717   6.511   1.895  0.1441 -0.3768 -0.7965
10901TIP3   OH254193   4.829   2.183  16.700 -0.5240 -0.6146 -0.0955
10901TIP3    H154194   4.760   2.239  16.736 -1.4447 -1.8737  0.1159
10901TIP3    H254195   4.886   2.165  16.774  0.0958  0.4997 -0.2879
10902TIP3   OH254196   5.829   1.267   1.894  0.4829 -0.2414  0.1775
10902TIP3    H154197   5.848   1.199   1.829  2.5498 -0.2754  0.7811
10902TIP3    H254198   5.741   1.298   1.871  0.0344 -2.2088 -0.8945
10903TIP3   OH254199   5.892   1.418   2.434 -0.2735 -0.2939  0.4317
10903TIP3    H154200   5.877   1.509   2.409 -0.3622 -0.4769 -0.1725
10903TIP3    H254201   5.804   1.384   2.454 -0.5001 -0.8853 -1.4973
10904TIP3   OH254202   2.514   3.390  12.191 -0.1734 -0.3191  0.4649
10904TIP3    H154203   2.570   3.460  12.156  1.3160 -2.5330 -1.7262
10904TIP3    H254204   2.456   3.368  12.119 -3.0103  0.9874  2.2843
10905TIP3   OH254205   1.991   4.059  12.478  0.0451 -0.2771 -0.9418
10905TIP3    H154206   1.975   4.024  12.566  1.3948 -0.8495 -0.8965
10905TIP3    H254207   1.965   3.989  12.419  0.8834 -0.6185 -0.9203
10906TIP3   OH254208   6.282   2.043   2.086 -0.0959 -0.0896  0.0343
10906TIP3    H154209   6.275   2.023   1.993  2.5110  0.7796 -0.4012
10906TIP3    H254210   6.363   2.094   2.093 -0.3011 -0.0767  2.7641
10907TIP3   OH254211   5.682   4.788   0.816  0.2886  0.3544 -0.6992
10907TIP3    H154212   5.652   4.868   0.859 -0.1682 -0.3582  0.3350
10907TIP3    H254213   5.773   4.778   0.845 -0.0442 -0.1696  0.1955
10908TIP3   OH254214   1.955   3.688   4.842 -0.4920  0.4134 -0.0575
10908TIP3    H154215   2.019   3.757   4.824  0.6835 -0.6509  0.0806
10908TIP3    H254216   1.910   3.717   4.921  1.7889 -0.2564  1.5010
10909TIP3   OH254217   4.717   6.111   0.256  0.0427  0.4006  0.0899
10909TIP3    H154218   4.762   6.160   0.188 -2.8326  1.6082 -1.0077
10909TIP3    H254219   4.643   6.166   0.280 -1.2453 -1.8252  1.3720
10910TIP3   OH254220   5.868   2.687   0.569  0.0918  0.6305  0.5310
10910TIP3    H154221   5.776   2.661   0.577  0.3746 -0.4096  0.5099
10910TIP3    H254222   5.868   2.753   0.499 -0.2868 -1.3903 -1.4648
10911TIP3   OH254223   4.819   3.097  13.915  0.3281  0.1469  0.3812
10911TIP3    H154224   4.753   3.106  13.983  0.5023 -2.0489  0.8622
10911TIP3    H254225   4.771   3.069  13.838  0.6404 -1.1623  0.6527
10912TIP3   OH254226   3.398   2.884   7.022  0.0010  0.1289  0.1368
10912TIP3    H154227   3.492   2.884   7.007 -0.0759  2.4076 -0.3974
10912TIP3    H254228   3.360   2.901   6.936 -0.9142 -0.7584  0.3557
10913TIP3   OH254229   6.275   3.839   4.456 -0.2631 -0.3774 -0.3406
10913TIP3    H154230   6.349   3.809   4.402 -0.1383 -1.8735  0.6203
10913TIP3    H254231   6.310   3.842   4.545 -0.6391  1.4882 -0.2438
10914TIP3   OH254232   2.961   2.800   1.448 -0.0704 -0.3091  0.3816
10914TIP3    H154233   2.908   2.790   1.527  1.4685 -1.3942  1.2937
10914TIP3    H254234   2.967   2.712   1.411  0.1959 -0.0100 -0.2982
10915TIP3   OH254235   2.115   6.222  12.286  0.8652  0.4510  0.0950
10915TIP3    H154236   2.169   6.281  12.233  3.3866  1.8366  4.0290
10915TIP3    H254237   2.171   6.145  12.300 -0.4322 -0.6538 -0.5918
10916TIP3   OH254238   5.019   0.145   4.886  0.2247 -0.3722 -0.5661
10916TIP3    H154239   4.939   0.099   4.910  0.8671 -1.4112 -0.4021
10916TIP3    H254240   5.000   0.183   4.800  0.4656 -2.9322 -1.8147
10917TIP3   OH254241   6.106   2.140   1.561 -0.3207 -0.3033 -0.3227
10917TIP3    H154242   6.105   2.229   1.597 -0.3046  0.2494 -1.6822
10917TIP3    H254243   6.127   2.152   1.469  1.0550 -1.8314 -0.2172
10918TIP3   OH254244   0.248   6.285  16.962  0.4173 -0.9077  0.0993
10918TIP3    H154245   0.167   6.318  16.925  1.8062 -0.6958 -2.9314
10918TIP3    H254246   0.227   6.196  16.991 -1.5633  0.1186  1.9821
10919TIP3   OH254247   2.648   3.068  10.423 -0.1030 -0.0440 -0.5212
10919TIP3    H154248   2.603   3.029  10.498 -0.4400  1.0658 -0.1379
10919TIP3    H254249   2.582   3.072  10.354 -0.0935 -0.0675 -0.5308
10920TIP3   OH254250   2.059   5.505   5.723  0.0114  0.5744 -0.4349
10920TIP3    H154251   2.114   5.466   5.654  0.5459 -0.4598  0.5704
10920TIP3    H254252   1.969   5.493   5.692  0.2627  0.4984 -1.1489
10921TIP3   OH254253   0.752   6.090   5.041 -0.4845  0.2538  0.3001
10921TIP3    H154254   0.667   6.130   5.060 -0.5096 -0.6369  2.2475
10921TIP3    H254255   0.816   6.150   5.080 -0.2270  0.7054 -0.7928
10922TIP3   OH254256   6.081   2.121   4.476 -0.0502  0.1827 -0.4568
10922TIP3    H154257   5.995   2.089   4.451  0.1375 -0.6400 -0.0521
10922TIP3    H254258   6.067   2.169   4.557 -0.3722  1.3599 -1.1939
10923TIP3   OH254259   2.490   2.576  10.375 -0.0731  0.2756 -0.1704
10923TIP3    H154260   2.578   2.552  10.406  0.1819  2.3748  0.8449
10923TIP3    H254261   2.492   2.671  10.371 -2.1480  0.3111 -0.6992
10924TIP3   OH254262   4.813   6.683  12.529  0.1275 -0.4281 -0.0302
10924TIP3    H154263   4.751   6.707  12.598 -0.6200 -2.3827  0.0142
10924TIP3    H254264   4.771   6.611  12.483  1.2363 -0.0478 -1.6777
10925TIP3   OH254265   2.948   5.029  13.093  0.0984  0.3402  0.3112
10925TIP3    H154266   2.965   4.934  13.093  0.8266  0.3568 -3.9043
10925TIP3    H254267   2.853   5.035  13.087  0.1101 -0.1779 -0.5921
10926TIP3   OH254268   5.828   5.355  16.447 -0.1658  0.1777  0.3897
10926TIP3    H154269   5.773   5.288  16.489 -1.2929  0.9453  0.1508
10926TIP3    H254270   5.881   5.390  16.519  2.3677 -2.7662  0.0889
10927TIP3   OH254271   2.090   1.605  16.691 -0.5855 -0.4282  0.1237
10927TIP3    H154272   2.167   1.639  16.736 -1.2418  0.8291  0.3118
10927TIP3    H254273   2.120   1.587  16.602 -0.2416  0.7251 -0.0008
10928TIP3   OH254274   5.143   0.116  12.857 -0.1803  0.0974 -0.6790
10928TIP3    H154275   5.066   0.171  12.838 -0.1338  0.8840  1.2206
10928TIP3    H254276   5.209   0.144  12.794 -0.1652  2.2541  0.2499
10929TIP3   OH254277   5.954   5.344  13.165  0.0760 -0.5189  0.2808
10929TIP3    H154278   5.864   5.314  13.154  0.7778 -2.1943 -1.2424
10929TIP3    H254279   5.982   5.368  13.076  0.7827  0.9912  0.9060
10930TIP3   OH254280   0.085   2.591  11.756 -0.0556  0.0617  0.0615
10930TIP3    H154281   0.013   2.614  11.698 -1.3835 -1.9729  0.8943
10930TIP3    H254282   0.064   2.635  11.839 -0.6923 -1.0889  0.5130
10931TIP3   OH254283   1.754   5.614  10.925 -0.7283 -0.3395  0.1020
10931TIP3    H154284   1.706   5.677  10.980 -1.8136 -1.2250  0.1800
10931TIP3    H254285   1.800   5.558  10.988 -0.3398 -0.0786  0.0516
10932TIP3   OH254286   0.205   1.836   4.684 -0.5248 -0.1744  0.3918
10932TIP3    H154287   0.241   1.749   4.668  1.1173  0.7126 -0.9512
10932TIP3    H254288   0.248   1.867   4.764 -0.1414 -0.0803  0.1467
10933TIP3   OH254289   5.902   5.936   0.392  0.2642  0.6310 -0.1733
10933TIP3    H154290   5.906   5.988   0.472 -0.9739  2.6654 -1.3768
10933TIP3    H254291   5.959   5.982   0.331 -1.5452  1.1200 -1.5395
10934TIP3   OH254292   5.631   4.412  12.299  0.0584 -0.0406 -0.3102
10934TIP3    H154293   5.647   4.504  12.278  0.6520 -0.0955 -0.0938
10934TIP3    H254294   5.642   4.366  12.216  1.3241 -0.1168 -0.1095
10935TIP3   OH254295   3.056   3.567  16.653 -0.3085 -0.4955 -0.2470
10935TIP3    H154296   3.107   3.560  16.573 -1.0299  1.5129 -0.9109
10935TIP3    H254297   3.093   3.642  16.699  0.5732 -2.0455  1.6800
10936TIP3   OH254298   6.295   1.270  11.138  0.7695 -0.3316 -0.3339
10936TIP3    H154299   6.277   1.181  11.106 -2.0343 -0.8062  2.4077
10936TIP3    H254300   6.335   1.314  11.063 -0.6407 -2.9947 -2.7493
10937TIP3   OH254301   6.789   1.548  16.334  0.1621  0.5459  0.3225
10937TIP3    H154302   6.836   1.483  16.386  0.8746 -0.6751 -1.7626
10937TIP3    H254303   6.722   1.582  16.393  0.5311 -1.2455  1.8307
10938TIP3   OH254304   3.818   3.284  17.119  0.1385 -0.2263  0.0420
10938TIP3    H154305   3.861   3.198  17.114  0.4668 -0.0147 -0.7745
10938TIP3    H254306   3.762   3.278  17.197  1.9141 -0.3771  1.3267
10939TIP3   OH254307   1.472   1.366  15.078 -0.6726 -0.3089  0.3326
10939TIP3    H154308   1.497   1.444  15.126 -3.9696  1.3108 -0.4425
10939TIP3    H254309   1.378   1.356  15.095 -1.1728 -1.7366 -2.8830
10940TIP3   OH254310   3.614   3.569   4.549  0.1927 -0.6867 -0.0834
10940TIP3    H154311   3.623   3.586   4.455 -2.2869  0.2982 -0.1856
10940TIP3    H254312   3.674   3.630   4.590  0.8265 -0.6687 -1.0146
10941TIP3   OH254313   5.146   2.681   1.299  0.3511  0.1707 -0.2303
10941TIP3    H154314   5.148   2.621   1.374  0.4660  0.0259 -0.3493
10941TIP3    H254315   5.238   2.699   1.280  0.3032  1.4978  0.6854
10942TIP3   OH254316   3.180   4.637  11.225  0.6745  0.2971  0.1657
10942TIP3    H154317   3.162   4.722  11.266 -0.8995 -1.2802  2.9335
10942TIP3    H254318   3.118   4.632  11.152  0.8882  1.5824 -0.1150
10943TIP3   OH254319   2.421   5.228  10.423 -0.2528 -0.7432 -0.6800
10943TIP3    H154320   2.368   5.234  10.343  0.2024  1.5099 -0.8421
10943TIP3    H254321   2.490   5.293  10.411  0.2149 -0.8540  1.2735
10944TIP3   OH254322   1.107   5.385   4.753  0.0312 -0.1522  0.2466
10944TIP3    H154323   1.192   5.389   4.709  0.1356  0.3431  0.4957
10944TIP3    H254324   1.082   5.476   4.767 -1.1536 -0.2549 -1.0038
10945TIP3   OH254325   3.740   0.198   1.065  0.2443 -0.2313  0.6245
10945TIP3    H154326   3.824   0.234   1.095  0.9220 -0.2863 -1.0940
10945TIP3    H254327   3.712   0.259   0.997 -0.2748 -1.1168  0.0398
10946TIP3   OH254328   1.164   5.871   4.937  0.3371  0.0975  0.4304
10946TIP3    H154329   1.107   5.799   4.909 -0.4254  0.5156  0.8889
10946TIP3    H254330   1.125   5.949   4.897  0.0220  0.5181  1.5317
10947TIP3   OH254331   5.915   0.603  15.601  0.6701 -0.5360  0.2354
10947TIP3    H154332   5.971   0.661  15.652  3.8564 -2.1546 -1.2811
10947TIP3    H254333   5.876   0.544  15.665  0.9257  0.4092  1.2787
10948TIP3   OH254334   0.053   1.569  10.836  0.0243 -0.0026  0.2129
10948TIP3    H154335   0.047   1.531  10.924 -1.1135 -1.4322 -0.4593
10948TIP3    H254336  -0.024   1.535  10.790  0.8014  0.4503 -1.4527
10949TIP3   OH254337   2.655   3.416   5.423 -0.0369 -0.3423 -0.3908
10949TIP3    H154338   2.670   3.350   5.355  0.6397 -0.4446 -0.1455
10949TIP3    H254339   2.563   3.405   5.447 -0.0622 -0.8576 -0.7081
10950TIP3   OH254340   4.527   5.704  12.776 -0.3564 -0.2308  0.0280
10950TIP3    H154341   4.512   5.798  12.789 -1.6329 -0.1734 -1.7287
10950TIP3    H254342   4.486   5.664  12.853 -0.8914  0.5675  0.1708
10951TIP3   OH254343   0.809   1.970  16.585 -0.6926  0.1759 -0.8772
10951TIP3    H154344   0.780   1.895  16.533 -0.9240 -0.8276  0.6498
10951TIP3    H254345   0.813   1.936  16.675  4.6204  0.3946 -0.8824
10952TIP3   OH254346   1.810   1.154  14.379 -0.0781 -0.2648  0.0062
10952TIP3    H154347   1.896   1.131  14.342 -0.1313 -3.1214  1.5373
10952TIP3    H254348   1.830   1.187  14.467 -0.1894  4.0036 -1.4268
10953TIP3   OH254349   5.807   0.383  16.339 -0.5721 -0.0105 -0.4198
10953TIP3    H154350   5.806   0.319  16.410 -1.5976  0.9804  0.4871
10953TIP3    H254351   5.862   0.454  16.372 -2.7730  1.4166  0.2820
10954TIP3   OH254352   6.332   4.362  15.360 -1.0962  0.4481  0.2737
10954TIP3    H154353   6.288   4.297  15.305  0.4545 -0.2397 -0.1731
10954TIP3    H254354   6.282   4.443  15.347 -2.4450 -0.4100  0.0752
10955TIP3   OH254355   5.301   0.945  11.874 -0.2739  0.6391  0.2642
10955TIP3    H154356   5.220   0.982  11.841 -0.4027  1.3852  1.4015
10955TIP3    H254357   5.359   1.020  11.887  0.3378  0.1900  0.1915
10956TIP3   OH254358   0.136   6.270   0.725 -0.6122 -0.0065  0.6782
10956TIP3    H154359   0.210   6.269   0.785  0.0877 -1.6350 -0.1776
10956TIP3    H254360   0.174   6.291   0.639 -1.3977  0.9432  0.5594
10957TIP3   OH254361   1.171   3.836   6.440 -0.1002 -1.2260 -0.1442
10957TIP3    H154362   1.226   3.812   6.515 -1.7731  1.0330  1.8829
10957TIP3    H254363   1.094   3.781   6.448 -1.5943  1.0281  1.5262
10958TIP3   OH254364   3.760   3.127  13.300  0.3663  0.0239  0.7889
10958TIP3    H154365   3.711   3.209  13.290  0.6341  0.0499 -0.4518
10958TIP3    H254366   3.721   3.068  13.235  1.2456 -0.3026  0.5513
10959TIP3   OH254367   3.633   0.976   2.165  0.1948 -0.7950 -0.8270
10959TIP3    H154368   3.634   1.001   2.258 -0.0646 -1.0815 -0.7442
10959TIP3    H254369   3.680   1.047   2.121  0.1641 -0.5650 -0.4991
10960TIP3   OH254370   5.859   6.134  14.415  0.2773  0.2622 -0.1330
10960TIP3    H154371   5.814   6.195  14.357  0.0963 -0.1595 -0.4366
10960TIP3    H254372   5.811   6.140  14.498 -2.2622 -2.4179 -1.3343
10961TIP3   OH254373   4.278   3.152   6.286 -0.2285  0.5181  0.0796
10961TIP3    H154374   4.333   3.119   6.215  0.7449  2.7735 -0.2656
10961TIP3    H254375   4.339   3.199   6.343 -1.1402 -0.5495  1.9603
10962TIP3   OH254376   6.791   4.389  11.853  0.5710 -0.3350  0.4457
10962TIP3    H154377   6.712   4.336  11.855  0.0556  0.3116 -1.2182
10962TIP3    H254378   6.760   4.478  11.832  1.5115  0.4076  2.1146
10963TIP3   OH254379   6.688   0.430  12.721 -0.7623 -0.2100  0.7343
10963TIP3    H154380   6.722   0.519  12.730 -2.3201  0.1949  3.2890
10963TIP3    H254381   6.763   0.373  12.737 -0.5645  0.6724  3.1962
10964TIP3   OH254382   2.337   2.398  10.510  0.0577 -0.1627  1.0129
10964TIP3    H154383   2.389   2.450  10.448  1.1457 -1.0906  1.1360
10964TIP3    H254384   2.257   2.450  10.523  1.5563  1.9981  1.9332
10965TIP3   OH254385   4.984   3.751  15.151  0.6739  0.1380 -0.0038
10965TIP3    H154386   4.929   3.732  15.227 -0.4628 -0.0536 -0.8507
10965TIP3    H254387   4.954   3.689  15.084  1.0008  0.9427 -0.9087
10966TIP3   OH254388   3.668   0.261   5.283  0.0419 -0.3438 -0.4616
10966TIP3    H154389   3.750   0.217   5.304  0.0464  0.2351  0.7656
10966TIP3    H254390   3.680   0.351   5.314 -0.8747 -0.1229 -0.7177
10967TIP3   OH254391   3.907   2.884   4.855 -0.2562  0.0601 -0.1101
10967TIP3    H154392   3.977   2.828   4.822 -1.0413 -1.4127  0.7088
10967TIP3    H254393   3.897   2.952   4.788  0.1772 -1.1962 -1.4569
10968TIP3   OH254394   2.918   3.858  12.305  0.9462 -0.3852  0.2390
10968TIP3    H154395   2.936   3.814  12.388  2.3231  0.6066  0.4847
10968TIP3    H254396   2.913   3.787  12.240 -4.0130 -1.5844  1.7072
10969TIP3   OH254397   2.280   5.647  11.707 -0.1731  0.6760 -0.3942
10969TIP3    H154398   2.349   5.684  11.652  1.8034 -1.7232  0.3472
10969TIP3    H254399   2.254   5.567  11.662  0.2868 -0.4330  1.2437
10970TIP3   OH254400   5.997   4.992   5.411  0.4812 -0.3753 -0.0756
10970TIP3    H154401   5.992   4.904   5.373  1.0891 -0.1464 -0.7153
10970TIP3    H254402   6.079   5.028   5.376  0.6298  0.1555  0.8089
10971TIP3   OH254403   3.484   5.493  15.017  0.5271  0.3002 -0.2085
10971TIP3    H154404   3.569   5.452  15.000 -0.1878 -0.4465 -2.1040
10971TIP3    H254405   3.440   5.494  14.932 -1.2309  1.0104  0.6758
10972TIP3   OH254406   5.418   3.172   2.534 -0.5637  0.1062  0.1102
10972TIP3    H154407   5.510   3.151   2.518 -0.4809  0.3833  0.2182
10972TIP3    H254408   5.419   3.263   2.563 -1.1581  0.9877 -2.5317
10973TIP3   OH254409   2.481   3.038   2.978  0.3905  0.3162 -0.2030
10973TIP3    H154410   2.394   3.076   2.964  0.8403  0.9381 -1.4179
10973TIP3    H254411   2.468   2.974   3.048 -1.2004 -0.1055 -0.8528
10974TIP3   OH254412   0.845   5.290  13.723 -0.1022 -0.2168  0.9536
10974TIP3    H154413   0.891   5.220  13.676  0.6105  2.1297 -1.9420
10974TIP3    H254414   0.902   5.309  13.797  0.5336 -1.5301  0.8281
10975TIP3   OH254415   6.727   6.302   3.393 -0.0363 -0.0937  0.1496
10975TIP3    H154416   6.751   6.394   3.383 -1.1450  0.3230  1.1854
10975TIP3    H254417   6.676   6.299   3.474  0.5997 -1.7483  0.5119
10976TIP3   OH254418   5.827   5.686   0.260 -0.1647 -0.7883  0.3977
10976TIP3    H154419   5.888   5.747   0.302 -0.6573 -0.4184  0.5797
10976TIP3    H254420   5.800   5.731   0.180 -0.8867 -0.5579  0.7630
10977TIP3   OH254421   2.105   6.488  14.827  0.0679 -0.1926 -0.3590
10977TIP3    H154422   2.127   6.524  14.741  1.8757  1.3402  0.7013
10977TIP3    H254423   2.183   6.438  14.853 -0.2360 -0.1620  0.6332
10978TIP3   OH254424   1.398   5.898  14.335 -0.1119  0.6449  0.6777
10978TIP3    H154425   1.458   5.824  14.346 -0.3711  0.6631  2.2869
10978TIP3    H254426   1.437   5.969  14.386 -0.8837  1.0198  0.7533
10979TIP3   OH254427   4.796   6.440   2.658 -0.4190  0.0873  0.5744
10979TIP3    H154428   4.721   6.463   2.604 -0.3830  0.7837  0.8146
10979TIP3    H254429   4.819   6.521   2.703  0.6802 -0.0358  0.2595
10980TIP3   OH254430   2.512   0.032  16.255  0.1964 -0.3708  0.9915
10980TIP3    H154431   2.543   0.106  16.306  0.2246  0.3098  0.0028
10980TIP3    H254432   2.446  -0.010  16.311  0.8132 -0.1263  1.9085
10981TIP3   OH254433   3.286   1.764  12.336  0.2714  0.0146 -0.2985
10981TIP3    H154434   3.308   1.680  12.378  0.3967 -0.7400 -1.8561
10981TIP3    H254435   3.349   1.773  12.265 -0.7874  0.6317 -1.1847
10982TIP3   OH254436   5.703   5.541  14.791 -0.4252 -0.2679 -0.1082
10982TIP3    H154437   5.617   5.528  14.832 -0.3526  2.4624  1.0340
10982TIP3    H254438   5.764   5.496  14.850 -0.7749  0.2652  0.6818
10983TIP3   OH254439   1.848   3.655   5.116  0.4744  0.2191  0.1179
10983TIP3    H154440   1.879   3.746   5.116 -0.2898  0.4864  0.4777
10983TIP3    H254441   1.846   3.631   5.209 -1.8950  0.7327  0.2218
10984TIP3   OH254442   5.905   5.428  16.724  0.3250 -0.1200  0.1120
10984TIP3    H154443   5.859   5.489  16.783  1.1108  0.1903  0.4112
10984TIP3    H254444   5.988   5.410  16.768  0.8171 -0.0784 -0.7894
10985TIP3   OH254445   2.188   4.409   1.128  0.2321  0.5731 -0.1291
10985TIP3    H154446   2.179   4.315   1.140  0.5596  0.7268  1.4215
10985TIP3    H254447   2.227   4.418   1.041  1.9883 -0.8162  0.4844
10986TIP3   OH254448   3.715   2.559   5.425  0.2221  1.0805 -0.1152
10986TIP3    H154449   3.767   2.483   5.451  1.1164  1.8700  0.4454
10986TIP3    H254450   3.630   2.545   5.467 -0.4312 -0.7823 -1.9687
10987TIP3   OH254451   6.353   6.607   4.520  0.7152  0.0751  0.2137
10987TIP3    H154452   6.381   6.683   4.468  0.3457  1.4192  1.9309
10987TIP3    H254453   6.392   6.622   4.606 -1.7989 -0.1711  1.4283
10988TIP3   OH254454   1.403   3.811   6.284  0.3279 -0.5197  0.4261
10988TIP3    H154455   1.324   3.820   6.338  0.3674  0.3010  0.3651
10988TIP3    H254456   1.472   3.853   6.336  0.1652  1.1665 -0.6751
10989TIP3   OH254457   1.309   0.151   4.246  0.3598  0.1039  0.0858
10989TIP3    H154458   1.252   0.074   4.240 -0.1762  0.5175 -0.1671
10989TIP3    H254459   1.364   0.147   4.167 -1.2223  1.1992 -1.1184
10990TIP3   OH254460   5.776   3.676   2.157  0.5840 -0.0280  0.4901
10990TIP3    H154461   5.821   3.599   2.194 -1.7207 -1.1283  1.0803
10990TIP3    H254462   5.750   3.648   2.069  0.7083  0.4742  0.2928
10991TIP3   OH254463   2.384   0.371  15.746 -0.2052 -0.5922  0.0943
10991TIP3    H154464   2.301   0.408  15.773 -0.8675 -1.6401 -0.4623
10991TIP3    H254465   2.428   0.441  15.699 -1.3659 -0.4526 -0.7978
10992TIP3   OH254466   3.707   3.342   1.266 -0.2561 -0.5378  0.0373
10992TIP3    H154467   3.753   3.322   1.348 -1.0110  0.7324  0.7747
10992TIP3    H254468   3.643   3.272   1.257  0.6861 -1.3996 -0.1492
10993TIP3   OH254469   0.817   5.156   5.733 -0.2944  0.4045  0.8550
10993TIP3    H154470   0.739   5.202   5.763  1.1311  2.9026  0.8631
10993TIP3    H254471   0.888   5.220   5.741  1.3694 -1.0785 -1.2357
10994TIP3   OH254472   3.995   2.575  14.205  0.2243 -0.4596 -0.2809
10994TIP3    H154473   3.903   2.586  14.227  0.5468  0.9315  0.4867
10994TIP3    H254474   4.019   2.658  14.163  1.5088 -0.2038  0.9330
10995TIP3   OH254475   5.104   1.574   6.307 -0.3410  0.0700 -0.1711
10995TIP3    H154476   5.190   1.610   6.327 -0.3267 -0.3189  0.4774
10995TIP3    H254477   5.044   1.648   6.317 -0.1959  0.1301  0.2500
10996TIP3   OH254478   5.821   6.464  13.704 -0.5338  0.6212 -0.3553
10996TIP3    H154479   5.805   6.436  13.614 -1.1004  2.2320 -0.7723
10996TIP3    H254480   5.800   6.387  13.757 -0.8643 -0.1263 -1.5431
10997TIP3   OH254481   0.324   1.679  15.081  0.3677  0.2354  0.4831
10997TIP3    H154482   0.377   1.642  15.010  0.6825  1.3894  0.1123
10997TIP3    H254483   0.348   1.627  15.158 -1.5821 -2.4703 -0.6658
10998TIP3   OH254484   3.951   2.401   5.531  0.1152  0.0119  0.3029
10998TIP3    H154485   3.901   2.385   5.612  0.1753 -3.0562 -0.1948
10998TIP3    H254486   4.026   2.342   5.538  1.0865  1.0439 -1.1959
10999TIP3   OH254487   1.137   2.577  15.639 -0.0521  0.1395  0.0837
10999TIP3    H154488   1.139   2.587  15.544  1.0815 -1.4792 -0.0787
10999TIP3    H254489   1.199   2.507  15.657 -0.8796 -0.1314  1.9625
11000TIP3   OH254490   5.213   3.005   3.910 -0.1829  0.1876  0.0945
11000TIP3    H154491   5.155   3.076   3.938 -0.2356  0.3886 -0.5195
11000TIP3    H254492   5.154   2.934   3.886 -0.1996  0.5182 -0.8782
11001TIP3   OH254493   2.130   3.408  11.255 -0.3673  0.0588  0.0256
11001TIP3    H154494   2.114   3.373  11.342 -0.1435  0.5667  0.2664
11001TIP3    H254495   2.221   3.436  11.255 -0.3191 -0.0809 -0.4211
11002TIP3   OH254496   1.625   1.415   5.163  0.1321 -0.2065  0.2278
11002TIP3    H154497   1.578   1.419   5.246 -1.2847  0.8390 -0.5898
11002TIP3    H254498   1.694   1.480   5.172 -0.1127  0.0142  0.5423
11003TIP3   OH254499   1.806   5.525  13.256 -0.5229  0.0829 -0.6172
11003TIP3    H154500   1.768   5.438  13.269  1.8801 -1.1085 -1.2743
11003TIP3    H254501   1.781   5.573  13.335  0.7682 -2.2045  1.2527
11004TIP3   OH254502   5.431   1.068   3.712 -1.0914 -0.2265  0.2732
11004TIP3    H154503   5.509   1.122   3.729 -0.2987 -0.9625 -0.9023
11004TIP3    H254504   5.394   1.105   3.632 -1.3864 -0.5014  0.2835
11005TIP3   OH254505   5.467   2.390   3.074  0.3701  0.4467  0.4445
11005TIP3    H154506   5.462   2.367   2.981  1.2713 -0.2444  0.5625
11005TIP3    H254507   5.557   2.419   3.087 -0.1408  1.9019  0.7966
11006TIP3   OH254508   0.660   4.475  10.831  0.1030  0.4803  0.0673
11006TIP3    H154509   0.730   4.460  10.768  0.4110  0.1438  0.4897
11006TIP3    H254510   0.591   4.415  10.804  1.3042 -1.7069  1.7011
11007TIP3   OH254511   0.120   3.279   3.247 -0.0365  0.5450  0.1443
11007TIP3    H154512   0.055   3.306   3.312  0.1182  2.0375 -0.3074
11007TIP3    H254513   0.192   3.341   3.258 -0.0468  0.8699 -1.5336
11008TIP3   OH254514   1.709   5.183   2.419  0.1364  0.6181 -0.3022
11008TIP3    H154515   1.798   5.187   2.454 -0.3980 -0.2834  1.2185
11008TIP3    H254516   1.659   5.135   2.485 -1.6460  1.7491 -0.7688
11009TIP3   OH254517   2.334   0.421  15.365  0.2578  0.5180  0.2640
11009TIP3    H154518   2.343   0.514  15.344  0.2302  0.1538 -1.4324
11009TIP3    H254519   2.249   0.415  15.409 -1.0022  0.9265 -2.0158
11010TIP3   OH254520   4.915   0.713  12.256  0.0458 -0.8311  0.1056
11010TIP3    H154521   4.953   0.625  12.266 -0.1482 -0.8260  0.8667
11010TIP3    H254522   4.991   0.768  12.236  0.1928 -1.1394 -0.2100
11011TIP3   OH254523   3.768   2.008   0.415 -0.5166  0.0693  0.3690
11011TIP3    H154524   3.787   2.086   0.363 -0.6251  0.2451  0.5955
11011TIP3    H254525   3.761   1.937   0.350  1.1561 -0.0442  0.2871
11012TIP3   OH254526   0.683   4.019   6.351 -0.4088  0.3651  0.4117
11012TIP3    H154527   0.769   4.052   6.378 -0.1376 -0.0819  0.1001
11012TIP3    H254528   0.703   3.941   6.298 -1.0471 -0.4600  1.3683
11013TIP3   OH254529   2.704   5.193   2.855 -0.4545 -0.7410  0.4386
11013TIP3    H154530   2.626   5.160   2.809 -0.5709  0.5612 -0.3326
11013TIP3    H254531   2.669   5.242   2.929 -0.4249  0.7492 -0.5142
11014TIP3   OH254532   1.986   1.361   0.983  1.2007  1.0123 -0.3830
11014TIP3    H154533   1.966   1.437   1.037  0.8860  0.6872 -0.0410
11014TIP3    H254534   2.007   1.291   1.045  0.2361  0.4703 -0.6488
11015TIP3   OH254535   1.676   5.176   0.535  0.3576  0.0914 -0.4390
11015TIP3    H154536   1.677   5.164   0.630  2.9639 -0.3921 -0.5179
11015TIP3    H254537   1.667   5.088   0.499 -1.8800  0.3758 -0.6548
11016TIP3   OH254538   4.185   5.910   5.178 -0.1363 -0.2736 -0.6312
11016TIP3    H154539   4.223   5.832   5.136  1.8594  0.7309 -0.7885
11016TIP3    H254540   4.170   5.971   5.106  2.3751  1.0843 -0.0801
11017TIP3   OH254541   6.568   1.904  16.648 -0.3787  0.6708 -0.0956
11017TIP3    H154542   6.600   1.985  16.687 -1.2271  0.6814  0.6065
11017TIP3    H254543   6.540   1.929  16.560  1.7369  0.6068 -0.7976
11018TIP3   OH254544   3.733   3.979  15.667 -0.3268  0.8776  0.2799
11018TIP3    H154545   3.735   4.071  15.638  2.8326  1.1363  1.1756
11018TIP3    H254546   3.783   3.932  15.601 -1.7584 -0.2132 -0.0548
11019TIP3   OH254547   6.271   1.476   1.012 -0.2540  0.4698  0.6572
11019TIP3    H154548   6.274   1.483   1.107 -0.8831  0.9992  0.6426
11019TIP3    H254549   6.363   1.473   0.985 -0.0771  0.3272  1.2785
11020TIP3   OH254550   1.129   4.235  15.858 -0.2945 -0.2370  0.7067
11020TIP3    H154551   1.069   4.297  15.818  0.0893 -0.2444  0.1182
11020TIP3    H254552   1.112   4.152  15.813  1.1535  0.0882 -0.4548
11021TIP3   OH254553   6.501   3.332  12.771  0.4813  0.3507  0.1254
11021TIP3    H154554   6.504   3.248  12.725 -0.5963  0.5326 -0.2988
11021TIP3    H254555   6.582   3.376  12.746  0.5534 -0.1250 -0.5050
11022TIP3   OH254556   0.146   4.286  13.223 -0.0740  0.3965  0.6673
11022TIP3    H154557   0.189   4.369  13.246  0.2208  0.0066  1.5623
11022TIP3    H254558   0.158   4.231  13.301  2.8548 -1.7563 -1.2174
11023TIP3   OH254559   0.500   1.902  11.729 -0.1860 -0.3607 -0.5160
11023TIP3    H154560   0.446   1.826  11.750 -0.8005  0.0806 -0.4804
11023TIP3    H254561   0.546   1.877  11.649 -2.1879  0.1084 -1.8630
11024TIP3   OH254562   0.324   3.404  13.659 -0.0685  0.0892 -0.3356
11024TIP3    H154563   0.402   3.458  13.647 -0.6118  0.8371 -0.5476
11024TIP3    H254564   0.260   3.462  13.699  0.1210 -1.0599  1.7361
11025TIP3   OH254565   3.425   2.931   0.288 -0.4433  0.1094 -0.6919
11025TIP3    H154566   3.341   2.892   0.266 -0.9816 -0.3190  1.9939
11025TIP3    H254567   3.440   2.908   0.379  2.2876  0.7385 -0.9166
11026TIP3   OH254568   1.993   2.192   0.442  0.0274 -0.5264 -0.2977
11026TIP3    H154569   1.912   2.192   0.391  0.8002 -2.1982 -1.5848
11026TIP3    H254570   2.025   2.102   0.436  2.8300  0.4576 -1.2330
11027TIP3   OH254571   6.724   2.746  14.345  0.0781  0.6676  0.0561
11027TIP3    H154572   6.787   2.711  14.408 -0.4027  0.3603  0.3716
11027TIP3    H254573   6.772   2.815  14.300  0.9742 -0.2465 -0.4282
11028TIP3   OH254574   5.049   2.272   2.776 -0.6819  0.9073  0.2577
11028TIP3    H154575   4.988   2.238   2.711 -0.9047  1.8768 -0.0556
11028TIP3    H254576   5.038   2.367   2.771  0.1506  1.0401  0.8863
11029TIP3   OH254577   4.335   5.092   4.912 -0.2097  0.0724 -0.2985
11029TIP3    H154578   4.258   5.098   4.856 -0.4110  0.6909  0.0378
11029TIP3    H254579   4.311   5.141   4.991 -0.3400 -1.7241  0.8076
11030TIP3   OH254580   4.066   6.073  17.158  0.2225 -0.0847  0.2908
11030TIP3    H154581   4.059   6.162  17.124  0.6148  0.8390  2.5054
11030TIP3    H254582   4.147   6.039  17.120  0.0139  0.4679 -0.6592
11031TIP3   OH254583   1.508   2.684  15.544 -0.5312  0.2868  0.0769
11031TIP3    H154584   1.466   2.669  15.629 -0.6484 -2.6778 -0.4692
11031TIP3    H254585   1.586   2.629  15.546 -1.3154 -0.9613 -2.3064
11032TIP3   OH254586   0.976   1.301   2.977 -0.2297 -0.0497 -0.7728
11032TIP3    H154587   1.037   1.236   2.940  0.0223 -0.6602  0.6940
11032TIP3    H254588   1.030   1.353   3.037 -1.1080 -0.4915  0.4172
11033TIP3   OH254589   0.722   6.215  11.052  0.4034  0.0228  0.0205
11033TIP3    H154590   0.706   6.271  10.977 -0.9016 -0.3702 -0.0179
11033TIP3    H254591   0.669   6.136  11.035  1.1348 -0.6273  0.7141
11034TIP3   OH254592   2.278   5.605  15.624  0.0642  0.2466 -0.0371
11034TIP3    H154593   2.237   5.524  15.654  1.0432 -1.0742 -2.1073
11034TIP3    H254594   2.262   5.668  15.694  2.5339 -2.7134  3.3694
11035TIP3   OH254595   2.639   3.576   1.683  0.4970 -0.3886  0.2725
11035TIP3    H154596   2.735   3.582   1.685  0.3931  1.0639  3.3039
11035TIP3    H254597   2.620   3.497   1.733  0.0503  0.4351  1.4128
11036TIP3   OH254598   4.095   2.754   3.539 -0.1998 -0.5715  0.0496
11036TIP3    H154599   4.001   2.758   3.561  0.0363  1.4552  0.8488
11036TIP3    H254600   4.104   2.812   3.463  0.0996 -2.3078 -1.2612
11037TIP3   OH254601   0.450   3.195   2.191  0.3952  0.0630 -0.3900
11037TIP3    H154602   0.405   3.244   2.122  0.2946  0.0186 -0.3564
11037TIP3    H254603   0.481   3.116   2.147 -1.2906 -0.8555  0.0331
11038TIP3   OH254604   1.251   2.501   6.500 -0.1718 -0.1193  0.0562
11038TIP3    H154605   1.308   2.485   6.574 -0.7107 -1.8290  0.1231
11038TIP3    H254606   1.291   2.452   6.427 -1.0674 -0.6353 -0.1027
11039TIP3   OH254607   5.524   0.648   3.180 -0.0327 -0.4980  0.2011
11039TIP3    H154608   5.579   0.578   3.214 -1.6070 -1.3954  0.9286
11039TIP3    H254609   5.525   0.714   3.250 -1.1656 -1.2187  0.9183
11040TIP3   OH254610   3.660   2.946  14.961  0.0396  0.0615 -0.2515
11040TIP3    H154611   3.682   2.908  15.046  1.6531 -0.0541 -0.7053
11040TIP3    H254612   3.743   2.948  14.913 -0.7055  0.8352 -1.5475
11041TIP3   OH254613   4.051   6.551   4.007 -0.7042 -0.1554  0.0462
11041TIP3    H154614   4.041   6.488   4.078 -0.8172  0.2854  0.4219
11041TIP3    H254615   4.131   6.524   3.961 -0.7565 -0.5725  0.2054
11042TIP3   OH254616   2.684   5.043   4.537  0.1470 -0.2603 -0.3125
11042TIP3    H154617   2.741   4.966   4.535 -3.2563 -2.9442  0.5862
11042TIP3    H254618   2.693   5.078   4.626  0.3557 -0.6992 -0.1612
11043TIP3   OH254619   2.331   2.299  11.415 -0.1754  0.4759  0.0561
11043TIP3    H154620   2.266   2.250  11.466  0.7463  0.0186  0.7952
11043TIP3    H254621   2.298   2.388  11.414 -1.8043 -0.1164 -1.1842
11044TIP3   OH254622   0.926   6.037   4.178  0.0470 -0.6479 -0.4121
11044TIP3    H154623   0.905   6.047   4.085  0.3454 -0.6749 -0.4822
11044TIP3    H254624   0.872   5.963   4.207  0.8117 -1.3867 -0.8371
11045TIP3   OH254625   5.466   3.616   1.993 -0.4173 -0.1923  0.1261
11045TIP3    H154626   5.469   3.711   2.008  2.8522 -0.4448  1.3287
11045TIP3    H254627   5.414   3.582   2.066 -0.8182  0.5628  0.2048
11046TIP3   OH254628   5.751   0.975  10.499  0.4409 -0.4172  0.4521
11046TIP3    H154629   5.775   0.887  10.470  0.8967  0.3637 -1.6077
11046TIP3    H254630   5.827   1.029  10.479 -0.8498  0.9731 -0.8341
11047TIP3   OH254631   6.813   2.921   5.776  0.2499 -0.0624  0.2624
11047TIP3    H154632   6.798   2.893   5.866  0.6937  4.9268  2.0244
11047TIP3    H254633   6.725   2.939   5.742  0.2646  0.7396  0.6459
11048TIP3   OH254634   3.503   5.991   0.720  0.6742  0.3254  0.0953
11048TIP3    H154635   3.499   5.969   0.813  1.3162  0.2714  0.1129
11048TIP3    H254636   3.420   6.033   0.702  0.6783  0.6291  0.7686
11049TIP3   OH254637   3.212   2.829   4.014  0.0812  0.1499 -0.2350
11049TIP3    H154638   3.238   2.917   4.042 -0.7364 -0.0693  1.2791
11049TIP3    H254639   3.274   2.771   4.058  0.5938 -0.0421 -1.2011
11050TIP3   OH254640   1.785   5.685   0.799  0.2874 -0.0624  0.4177
11050TIP3    H154641   1.760   5.724   0.883 -0.0075  0.2170  0.2018
11050TIP3    H254642   1.826   5.602   0.822  4.2646  1.9830  1.1296
11051TIP3   OH254643   3.909   5.603   6.126 -0.0892  0.0957 -0.5314
11051TIP3    H154644   3.857   5.541   6.074  0.8274 -1.2400  0.1091
11051TIP3    H254645   3.994   5.604   6.082  0.2847 -0.0475  0.1921
11052TIP3   OH254646   4.779   5.938   6.526  0.0439 -0.3354  0.4582
11052TIP3    H154647   4.857   5.932   6.581 -0.2183  1.6489  1.1006
11052TIP3    H254648   4.712   5.973   6.585 -0.8692 -0.4198 -0.5358
11053TIP3   OH254649   0.843   3.842  13.422  0.6240  0.2185 -0.0800
11053TIP3    H154650   0.884   3.830  13.508  0.0553  1.0509  0.3209
11053TIP3    H254651   0.902   3.902  13.376 -0.5820  2.2026  0.8518
11054TIP3   OH254652   3.898   6.254  13.490 -0.6646 -0.5009  0.1764
11054TIP3    H154653   3.970   6.292  13.540 -2.3539 -0.2047  2.4429
11054TIP3    H254654   3.924   6.265  13.399  1.5591  0.7646  0.9224
11055TIP3   OH254655   4.497   3.450   0.020 -0.0675 -0.0675  0.2656
11055TIP3    H154656   4.502   3.543   0.042 -0.2666  0.0713 -0.2598
11055TIP3    H254657   4.417   3.441  -0.031  0.6441 -0.2733 -0.8381
11056TIP3   OH254658   4.926   0.286   4.612  0.2869 -0.8166 -0.8050
11056TIP3    H154659   5.019   0.289   4.590  0.4412 -0.1950 -0.1066
11056TIP3    H254660   4.892   0.371   4.583  0.0423 -0.8488 -0.6164
11057TIP3   OH254661   1.022   1.676   6.463 -0.8627  0.1327  0.1328
11057TIP3    H154662   0.984   1.748   6.514 -0.5922  0.3937 -0.0373
11057TIP3    H254663   1.089   1.639   6.520  1.1373  1.9727 -0.9630
11058TIP3   OH254664   1.959   6.010  16.916 -0.2340 -0.0520  0.1803
11058TIP3    H154665   1.966   6.090  16.864 -1.6258 -0.2232 -0.2788
11058TIP3    H254666   1.953   5.940  16.852 -0.4387 -0.3944  0.5759
11059TIP3   OH254667   5.869   5.524   4.811  0.1436 -0.2323 -0.0952
11059TIP3    H154668   5.872   5.594   4.745 -0.3805 -0.7389 -0.6662
11059TIP3    H254669   5.797   5.469   4.783 -0.8010  0.1543  1.5364
11060TIP3   OH254670   6.729   5.380  11.501 -0.5870 -0.3479  0.0818
11060TIP3    H154671   6.739   5.296  11.547 -1.5352 -1.0068 -0.8692
11060TIP3    H254672   6.785   5.441  11.549  0.1788 -1.5466  0.7427
11061TIP3   OH254673   0.077   2.551   3.984  0.7671 -0.1958  0.5563
11061TIP3    H154674   0.003   2.607   4.009 -1.3153 -3.0861  1.1592
11061TIP3    H254675   0.104   2.510   4.067  4.0358  1.8703  0.6033
11062TIP3   OH254676   3.958   6.012  15.051  0.3470 -0.2317  0.3138
11062TIP3    H154677   3.931   6.069  15.124  1.8125 -1.0852  1.5564
11062TIP3    H254678   4.053   6.015  15.053  0.4279 -2.0514 -0.1299
11063TIP3   OH254679   4.214   0.540  16.519 -0.4193  0.3313 -0.1403
11063TIP3    H154680   4.239   0.466  16.576 -0.1927  0.3998 -0.1495
11063TIP3    H254681   4.174   0.603  16.579 -2.3260 -0.5843 -0.4109
11064TIP3   OH254682   3.535   4.147   2.908 -0.0996 -0.0880  0.3010
11064TIP3    H154683   3.559   4.088   2.979 -0.0810 -0.1664  0.2304
11064TIP3    H254684   3.563   4.101   2.828  0.1325  0.1228  0.2605
11065TIP3   OH254685   0.459   4.891  16.238  0.1782  0.1367  0.1967
11065TIP3    H154686   0.455   4.981  16.206  1.4905 -0.7270 -2.5712
11065TIP3    H254687   0.547   4.883  16.275  0.5868 -0.4372 -0.9043
11066TIP3   OH254688   5.645   2.965   0.529  0.0819  0.2422  0.4985
11066TIP3    H154689   5.585   3.039   0.534  0.0985  0.1551  2.2720
11066TIP3    H254690   5.731   3.003   0.548  0.7353  0.5047 -2.7602
11067TIP3   OH254691   4.673   3.825   5.117  0.0098 -0.1593  0.4570
11067TIP3    H154692   4.587   3.823   5.159  0.0742 -0.2362  0.5865
11067TIP3    H254693   4.734   3.849   5.188  0.6474 -3.9765  1.3460
11068TIP3   OH254694   0.263   3.935  14.913 -0.2107 -1.0484 -0.0584
11068TIP3    H154695   0.273   3.857  14.858 -1.7962 -1.2484 -0.0961
11068TIP3    H254696   0.238   3.900  14.998 -0.5274 -0.5974  0.0333
11069TIP3   OH254697   6.184   1.414  14.312 -0.0732 -0.0810 -0.0559
11069TIP3    H154698   6.123   1.468  14.363 -0.1485  0.3456 -0.5838
11069TIP3    H254699   6.193   1.461  14.229 -0.0267 -0.8159 -0.4704
11070TIP3   OH254700   1.065   4.740  16.823 -0.3488  0.0271 -0.0637
11070TIP3    H154701   1.036   4.660  16.867 -0.8965 -0.0370 -0.5263
11070TIP3    H254702   1.144   4.766  16.869 -1.0506  0.0960  1.1181
11071TIP3   OH254703   1.859   0.215   0.650 -0.8653 -0.0426 -0.2090
11071TIP3    H154704   1.955   0.211   0.653 -0.8532  1.3109  1.5557
11071TIP3    H254705   1.833   0.235   0.740 -2.8624 -1.2459 -0.4868
11072TIP3   OH254706   6.086   0.412  12.147  0.0814  0.2821 -0.0754
11072TIP3    H154707   6.158   0.377  12.200 -0.9601 -2.4615 -0.3605
11072TIP3    H254708   6.016   0.428  12.210 -0.8255 -2.0741 -0.4087
11073TIP3   OH254709   0.667   4.198   2.012  0.3381  0.2130  0.0835
11073TIP3    H154710   0.715   4.133   1.961 -0.3031 -0.3338  0.1694
11073TIP3    H254711   0.702   4.282   1.983  1.8356 -0.1900  0.6377
11074TIP3   OH254712   1.131   5.693  16.732 -0.0748  0.0319  0.8185
11074TIP3    H154713   1.212   5.679  16.780  1.7301 -0.9396 -2.3893
11074TIP3    H254714   1.097   5.605  16.715 -1.5045  0.4097  1.6006
11075TIP3   OH254715   1.052   5.470   0.889 -0.1503  0.0485 -0.3877
11075TIP3    H154716   1.037   5.411   0.815  0.5187  0.6504 -1.0126
11075TIP3    H254717   1.147   5.470   0.902 -0.1932  0.5640 -0.0436
11076TIP3   OH254718   3.635   6.733  15.033  0.0750 -0.4624  0.1947
11076TIP3    H154719   3.615   6.815  14.987 -1.7349 -0.6911  0.5412
11076TIP3    H254720   3.720   6.749  15.074  0.8268  0.4279 -1.6222
11077TIP3   OH254721   4.249   5.674  13.246  0.4078 -0.0041 -0.4409
11077TIP3    H154722   4.329   5.725  13.261  0.4866  0.1058 -1.2248
11077TIP3    H254723   4.253   5.603  13.310  2.1220 -1.1435 -1.7629
11078TIP3   OH254724   0.699   3.628  14.275  0.7631 -0.5304 -0.0870
11078TIP3    H154725   0.725   3.542  14.309 -0.0399 -1.1212 -0.9282
11078TIP3    H254726   0.631   3.658  14.334  0.5343 -0.8057 -0.2082
11079TIP3   OH254727   5.076   3.304   4.602  0.0064  0.2508 -0.2728
11079TIP3    H154728   5.103   3.213   4.611 -0.7173 -0.2611 -2.8555
11079TIP3    H254729   4.984   3.304   4.628  0.2871  0.4653  0.7474
11080TIP3   OH254730   3.055   2.479  14.102  0.3059 -0.4219  0.2170
11080TIP3    H154731   3.058   2.399  14.048  2.5781  0.2548 -0.7417
11080TIP3    H254732   3.087   2.451  14.188 -0.7647 -0.9311  0.4644
11081TIP3   OH254733   4.116   0.441   0.261 -0.3171 -0.9221 -0.6003
11081TIP3    H154734   4.051   0.466   0.326  2.0258  0.9421  1.0836
11081TIP3    H254735   4.160   0.365   0.298  0.5366 -0.2908 -0.2930
11082TIP3   OH254736   5.919   2.899   5.282 -0.1763 -0.0642  0.0001
11082TIP3    H154737   5.916   2.810   5.248  0.7233  0.0135 -0.3013
11082TIP3    H254738   5.906   2.890   5.376 -0.9098 -0.4371 -0.1348
11083TIP3   OH254739   5.522   3.765  15.185 -0.8420  0.5681 -0.3814
11083TIP3    H154740   5.539   3.712  15.108 -2.0499  0.7898 -0.8057
11083TIP3    H254741   5.427   3.767  15.194 -0.7298  0.6280  1.0610
11084TIP3   OH254742   5.306   3.104  14.875 -0.6308  0.0254 -0.1531
11084TIP3    H154743   5.213   3.080  14.883 -0.1718 -1.8296  0.0017
11084TIP3    H254744   5.333   3.121  14.965 -0.3583 -1.3383  0.0332
11085TIP3   OH254745   1.286   2.686  14.759  0.1130  0.1185  0.2662
11085TIP3    H154746   1.212   2.626  14.747 -0.4059  0.7875  0.1299
11085TIP3    H254747   1.278   2.717  14.849  0.9486 -0.7668  0.6589
11086TIP3   OH254748   3.826   4.102  11.972  0.2145  0.3233 -0.5381
11086TIP3    H154749   3.796   4.011  11.974  0.3788  0.2697 -0.4492
11086TIP3    H254750   3.829   4.124  11.879  0.3282  0.1859 -0.5677
11087TIP3   OH254751   1.364   4.436  11.153  0.1475 -0.1155 -0.2168
11087TIP3    H154752   1.371   4.514  11.099  0.5139  1.1264  1.5713
11087TIP3    H254753   1.368   4.363  11.091 -0.5713  1.2826 -1.9422
11088TIP3   OH254754   0.036   5.316   4.370 -0.0326  0.1503  0.3580
11088TIP3    H154755  -0.040   5.291   4.423  0.5268 -1.6315  0.3519
11088TIP3    H254756   0.111   5.288   4.422  0.5272 -1.8725 -1.4422
11089TIP3   OH254757   0.285   0.214   5.926  0.5256  0.1739 -0.3927
11089TIP3    H154758   0.362   0.174   5.886  1.0873  1.0256 -0.1680
11089TIP3    H254759   0.314   0.300   5.954 -0.9903  1.2779 -2.0467
11090TIP3   OH254760   2.583   5.883   4.511  0.0558 -0.5745  0.4905
11090TIP3    H154761   2.642   5.816   4.479  0.5408 -0.1758  0.5543
11090TIP3    H254762   2.635   5.963   4.512 -0.2384 -0.3851  1.3176
11091TIP3   OH254763   0.335   3.378  13.970  0.2558  0.0047  0.0507
11091TIP3    H154764   0.282   3.308  14.006  0.2565 -0.4220 -0.7617
11091TIP3    H254765   0.273   3.434  13.924  0.3455  0.1830  0.1453
11092TIP3   OH254766   1.922   0.257  11.910 -0.7182 -0.0635  0.3781
11092TIP3    H154767   1.945   0.166  11.933  0.8517  0.1053 -0.4352
11092TIP3    H254768   1.906   0.254  11.816  0.1531  0.6575  0.2011
11093TIP3   OH254769   1.468   4.700  11.336  0.1079 -0.0605  0.1805
11093TIP3    H154770   1.512   4.693  11.420  0.6278 -0.4183 -0.1150
11093TIP3    H254771   1.482   4.791  11.309  2.5964 -0.7194 -0.9303
11094TIP3   OH254772   1.306   3.752   6.669  0.6501  0.0486  0.1553
11094TIP3    H154773   1.399   3.776   6.667  0.9975 -1.1799  0.8899
11094TIP3    H254774   1.294   3.712   6.755 -0.2605 -0.9893 -0.4475
11095TIP3   OH254775   6.501   1.112  16.768 -0.3358  0.2087  0.3251
11095TIP3    H154776   6.540   1.199  16.762  0.3888 -0.2640 -2.4274
11095TIP3    H254777   6.560   1.064  16.827  0.7165  0.8655 -0.1686
11096TIP3   OH254778   6.307   4.087   4.825 -0.2106  0.1866 -0.0714
11096TIP3    H154779   6.288   4.095   4.732  1.7264  0.0665 -0.4949
11096TIP3    H254780   6.235   4.035   4.861 -0.9501  0.2228 -1.4980
11097TIP3   OH254781   1.350   3.317   1.813 -0.4205 -0.2459  0.6946
11097TIP3    H154782   1.428   3.266   1.837 -0.4871 -0.0210  1.3891
11097TIP3    H254783   1.310   3.266   1.741  0.1089 -0.6011  0.6468
11098TIP3   OH254784   5.416   2.403  15.829 -0.4052 -0.4732 -0.5790
11098TIP3    H154785   5.357   2.449  15.889  0.3665 -0.5389  0.2557
11098TIP3    H254786   5.497   2.393  15.880 -0.4935 -2.5719 -0.8159
11099TIP3   OH254787   1.370   1.854  14.378  0.1542 -0.0735 -0.2671
11099TIP3    H154788   1.336   1.941  14.401  0.1170 -0.6279  1.9084
11099TIP3    H254789   1.296   1.795  14.390  1.2084 -0.9585  2.2519
11100TIP3   OH254790   6.014   5.958  14.742 -0.2175  0.6616 -0.0715
11100TIP3    H154791   6.088   5.984  14.797 -0.7704 -0.2562  1.1117
11100TIP3    H254792   5.942   6.014  14.772 -0.7319 -0.4075  0.7119
11101TIP3   OH254793   0.276   4.077  12.480  0.3331 -0.2189  0.5648
11101TIP3    H154794   0.235   3.991  12.490 -0.7759  0.3867  1.4628
11101TIP3    H254795   0.248   4.125  12.558  1.9766  0.5411  0.6928
11102TIP3   OH254796   3.531   3.932   1.158 -0.4142 -0.4521  0.0110
11102TIP3    H154797   3.547   4.020   1.193 -0.5435  0.2411 -1.5910
11102TIP3    H254798   3.517   3.877   1.235  1.5559  0.5455  1.1063
11103TIP3   OH254799   6.010   4.684  10.485 -0.2911  0.2542  0.0407
11103TIP3    H154800   5.951   4.678  10.410 -1.0196 -0.0881  0.6347
11103TIP3    H254801   6.095   4.656  10.451 -0.4834  0.6803 -0.8032
11104TIP3   OH254802   4.961   3.239   2.136 -0.5041 -0.1785  0.2610
11104TIP3    H154803   5.050   3.250   2.170 -1.1194  2.8424  0.9882
11104TIP3    H254804   4.936   3.151   2.164  2.0717 -0.9120  0.4222
11105TIP3   OH254805   0.625   1.973   5.405 -0.3273 -0.0542  0.1855
11105TIP3    H154806   0.619   2.017   5.490 -1.2161 -0.3830  0.3032
11105TIP3    H254807   0.714   1.940   5.401 -0.7260 -1.3839  1.6678
11106TIP3   OH254808   2.850   3.256   1.239 -0.4261 -0.1989 -0.1305
11106TIP3    H154809   2.810   3.179   1.280  1.2457 -0.4927  1.0122
11106TIP3    H254810   2.812   3.330   1.285 -0.5963 -0.4307  0.1030
11107TIP3   OH254811   3.864   2.459  12.043 -0.1309  0.5144  0.0543
11107TIP3    H154812   3.813   2.539  12.034  0.1203  0.5802 -0.8617
11107TIP3    H254813   3.955   2.488  12.047 -0.0715  0.3089  0.1910
11108TIP3   OH254814   2.175   5.230   3.482 -0.1079  0.3316  0.4788
11108TIP3    H154815   2.080   5.237   3.478 -0.0349  1.1926  0.0992
11108TIP3    H254816   2.194   5.220   3.575 -0.5964 -0.2946  0.5144
11109TIP3   OH254817   1.472   2.449  16.311  0.2748  0.4426  0.5111
11109TIP3    H154818   1.442   2.487  16.229  0.5802 -0.6256 -0.1142
11109TIP3    H254819   1.551   2.498  16.334  0.1258  0.8145  0.2210
11110TIP3   OH254820   0.051   1.842  16.471 -0.0252 -0.6207  0.1426
11110TIP3    H154821  -0.016   1.779  16.498 -0.6580 -0.5145 -1.1327
11110TIP3    H254822   0.078   1.885  16.552 -0.5344 -1.6144  0.8474
11111TIP3   OH254823   6.068   0.242  16.186 -0.0626  0.0934  0.4726
11111TIP3    H154824   6.003   0.171  16.187  1.0825 -1.0689 -1.9912
11111TIP3    H254825   6.036   0.302  16.119 -0.5050  1.4462  1.8636
11112TIP3   OH254826   2.052   2.291  13.052  0.0398 -0.2901 -0.0076
11112TIP3    H154827   2.044   2.202  13.088  0.3629  0.0598  0.9592
11112TIP3    H254828   1.964   2.313  13.024  0.0206 -1.0437 -0.5564
11113TIP3   OH254829   5.660   0.389  11.621 -0.0634  0.4033  0.0232
11113TIP3    H154830   5.723   0.326  11.587 -0.0874  0.0748  0.5817
11113TIP3    H254831   5.700   0.424  11.701 -0.5104  0.3111  0.2942
11114TIP3   OH254832   2.420   3.504  15.977  0.2421  0.3959 -0.1598
11114TIP3    H154833   2.423   3.586  16.025 -0.4974  0.6528 -0.5464
11114TIP3    H254834   2.341   3.460  16.008  1.3719 -0.8094  1.0674
11115TIP3   OH254835   1.471   5.434  13.108  0.0235  0.1331 -0.0365
11115TIP3    H154836   1.506   5.523  13.113  0.5962 -0.1465  1.1769
11115TIP3    H254837   1.384   5.445  13.069 -0.5740  1.4268  1.5390
11116TIP3   OH254838   5.225   5.363  10.988 -0.7448 -0.1094 -0.2979
11116TIP3    H154839   5.153   5.414  10.951 -1.4298  1.2114  2.7652
11116TIP3    H254840   5.184   5.280  11.014 -0.7482 -0.1192 -0.3357
11117TIP3   OH254841   5.447   2.058   1.795  0.5679 -0.1550  0.3459
11117TIP3    H154842   5.498   1.977   1.790 -0.1708 -0.6581  0.9756
11117TIP3    H254843   5.359   2.030   1.818 -0.8421  0.3826 -3.9669
11118TIP3   OH254844   4.317   0.830  13.197 -0.5741 -0.1842 -0.9475
11118TIP3    H154845   4.286   0.828  13.288 -2.5660  0.8048 -1.5818
11118TIP3    H254846   4.396   0.885  13.200  0.3418 -1.5226  0.4453
11119TIP3   OH254847   6.032   5.348   0.946  0.1483  0.2408  0.1663
11119TIP3    H154848   5.945   5.342   0.986  0.4819 -0.5506  0.7950
11119TIP3    H254849   6.092   5.327   1.018  0.8939  1.3902 -0.1115
11120TIP3   OH254850   4.564   6.529   0.057  0.5154  0.5377  0.1678
11120TIP3    H154851   4.589   6.518   0.148  0.1909  0.3729  0.2379
11120TIP3    H254852   4.504   6.456   0.040  2.8201 -1.1603 -0.9865
11121TIP3   OH254853   3.682   0.976   1.578  0.4154  0.1219  0.1904
11121TIP3    H154854   3.727   1.006   1.657  0.7442  0.7904 -0.2374
11121TIP3    H254855   3.624   0.906   1.607 -0.6780  1.4544  1.3096
11122TIP3   OH254856   4.653   2.373   5.012  0.4804 -0.1824 -0.4362
11122TIP3    H154857   4.559   2.389   5.017  0.8615  2.1243 -0.3755
11122TIP3    H254858   4.680   2.361   5.103  0.7822  2.5590 -0.1193
11123TIP3   OH254859   4.044   0.125   6.219  0.0958  0.2137  0.1510
11123TIP3    H154860   4.138   0.107   6.227 -0.2762 -2.4069 -0.9567
11123TIP3    H254861   4.009   0.103   6.305  0.0410 -2.1548 -0.4240
11124TIP3   OH254862   1.868   1.383   4.829  0.5160 -0.6303 -0.6421
11124TIP3    H154863   1.933   1.448   4.855 -2.5060  1.6029  1.5814
11124TIP3    H254864   1.876   1.313   4.893  1.0139 -0.5785 -0.6474
11125TIP3   OH254865   3.931   0.728  16.217  0.4572 -0.3386 -0.3979
11125TIP3    H154866   3.997   0.659  16.222  0.8790  0.1618  1.6306
11125TIP3    H254867   3.956   0.780  16.141  2.9831  0.3740  0.8472
11126TIP3   OH254868   6.472   4.588   4.253  0.5037  0.3494 -0.0668
11126TIP3    H154869   6.491   4.669   4.301  3.6468 -0.8080  0.7544
11126TIP3    H254870   6.462   4.521   4.321 -0.7463 -0.2373 -0.8021
11127TIP3   OH254871   1.076   6.646   2.169  0.4611 -0.3323 -0.6715
11127TIP3    H154872   1.090   6.576   2.232 -1.5060 -1.1720 -1.1493
11127TIP3    H254873   0.982   6.664   2.173  0.5949  0.8015 -2.1067
11128TIP3   OH254874   3.402   2.563   2.735  0.1775 -0.3758  0.1036
11128TIP3    H154875   3.351   2.595   2.661  0.1277 -2.7298 -0.9160
11128TIP3    H254876   3.491   2.556   2.700  0.0021 -2.2648  0.0112
11129TIP3   OH254877   1.972   1.166   2.282  0.5698 -0.0516  0.1060
11129TIP3    H154878   1.943   1.091   2.230  0.1601  0.0810  0.1446
11129TIP3    H254879   1.978   1.133   2.372  0.2869 -0.0110  0.1401
11130TIP3   OH254880   5.227   1.885  11.770  0.2987 -0.2802 -0.1915
11130TIP3    H154881   5.278   1.944  11.713  1.1096  0.6057  1.4241
11130TIP3    H254882   5.147   1.934  11.789 -0.2845 -0.8594 -1.1093
11131TIP3   OH254883   4.253   0.660   3.323 -0.1191  0.0385 -0.0563
11131TIP3    H154884   4.183   0.688   3.263 -1.7216 -0.8919  1.3310
11131TIP3    H254885   4.259   0.566   3.310 -0.6964 -0.2205  1.4248
11132TIP3   OH254886   2.393   4.595   0.625 -0.0466  0.1694 -0.1253
11132TIP3    H154887   2.471   4.571   0.576  0.0981 -2.0321  1.1154
11132TIP3    H254888   2.321   4.584   0.563  0.2915 -1.1188 -0.3031
11133TIP3   OH254889   4.844   4.026   4.935  0.5356 -0.8239 -0.3132
11133TIP3    H154890   4.759   3.988   4.960 -0.3034 -0.0406 -1.8741
11133TIP3    H254891   4.848   4.015   4.840  0.7432  1.9700 -0.6811
11134TIP3   OH254892   1.803   3.192   3.428  0.1944 -0.3386  0.4144
11134TIP3    H154893   1.850   3.257   3.479 -0.8502  0.7824 -0.0321
11134TIP3    H254894   1.794   3.231   3.341 -2.6089  0.0272  0.8048
11135TIP3   OH254895   5.007   1.600   1.034  0.3538  0.5924  0.6943
11135TIP3    H154896   4.945   1.663   0.997  1.4114  1.1442 -0.1577
11135TIP3    H254897   5.025   1.539   0.962  0.4675  0.1815  1.0679
11136TIP3   OH254898   4.146   3.107  12.991 -0.0307  0.1738 -0.1102
11136TIP3    H154899   4.225   3.159  13.003 -0.6627  0.9096  0.9163
11136TIP3    H254900   4.111   3.136  12.906  1.2920 -0.8258 -1.0068
11137TIP3   OH254901   2.805   0.521  14.645  0.0618  0.1328  0.5756
11137TIP3    H154902   2.810   0.480  14.731 -1.5341  0.4807  0.8405
11137TIP3    H254903   2.884   0.490  14.600 -0.3841 -2.1048  1.2631
11138TIP3   OH254904   6.293   2.422   1.100 -0.7545  0.0341 -0.3622
11138TIP3    H154905   6.291   2.327   1.089 -1.3045 -0.0776  0.6189
11138TIP3    H254906   6.280   2.457   1.011 -1.9670 -0.8112 -0.5378
11139TIP3   OH254907   6.353   4.980   6.005  0.4397  0.1448  0.2159
11139TIP3    H154908   6.301   5.060   6.007 -0.1089 -0.2004  0.0476
11139TIP3    H254909   6.370   4.965   5.912  0.6858  0.1567  0.2585
11140TIP3   OH254910   1.600   4.547  16.875 -0.2985 -0.1757 -1.2877
11140TIP3    H154911   1.570   4.464  16.912  0.8004  0.5282  1.3066
11140TIP3    H254912   1.606   4.606  16.950  2.0916  1.3000 -2.5696
11141TIP3   OH254913   5.399   2.852  13.859 -0.3653 -0.2648  0.2815
11141TIP3    H154914   5.481   2.824  13.899 -0.5017 -0.0436  0.7149
11141TIP3    H254915   5.409   2.946  13.845  0.5657 -0.6990 -2.2787
11142TIP3   OH254916   2.673   4.042  14.302  0.1364  0.0810 -0.0213
11142TIP3    H154917   2.615   3.971  14.275 -1.5742  1.5511 -0.3437
11142TIP3    H254918   2.615   4.117  14.311  2.0891  1.7477 -0.9265
11143TIP3   OH254919   5.888   6.507   7.033 -0.7418 -0.1473  0.0226
11143TIP3    H154920   5.822   6.460   7.084 -0.7638 -0.1301  0.0103
11143TIP3    H254921   5.865   6.488   6.942 -1.1262  0.3958  0.0057
11144TIP3   OH254922   5.851   1.383   3.862 -0.6256  0.5115  0.0698
11144TIP3    H154923   5.812   1.417   3.782 -1.2815 -3.4832 -1.4138
11144TIP3    H254924   5.936   1.348   3.834 -0.9543 -1.1176  1.0393
11145TIP3   OH254925   1.349   6.456  10.746  0.0752  0.1807 -0.2272
11145TIP3    H154926   1.300   6.503  10.678 -1.6353 -0.5913  0.4422
11145TIP3    H254927   1.441   6.476  10.728 -0.5459  2.6985 -0.7479
11146TIP3   OH254928   4.770   1.140  14.598  0.1631  0.0747 -0.2662
11146TIP3    H154929   4.843   1.194  14.626  1.6958 -1.5619 -0.9778
11146TIP3    H254930   4.760   1.075  14.668  0.5950 -0.8002 -0.9929
11147TIP3   OH254931   1.167   5.660   3.159 -0.0609 -0.2469  0.5429
11147TIP3    H154932   1.158   5.715   3.236  0.2815  0.7449 -0.1178
11147TIP3    H254933   1.077   5.642   3.132 -0.1800  1.2108 -0.0921
11148TIP3   OH254934   4.935   2.431   5.993  0.2400 -0.7227  0.0308
11148TIP3    H154935   4.930   2.470   6.081 -0.7144 -0.3026 -0.2058
11148TIP3    H254936   4.864   2.472   5.945 -0.3420 -2.2737 -0.4376
11149TIP3   OH254937   0.346   2.264   4.182  0.2221  0.1321 -0.0104
11149TIP3    H154938   0.329   2.358   4.192  0.2957  0.2193 -0.6799
11149TIP3    H254939   0.428   2.249   4.228 -0.0037  0.3165  0.4592
11150TIP3   OH254940   3.084   2.077   0.343  0.6888  0.0598 -0.4518
11150TIP3    H154941   3.117   2.052   0.257  0.5268 -1.9108  0.0416
11150TIP3    H254942   3.137   2.026   0.405 -1.6311 -1.3442  0.4461
11151TIP3   OH254943   4.280   1.187   0.477  0.8479 -0.6604  0.0886
11151TIP3    H154944   4.261   1.108   0.427  0.1640 -1.1139  1.0360
11151TIP3    H254945   4.375   1.194   0.477  0.8662 -0.8878 -0.8949
11152TIP3   OH254946   5.559   6.206   6.449  0.1595 -0.6542  0.4296
11152TIP3    H154947   5.504   6.142   6.496 -2.0777  1.1175  0.2977
11152TIP3    H254948   5.511   6.288   6.455  1.8757  0.5322 -1.4309
11153TIP3   OH254949   1.550   4.586  15.098 -0.1303 -0.3205  0.2259
11153TIP3    H154950   1.549   4.681  15.084  0.8636  0.0610  2.5607
11153TIP3    H254951   1.566   4.549  15.011  1.4314  1.7232 -0.3873
11154TIP3   OH254952   0.006   1.146   4.168 -0.1511 -0.1741  0.2281
11154TIP3    H154953   0.029   1.078   4.232  1.7604  0.1502 -0.0864
11154TIP3    H254954   0.086   1.160   4.118 -1.6544 -0.4846 -2.3395
11155TIP3   OH254955   1.050   3.707  12.283  0.2008  0.7124  0.3357
11155TIP3    H154956   1.131   3.657  12.290  0.3903  1.1857  1.6160
11155TIP3    H254957   1.078   3.796  12.259 -0.1013  0.3454 -1.4459
11156TIP3   OH254958   3.539   5.495   3.568  0.1448 -0.1134 -0.2728
11156TIP3    H154959   3.500   5.421   3.614 -1.3156  0.8828  0.1139
11156TIP3    H254960   3.631   5.495   3.596  0.1653 -1.7955 -0.3106
11157TIP3   OH254961   2.856   6.204   3.838 -0.5219  0.0000 -0.2432
11157TIP3    H154962   2.812   6.129   3.797 -2.0842 -0.5427  2.2796
11157TIP3    H254963   2.863   6.179   3.931 -0.4466  2.6862  0.5080
11158TIP3   OH254964   4.785   6.423   5.243 -0.1267  0.3031 -0.1913
11158TIP3    H154965   4.717   6.483   5.271 -1.1078 -1.3640  1.1425
11158TIP3    H254966   4.762   6.400   5.153 -1.3519 -0.2302  0.2422
11159TIP3   OH254967   4.229   1.286  12.051 -0.5896 -0.0036  0.2365
11159TIP3    H154968   4.240   1.283  11.956 -1.0581 -0.0542  0.1814
11159TIP3    H254969   4.145   1.330  12.064 -1.7859 -2.2925  0.5376
11160TIP3   OH254970   2.040   0.414   1.733  0.3803  0.1498 -0.3951
11160TIP3    H154971   2.104   0.359   1.779  1.3887 -1.2347 -3.3410
11160TIP3    H254972   1.960   0.405   1.784  2.0024  0.4375  2.3311
11161TIP3   OH254973   5.072   0.229  15.501 -0.4400 -0.4112  0.5304
11161TIP3    H154974   5.105   0.306  15.456 -0.9285 -1.0921 -1.0060
11161TIP3    H254975   4.986   0.213  15.464 -0.7883 -1.0830  1.5879
11162TIP3   OH254976   3.710   3.572   1.079 -0.3437  0.2150  0.0026
11162TIP3    H154977   3.711   3.492   1.131  1.8134  0.2750  0.1308
11162TIP3    H254978   3.734   3.641   1.141  2.3521  0.2670 -1.0117
11163TIP3   OH254979   6.724   0.252   0.591  0.2533  0.1969  0.0282
11163TIP3    H154980   6.743   0.179   0.649 -1.1790 -1.1333 -1.1244
11163TIP3    H254981   6.641   0.287   0.622  0.8359  1.2414  0.4561
11164TIP3   OH254982   3.075   5.915  16.976  0.4908  0.0863 -0.3294
11164TIP3    H154983   3.057   6.008  16.965 -1.0453 -0.3197 -1.4665
11164TIP3    H254984   2.994   5.878  17.011  0.7867 -0.9439 -0.6918
11165TIP3   OH254985   6.344   1.961   0.215  0.1727 -0.1370 -0.2280
11165TIP3    H154986   6.252   1.961   0.188  0.0342  2.0414  0.1766
11165TIP3    H254987   6.356   2.044   0.260  1.7742 -1.3819  1.7506
11166TIP3   OH254988   0.182   1.378   6.078 -0.0940 -0.6902  0.1174
11166TIP3    H154989   0.266   1.425   6.081  0.4595 -1.5999 -0.7283
11166TIP3    H254990   0.126   1.424   6.140  1.0595 -0.0945  0.7268
11167TIP3   OH254991   4.889   6.232   4.196  0.3671  0.8144  0.0197
11167TIP3    H154992   4.860   6.251   4.107  0.5778 -1.3013 -0.5447
11167TIP3    H254993   4.963   6.291   4.211 -0.1660  1.7328 -0.9048
11168TIP3   OH254994   6.639   4.157   1.179  0.4697  0.2278  0.4103
11168TIP3    H154995   6.574   4.150   1.249 -0.6028  0.4065 -0.5537
11168TIP3    H254996   6.714   4.200   1.220  1.0703 -2.4485  2.2887
11169TIP3   OH254997   4.487   3.026   3.889  0.0097 -0.1559 -0.1754
11169TIP3    H154998   4.577   2.992   3.891 -0.3928 -1.3032 -0.6034
11169TIP3    H254999   4.441   2.966   3.830 -0.3519  2.1755 -2.3594
11170TIP3   OH255000   3.473   4.026  14.212 -0.1985 -0.0485  0.3012
11170TIP3    H155001   3.548   4.043  14.268 -0.1927  0.4284  0.1502
11170TIP3    H255002   3.436   3.944  14.245  0.3253 -0.2297  0.4373
11171TIP3   OH255003   4.871   6.335  13.503 -0.0120 -0.0721 -0.5842
11171TIP3    H155004   4.861   6.421  13.461 -0.7276 -0.0030 -0.2806
11171TIP3    H255005   4.829   6.345  13.589  0.5816 -0.5018 -0.2423
11172TIP3   OH255006   6.639   6.508  12.490 -0.8732  0.6566 -0.4855
11172TIP3    H155007   6.663   6.540  12.577  0.2428  1.6265 -1.1310
11172TIP3    H255008   6.720   6.513  12.440 -1.5458  0.2454 -1.6334
11173TIP3   OH255009   2.588   2.546   4.474  0.1739  0.0090  0.3381
11173TIP3    H155010   2.662   2.605   4.457  0.5114 -0.9862 -1.7350
11173TIP3    H255011   2.513   2.589   4.433  0.0418 -0.0771  0.4902
11174TIP3   OH255012   4.971   5.186   5.571 -0.0841  0.0196  0.1527
11174TIP3    H155013   4.936   5.106   5.611  0.4765 -0.7409 -0.8738
11174TIP3    H255014   4.893   5.236   5.549 -0.4127  0.4574  2.1719
11175TIP3   OH255015   4.739   6.768  11.204 -0.1494  0.6103 -0.0373
11175TIP3    H155016   4.681   6.841  11.184  1.5166  1.7125 -0.9188
11175TIP3    H255017   4.821   6.788  11.159 -0.7875 -3.5840 -3.3597
11176TIP3   OH255018   6.807   2.389  14.046  0.4156  0.4444 -0.1888
11176TIP3    H155019   6.869   2.450  14.085  2.1967 -2.5448  1.8368
11176TIP3    H255020   6.844   2.368  13.960  0.5767  1.0153 -0.2586
11177TIP3   OH255021   1.448   1.941  16.451 -0.0687  0.4483 -0.1235
11177TIP3    H155022   1.510   1.878  16.415  1.7878  0.9492  2.0280
11177TIP3    H255023   1.494   2.025  16.445 -1.0110  1.0099  0.4429
11178TIP3   OH255024   4.298   2.219  15.711 -0.7231  0.0436 -0.8931
11178TIP3    H155025   4.214   2.257  15.737  0.0865  1.2706 -0.0091
11178TIP3    H255026   4.333   2.182  15.792  0.7062  1.7475 -0.6939
11179TIP3   OH255027   6.074   2.976  16.489  0.2642  0.4117  0.7531
11179TIP3    H155028   6.128   2.950  16.564 -1.4055 -2.1146  1.1287
11179TIP3    H255029   5.984   2.972  16.521 -0.5118 -1.3003 -1.5317
11180TIP3   OH255030   1.468   6.682  15.883 -0.2825 -0.8007 -0.4232
11180TIP3    H155031   1.392   6.646  15.837 -1.3847 -2.4843  2.5308
11180TIP3    H255032   1.439   6.768  15.914 -0.3651 -0.6765 -0.8456
11181TIP3   OH255033   0.657   6.579   2.697 -1.0962  0.3751 -0.1186
11181TIP3    H155034   0.748   6.599   2.675 -0.9823  0.6360  0.5544
11181TIP3    H255035   0.605   6.632   2.636 -0.8051 -0.7152 -1.3225
11182TIP3   OH255036   2.525   4.184   5.058 -0.3399 -0.5824 -0.0002
11182TIP3    H155037   2.576   4.111   5.023 -0.5096 -0.8314  0.2705
11182TIP3    H255038   2.518   4.246   4.985  0.3098 -0.5680 -0.0510
11183TIP3   OH255039   0.205   2.505  13.115  0.7128  0.1456 -0.5173
11183TIP3    H155040   0.297   2.491  13.139 -0.0354  0.4626  2.8892
11183TIP3    H255041   0.166   2.418  13.119 -0.3062  0.6934  3.8356
11184TIP3   OH255042   1.300   6.029   4.293 -0.0254  0.4415  0.1240
11184TIP3    H155043   1.253   5.946   4.293  0.5584  0.1117  0.3845
11184TIP3    H255044   1.300   6.057   4.385  0.1160  0.5338  0.0973
11185TIP3   OH255045   5.487   0.705   5.409 -0.2062  0.6049  0.1933
11185TIP3    H155046   5.509   0.787   5.366  0.6495  1.2735  1.8279
11185TIP3    H255047   5.516   0.637   5.349  1.5597  1.5062  0.0048
11186TIP3   OH255048   6.272   3.416   1.770 -0.6843  0.4756 -0.2828
11186TIP3    H155049   6.201   3.430   1.832  0.8292  1.2263  1.2988
11186TIP3    H255050   6.303   3.327   1.788 -0.9701  0.2838 -0.7232
11187TIP3   OH255051   2.692   1.709   2.314 -0.6361 -0.2081 -0.1810
11187TIP3    H155052   2.660   1.655   2.242 -0.7525 -1.2288  0.6248
11187TIP3    H255053   2.615   1.725   2.369 -0.8570  1.7970 -1.0404
11188TIP3   OH255054   2.824   2.478   0.363 -0.5476 -0.4657  0.0179
11188TIP3    H155055   2.816   2.400   0.308  1.0623 -1.1165  0.6615
11188TIP3    H255056   2.868   2.446   0.442 -0.0310  1.0540  0.3540
11189TIP3   OH255057   4.916   2.722   5.386  0.0074  0.2105 -0.7110
11189TIP3    H155058   4.993   2.669   5.366 -1.9464 -2.8055 -0.5526
11189TIP3    H255059   4.863   2.717   5.307 -2.6822 -2.6798  1.1644
11190TIP3   OH255060   3.391   1.393   6.043  0.3607 -0.2805 -0.5963
11190TIP3    H155061   3.387   1.307   6.085  2.0563  0.3605  0.9405
11190TIP3    H255062   3.430   1.450   6.110  1.0717  1.2522 -2.2926
11191TIP3   OH255063   4.408   5.363   5.145 -0.4624  0.1463 -0.1719
11191TIP3    H155064   4.384   5.307   5.219  2.1482 -1.1474 -0.2679
11191TIP3    H255065   4.463   5.432   5.184 -2.0578  1.5792 -0.3731
11192TIP3   OH255066   3.360   1.208  15.591 -0.5498  0.3227  0.1487
11192TIP3    H155067   3.339   1.292  15.550  1.0844  1.3007  1.2783
11192TIP3    H255068   3.304   1.204  15.668 -1.3043 -0.0624 -0.4122
11193TIP3   OH255069   6.162   3.951   1.310 -0.1062  0.7442 -0.2439
11193TIP3    H155070   6.237   3.927   1.255 -0.1599  0.2737 -0.1143
11193TIP3    H255071   6.129   4.033   1.271  0.5799  1.0471 -0.1954
11194TIP3   OH255072   5.468   0.966   0.358  0.3044  0.0323  0.0764
11194TIP3    H155073   5.540   0.966   0.420  0.5341  0.0923 -0.1911
11194TIP3    H255074   5.396   0.924   0.405  0.1602  0.9907  0.7510
11195TIP3   OH255075   3.214   0.740   2.846  0.0585  0.0556  0.5953
11195TIP3    H155076   3.276   0.677   2.883 -2.0807 -2.1005  0.6609
11195TIP3    H255077   3.247   0.826   2.873  2.1684 -1.1166  1.8500
11196TIP3   OH255078   4.652   0.289  11.369  0.0120  0.1774 -0.3281
11196TIP3    H155079   4.627   0.380  11.348  1.2246  0.3989 -0.8854
11196TIP3    H255080   4.609   0.237  11.301 -0.2233  0.3924 -0.3486
11197TIP3   OH255081   0.005   3.555  11.648  0.3726  0.4937 -0.4886
11197TIP3    H155082  -0.003   3.609  11.727  0.7787 -0.2061  0.0420
11197TIP3    H255083   0.062   3.605  11.590 -0.5906  1.3872 -0.6703
11198TIP3   OH255084   6.818   2.419  12.510 -0.0570  0.2417 -0.0028
11198TIP3    H155085   6.900   2.447  12.469 -0.2076 -1.7299 -1.7005
11198TIP3    H255086   6.843   2.350  12.571 -0.5140 -0.7736 -0.9542
11199TIP3   OH255087   5.031   3.263  13.864  0.1599  0.2914  0.2693
11199TIP3    H155088   5.026   3.328  13.935  0.5845  0.1405  0.4404
11199TIP3    H255089   4.979   3.189  13.895  0.2983  0.2487  0.4015
11200TIP3   OH255090   2.694   4.847   3.397 -0.1521  0.6695  0.5693
11200TIP3    H155091   2.672   4.927   3.445 -0.6009  0.4290  0.7556
11200TIP3    H255092   2.713   4.782   3.464  0.4019  0.6661  0.4160
11201TIP3   OH255093   3.587   1.316  13.122  0.1939 -0.2138 -0.1286
11201TIP3    H155094   3.541   1.340  13.041  0.5543  0.9148 -0.0164
11201TIP3    H255095   3.561   1.226  13.139 -0.2847 -0.2900 -1.2325
11202TIP3   OH255096   5.643   5.980  13.558  0.1684  0.3986 -0.8116
11202TIP3    H155097   5.554   5.990  13.591 -0.1867 -3.2254 -0.4249
11202TIP3    H255098   5.673   5.897  13.595  3.0922  0.7222 -2.2993
11203TIP3   OH255099   0.388   5.197   5.001  0.1831 -0.4126  0.1567
11203TIP3    H155100   0.372   5.135   4.930 -1.3514  0.2522 -0.0780
11203TIP3    H255101   0.418   5.142   5.074  2.1534 -1.0544 -1.0956
11204TIP3   OH255102   5.493   0.416  13.684 -0.2708 -0.9673  0.1733
11204TIP3    H155103   5.441   0.388  13.760 -1.8106  1.4346  0.0511
11204TIP3    H255104   5.571   0.456  13.722 -0.9787  0.1174  0.4950
11205TIP3   OH255105   6.339   4.591   2.127  0.3980 -0.0216 -0.7598
11205TIP3    H155106   6.248   4.589   2.097  0.6070  2.1225 -1.6794
11205TIP3    H255107   6.390   4.567   2.049  0.6658 -0.2658 -0.5102
11206TIP3   OH255108   0.982   2.396   0.107 -0.1019  0.5374 -0.0216
11206TIP3    H155109   1.077   2.394   0.108 -0.0761  1.9360  0.2191
11206TIP3    H255110   0.956   2.332   0.174  0.6902  2.0866  1.8011
11207TIP3   OH255111   5.125   2.417  14.554 -0.5067 -0.2114  0.4695
11207TIP3    H155112   5.188   2.483  14.581 -0.9713  0.2595  0.3973
11207TIP3    H255113   5.140   2.344  14.615 -0.1587  0.0494  0.6977
11208TIP3   OH255114   5.886   4.913   6.228 -0.1256 -0.1527 -0.6388
11208TIP3    H155115   5.859   4.849   6.294 -1.6082  0.8212 -0.2520
11208TIP3    H255116   5.922   4.861   6.157 -0.0002 -1.3257  0.2723
11209TIP3   OH255117   0.299   6.097  16.462 -0.1226 -0.1519 -0.3672
11209TIP3    H155118   0.270   6.055  16.381 -1.4724 -0.4412  0.2425
11209TIP3    H255119   0.290   6.029  16.529 -0.6638  0.5912  0.3240
11210TIP3   OH255120   5.261   4.872  15.862 -0.1018 -0.3250  0.4153
11210TIP3    H155121   5.287   4.897  15.951  1.8875  2.4144 -0.8589
11210TIP3    H255122   5.198   4.939  15.836 -0.3423 -0.8559 -0.3721
11211TIP3   OH255123   0.333   2.661   0.854 -0.2321 -0.5432  0.1566
11211TIP3    H155124   0.420   2.622   0.864 -0.1285 -0.3810 -0.1233
11211TIP3    H255125   0.333   2.699   0.766 -0.1561  0.5509  0.6270
11212TIP3   OH255126   5.492   2.181  16.932 -0.6170  0.1293  0.2318
11212TIP3    H155127   5.455   2.261  16.893 -0.8304 -0.9791 -1.9488
11212TIP3    H255128   5.574   2.209  16.971 -0.3929  1.3188 -1.0448
11213TIP3   OH255129   6.301   2.195   4.139 -0.2323  0.2080 -0.4256
11213TIP3    H155130   6.381   2.209   4.088 -0.2593  0.4083 -0.4143
11213TIP3    H255131   6.253   2.278   4.131 -0.7693 -0.1624 -1.0185
11214TIP3   OH255132   6.557   0.009  11.070  0.0414  0.5935 -0.2881
11214TIP3    H155133   6.521   0.002  11.159  0.5225 -1.8634 -0.2722
11214TIP3    H255134   6.626  -0.057  11.067 -0.1357  0.5033 -2.5974
11215TIP3   OH255135   6.469   2.692   5.837  0.4070  0.0748  0.3468
11215TIP3    H155136   6.558   2.674   5.867  0.2983  0.3678  0.8489
11215TIP3    H255137   6.470   2.785   5.813  0.1635  0.1501  0.6216
11216TIP3   OH255138   2.847   0.196  11.176  0.2411 -0.3316  0.4916
11216TIP3    H155139   2.876   0.123  11.122  1.1607 -0.0184  0.5555
11216TIP3    H255140   2.915   0.262  11.167 -0.4680  0.4317  0.6228
11217TIP3   OH255141   3.341   4.086   0.386 -0.2615 -0.0859 -0.5645
11217TIP3    H155142   3.269   4.147   0.375  1.4256  2.4927  1.9029
11217TIP3    H255143   3.304   4.013   0.435 -1.5920  0.3886 -0.8571
11218TIP3   OH255144   3.653   4.079  13.942  0.0527 -0.1558  0.5890
11218TIP3    H155145   3.605   4.030  14.008  0.8197 -1.2870  0.3132
11218TIP3    H255146   3.698   4.012  13.890  2.1781  0.9088  1.0285
11219TIP3   OH255147   2.297   0.249   2.230  0.0994 -0.0444  0.9390
11219TIP3    H155148   2.373   0.196   2.253  1.9470  0.4250 -3.5274
11219TIP3    H255149   2.315   0.336   2.265  1.6031  0.0276  0.0215
11220TIP3   OH255150   4.927   3.771   4.311  0.1513 -0.4225  0.1853
11220TIP3    H155151   4.836   3.751   4.335 -0.3706  1.1087 -0.4461
11220TIP3    H255152   4.938   3.734   4.224 -0.0905 -0.0062 -0.0247
11221TIP3   OH255153   0.037   3.756  11.967 -0.3454  0.1139 -0.1176
11221TIP3    H155154   0.015   3.826  12.029 -0.6905 -0.9339  0.9528
11221TIP3    H255155  -0.040   3.701  11.964  1.4477 -2.6823  2.4456
11222TIP3   OH255156   4.668   1.520  14.427 -0.3984  0.2785 -0.6982
11222TIP3    H155157   4.578   1.511  14.394 -0.6777  0.1035  0.0884
11222TIP3    H255158   4.720   1.464  14.370 -1.1169 -1.2366  0.0921
11223TIP3   OH255159   0.907   1.883   1.407 -0.1220 -0.1883  0.3207
11223TIP3    H155160   0.840   1.926   1.460  0.0975  0.4771  0.0574
11223TIP3    H255161   0.979   1.867   1.467  0.7031  1.8521 -0.0745
11224TIP3   OH255162   1.931   0.535  16.343  0.1567  0.1122  0.1516
11224TIP3    H155163   1.936   0.565  16.433 -1.1826 -2.3735  1.1069
11224TIP3    H255164   2.016   0.493  16.327  0.0858 -0.1709  0.5247
11225TIP3   OH255165   1.062   4.300   5.071  0.2941  0.3023 -0.0282
11225TIP3    H155166   0.986   4.248   5.097  0.1281  0.2370 -0.6575
11225TIP3    H255167   1.079   4.356   5.147 -0.4879  0.4461  0.0456
11226TIP3   OH255168   6.344   2.823   6.517  0.0899  0.4797 -0.1060
11226TIP3    H155169   6.369   2.824   6.425 -2.7971  0.0913 -0.9476
11226TIP3    H255170   6.349   2.732   6.543 -1.1045  0.2837 -0.5043
11227TIP3   OH255171   5.348   4.002  17.064  0.3219  0.5420  0.1061
11227TIP3    H155172   5.307   4.087  17.050 -1.6506 -0.5761 -1.2553
11227TIP3    H255173   5.299   3.964  17.137  0.4582  0.1324 -0.0166
11228TIP3   OH255174   0.930   4.951  14.995 -0.2057 -0.1205 -0.1650
11228TIP3    H155175   0.945   4.889  14.923  1.5286 -1.5269  1.3511
11228TIP3    H255176   0.992   5.022  14.980 -0.4576  0.0251 -0.5281
11229TIP3   OH255177   4.578   2.585   0.824  0.4255 -0.0023 -0.2517
11229TIP3    H155178   4.541   2.645   0.760 -1.1952 -0.5019  0.2027
11229TIP3    H255179   4.565   2.498   0.787 -1.0044 -0.3305  0.9835
11230TIP3   OH255180   0.138   1.215   0.721 -0.3353  0.4807  0.0892
11230TIP3    H155181   0.093   1.134   0.695  1.8275 -0.0307 -2.1856
11230TIP3    H255182   0.199   1.187   0.790  1.1811 -0.0508 -1.4469
11231TIP3   OH255183   4.588   3.544  12.862  0.3519 -0.0416  0.1528
11231TIP3    H155184   4.541   3.543  12.779  0.4065 -0.4828  0.1276
11231TIP3    H255185   4.680   3.532  12.838  0.8027  3.1963 -0.0072
11232TIP3   OH255186   0.464   4.690  12.652 -0.5269  0.7905 -0.0401
11232TIP3    H155187   0.479   4.596  12.639  0.9915  1.2385 -1.6865
11232TIP3    H255188   0.501   4.708  12.739  0.5766  0.1559 -0.3725
11233TIP3   OH255189   5.342   3.719  10.998 -0.0359 -0.2992 -0.0351
11233TIP3    H155190   5.321   3.749  10.910  2.3281  0.8464 -0.2601
11233TIP3    H255191   5.415   3.657  10.986  1.3622  1.0616  1.1947
11234TIP3   OH255192   0.317   0.088  16.945  0.1467 -0.3779 -0.0476
11234TIP3    H155193   0.278   0.124  17.025 -0.3836 -0.6896 -0.1643
11234TIP3    H255194   0.313   0.160  16.882  0.8967 -0.0132  0.3095
11235TIP3   OH255195   5.191   6.432  14.268  0.1312  0.5203 -0.5423
11235TIP3    H155196   5.198   6.509  14.324 -2.1348  1.0720 -0.9783
11235TIP3    H255197   5.223   6.461  14.183  0.5106  0.6096 -0.3686
11236TIP3   OH255198   1.969   5.019   3.915 -0.4577 -0.0062 -0.6714
11236TIP3    H155199   1.918   5.022   3.835 -0.3455 -2.4945 -0.8696
11236TIP3    H255200   2.055   4.988   3.888  0.1088  0.7805  0.1746
11237TIP3   OH255201   3.333   5.603  13.428 -0.0206  0.3795  0.6777
11237TIP3    H155202   3.251   5.586  13.381  0.1808  0.6892  0.2134
11237TIP3    H255203   3.352   5.522  13.475 -0.2754  0.1090  0.3083
11238TIP3   OH255204   5.003   1.567  16.192  0.1078  0.5188 -0.1201
11238TIP3    H155205   4.973   1.604  16.109 -0.1145  0.6979  0.0386
11238TIP3    H255206   4.960   1.482  16.197  0.1854  0.4739 -0.2292
11239TIP3   OH255207   5.065   0.135   3.231 -0.5563 -0.0737  0.3430
11239TIP3    H155208   5.027   0.051   3.258  0.5524 -0.3572  1.0248
11239TIP3    H255209   5.145   0.143   3.282 -0.6528  1.4053  0.2813
11240TIP3   OH255210   1.439   1.275   0.310 -0.0599 -0.0676  0.7546
11240TIP3    H155211   1.458   1.187   0.340 -0.2675 -1.1247 -2.0698
11240TIP3    H255212   1.380   1.264   0.236 -1.6495  2.5556  1.5369
11241TIP3   OH255213   4.663   0.565   5.598 -0.1452 -0.0609 -0.0043
11241TIP3    H155214   4.656   0.546   5.504 -1.8325 -2.7268  0.5933
11241TIP3    H255215   4.634   0.484   5.641 -1.1108  1.6989  2.8219
11242TIP3   OH255216   4.838   5.844  11.138  0.2524 -0.5358  0.7797
11242TIP3    H155217   4.826   5.933  11.104 -0.6080 -1.0006 -0.1385
11242TIP3    H255218   4.755   5.801  11.122  1.3070 -2.1129 -0.5719
11243TIP3   OH255219   4.458   6.724   3.602 -0.0650  0.5009 -0.5964
11243TIP3    H155220   4.552   6.711   3.589 -0.1817  0.8918 -1.9222
11243TIP3    H255221   4.445   6.817   3.586 -0.6348  0.5014 -0.1216
11244TIP3   OH255222   1.907   2.277   1.291  0.2227 -0.4332 -0.2097
11244TIP3    H155223   1.989   2.228   1.287  0.3486 -0.2223 -0.1966
11244TIP3    H255224   1.919   2.340   1.361 -0.0567 -0.5916 -0.0180
11245TIP3   OH255225   6.018   2.297   4.711 -0.6809 -0.1944  0.0121
11245TIP3    H155226   5.939   2.349   4.698 -0.4953  0.2565  0.6972
11245TIP3    H255227   6.086   2.346   4.666 -0.0225  1.4036  2.6567
11246TIP3   OH255228   6.193   2.961  15.363  0.8117  0.6070  0.3653
11246TIP3    H155229   6.127   2.914  15.414  0.1936 -0.2311 -1.1669
11246TIP3    H255230   6.153   2.971  15.276  2.7925 -0.1384 -0.6583
11247TIP3   OH255231   3.986   3.728   5.070 -1.1844 -0.2627 -0.4160
11247TIP3    H155232   4.015   3.795   5.008 -0.9400 -1.2037 -1.3275
11247TIP3    H255233   3.905   3.694   5.033 -1.1197 -0.7287 -0.1334
11248TIP3   OH255234   3.004   0.106  11.855 -0.4841 -0.2678  0.8475
11248TIP3    H155235   3.017   0.153  11.937 -1.2147  0.8839  0.3177
11248TIP3    H255236   3.045   0.161  11.788  0.4361 -1.3751  0.4730
11249TIP3   OH255237   1.310   2.573   5.903 -0.9496 -0.4646  0.5199
11249TIP3    H155238   1.274   2.662   5.899 -1.7482 -0.7594  1.0119
11249TIP3    H255239   1.386   2.581   5.960  1.3633  0.6788 -2.5534
11250TIP3   OH255240   2.753   2.778  15.339 -0.9829  0.0011  0.2880
11250TIP3    H155241   2.676   2.793  15.284 -1.4289  0.1290  0.9469
11250TIP3    H255242   2.826   2.816  15.289 -0.9479 -2.1492 -1.4371
11251TIP3   OH255243   3.264   4.539   5.072  0.1266 -0.0667 -0.2094
11251TIP3    H155244   3.312   4.615   5.038 -0.8878  1.0662  0.8565
11251TIP3    H255245   3.318   4.506   5.144 -0.4007  0.8770  0.6341
11252TIP3   OH255246   4.042   2.256  17.120  0.0089 -0.2133 -0.0968
11252TIP3    H155247   3.954   2.267  17.082  0.0539  1.5962  0.2546
11252TIP3    H255248   4.089   2.335  17.093  1.2570 -0.7759  0.4315
11253TIP3   OH255249   4.729   2.857   0.823  0.1320  0.2542 -0.1994
11253TIP3    H155250   4.678   2.863   0.904 -1.6434  1.1064 -1.3628
11253TIP3    H255251   4.739   2.763   0.807 -0.6269  0.0874  0.3048
11254TIP3   OH255252   1.358   6.770  12.581  0.2906  0.1108  0.4439
11254TIP3    H155253   1.335   6.687  12.622 -0.1867  1.0378  2.0749
11254TIP3    H255254   1.361   6.833  12.653  1.3792  1.3639 -0.6702
11255TIP3   OH255255   2.075   0.859   1.842  0.1526  0.0215 -0.0991
11255TIP3    H155256   2.129   0.780   1.835  1.3789  0.9912 -1.6770
11255TIP3    H255257   2.002   0.844   1.782 -0.4479 -0.5318  0.7380
11256TIP3   OH255258   6.625   4.846  14.765 -0.4827 -0.0555  0.0272
11256TIP3    H155259   6.557   4.820  14.702  0.6178 -2.0480 -0.3706
11256TIP3    H255260   6.707   4.829  14.719  0.3298 -1.2435  1.8973
11257TIP3   OH255261   5.903   2.120  15.119 -0.1596  0.0331  0.4095
11257TIP3    H155262   5.993   2.097  15.142  0.5083  0.6170 -1.5212
11257TIP3    H255263   5.892   2.087  15.030 -2.0765 -0.5760  0.8388
11258TIP3   OH255264   4.969   5.593   3.512  0.0224 -0.1882  0.4302
11258TIP3    H155265   4.894   5.558   3.463  0.5772 -0.3617 -0.3044
11258TIP3    H255266   4.947   5.576   3.604 -1.0492  0.1838  0.2532
11259TIP3   OH255267   1.252   2.710  15.421  0.7335  0.0935  0.6202
11259TIP3    H155268   1.342   2.679  15.435  1.2462  0.9774 -0.6463
11259TIP3    H255269   1.263   2.797  15.383 -0.6407 -0.7251 -1.6970
11260TIP3   OH255270   6.568   0.113  14.140 -0.1767  0.0409  0.6656
11260TIP3    H155271   6.629   0.182  14.166 -0.8135  1.4115 -1.3123
11260TIP3    H255272   6.483   0.157  14.138 -0.6788 -0.9548 -0.0832
11261TIP3   OH255273   3.245   5.422  11.267 -0.1147 -0.1757 -0.8847
11261TIP3    H155274   3.230   5.430  11.172 -2.3989 -1.1133 -0.6205
11261TIP3    H255275   3.162   5.391  11.302  1.1238 -1.1279  1.2756
11262TIP3   OH255276   3.529   0.444  11.711  0.0455 -0.2616  0.1085
11262TIP3    H155277   3.543   0.475  11.622 -0.6203 -1.2845 -0.3512
11262TIP3    H255278   3.605   0.389  11.730  1.7911  2.4508  1.3167
11263TIP3   OH255279   5.467   0.302  15.859  0.6006 -0.2372 -0.1471
11263TIP3    H155280   5.469   0.206  15.867  1.3276 -0.2836 -0.9501
11263TIP3    H255281   5.476   0.333  15.949  0.3299 -0.9177  0.1219
11264TIP3   OH255282   0.732   0.337   5.137 -0.1574 -0.1494 -0.4200
11264TIP3    H155283   0.796   0.363   5.071 -1.0641 -0.0023 -1.2592
11264TIP3    H255284   0.710   0.246   5.115 -1.0869  0.1672 -0.8528
11265TIP3   OH255285   4.177   2.143   2.737  0.2912 -0.2875 -0.1538
11265TIP3    H155286   4.223   2.221   2.706 -0.1553 -1.1216 -3.0720
11265TIP3    H255287   4.188   2.145   2.832  2.9241  1.6723 -0.4337
11266TIP3   OH255288   5.003   4.172   3.040 -0.0057  0.1393 -0.8755
11266TIP3    H155289   4.925   4.210   2.999 -2.0621  0.0886  2.7416
11266TIP3    H255290   4.978   4.081   3.059 -0.1973  0.8633  2.7805
11267TIP3   OH255291   0.165   2.729   6.407 -0.8636 -0.0400  0.6356
11267TIP3    H155292   0.179   2.654   6.464 -0.1575  0.7478  1.5188
11267TIP3    H255293   0.080   2.764   6.435 -1.8371 -1.2792 -0.6808
11268TIP3   OH255294   6.421   5.634  15.457  0.0358 -0.2342  0.2588
11268TIP3    H155295   6.509   5.655  15.426 -0.4701  1.6891  0.1178
11268TIP3    H255296   6.422   5.538  15.467  2.5888 -0.0974  1.6528
11269TIP3   OH255297   5.957   3.524  11.431  0.2334 -0.0544 -0.2019
11269TIP3    H155298   5.961   3.619  11.430  1.2781 -0.0905  0.2861
11269TIP3    H255299   6.027   3.496  11.371  1.5060 -0.5456  1.4687
11270TIP3   OH255300   2.446   1.627   5.728 -0.5540 -0.1816  0.1487
11270TIP3    H155301   2.533   1.596   5.707  0.6120  0.6989  3.3238
11270TIP3    H255302   2.460   1.716   5.761 -2.7802  0.3946 -0.3901
11271TIP3   OH255303   6.744   5.635  14.180  0.5278 -0.2385  0.2431
11271TIP3    H155304   6.678   5.567  14.181  1.0224 -0.7286  2.3841
11271TIP3    H255305   6.750   5.662  14.088  0.3820 -3.1031 -0.6465
11272TIP3   OH255306   0.698   2.380   0.273 -0.5902  0.2239 -0.0679
11272TIP3    H155307   0.717   2.462   0.228 -1.3783  0.8319  0.6949
11272TIP3    H255308   0.771   2.368   0.333 -0.2814  0.1705 -0.4534
11273TIP3   OH255309   1.383   4.947   5.431 -0.0271 -0.0282  0.1702
11273TIP3    H155310   1.425   5.032   5.445  0.2542  0.2334 -2.1257
11273TIP3    H255311   1.296   4.968   5.396 -0.1025 -0.6987 -0.0527
11274TIP3   OH255312   2.802   0.003   1.699  0.1465 -0.1562  0.0977
11274TIP3    H155313   2.844  -0.074   1.738  0.2484 -0.3782 -0.4505
11274TIP3    H255314   2.874   0.064   1.684  0.6931 -1.4587 -3.0837
11275TIP3   OH255315   1.243   2.109   1.129  0.3360  0.6751 -0.1471
11275TIP3    H155316   1.272   2.191   1.170  1.1405 -0.2091  1.0682
11275TIP3    H255317   1.247   2.044   1.199 -3.5517  0.2700 -0.2279
11276TIP3   OH255318   6.132   6.123  15.809 -0.3368 -0.8299 -0.0934
11276TIP3    H155319   6.188   6.159  15.740 -1.5527  1.1182 -0.0992
11276TIP3    H255320   6.193   6.082  15.870  0.8807 -1.0885 -1.4444
11277TIP3   OH255321   2.941   4.555  12.129  0.0404 -0.6473  0.0762
11277TIP3    H155322   3.002   4.491  12.094  0.0729 -0.6004  0.0468
11277TIP3    H255323   2.901   4.512  12.205 -2.5165 -2.0460 -1.9853
11278TIP3   OH255324   0.732   0.443  10.320 -0.5913  0.2226  0.2148
11278TIP3    H155325   0.698   0.521  10.364 -3.1934 -0.7276 -0.0016
11278TIP3    H255326   0.824   0.463  10.304 -0.7717  2.5381  1.7206
11279TIP3   OH255327   3.547   4.766  12.924 -0.7412 -0.1140 -0.2243
11279TIP3    H155328   3.540   4.842  12.982 -0.2974 -2.0705  2.4600
11279TIP3    H255329   3.460   4.728  12.924 -1.4863  1.3816 -3.0970
11280TIP3   OH255330   2.689   6.798   4.636 -0.2489 -0.5949  0.0059
11280TIP3    H155331   2.666   6.706   4.629 -1.2176 -0.3632  0.1777
11280TIP3    H255332   2.782   6.797   4.659 -0.3604 -1.5322  0.4512
11281TIP3   OH255333   4.971   1.913  15.014  0.1458  0.0594 -0.0890
11281TIP3    H155334   4.883   1.915  14.978  0.3827 -0.8221 -0.7456
11281TIP3    H255335   4.960   1.940  15.105 -0.5423  1.6829 -0.6425
11282TIP3   OH255336   2.163   5.450  16.255  0.2539 -0.7974 -0.2725
11282TIP3    H155337   2.184   5.543  16.260 -0.5574 -0.6677  0.7564
11282TIP3    H255338   2.219   5.417  16.185  1.1535  0.2943 -0.0764
11283TIP3   OH255339   2.920   5.453  16.261  0.1790 -0.4865  0.1804
11283TIP3    H155340   2.899   5.386  16.195  0.4693  0.3785 -0.8063
11283TIP3    H255341   3.006   5.485  16.235 -1.2344  2.3929 -1.1285
11284TIP3   OH255342   5.844   5.820  11.866 -0.0532  0.8881  0.8994
11284TIP3    H155343   5.771   5.766  11.835 -0.5230  1.1430  1.5497
11284TIP3    H255344   5.819   5.909  11.840  1.0919  0.7132 -0.8772
11285TIP3   OH255345   2.060   4.902  10.623  0.2075 -0.1461  0.0764
11285TIP3    H155346   2.127   4.834  10.618  1.6757  1.3235 -0.7214
11285TIP3    H255347   2.062   4.931  10.714  1.0335  0.2610 -0.0701
11286TIP3   OH255348   0.717   4.072   1.596  0.0029  1.0434 -0.2244
11286TIP3    H155349   0.771   4.052   1.673  0.6647  2.8060 -0.2178
11286TIP3    H255350   0.681   3.987   1.570  1.0761  0.1741  1.0490
11287TIP3   OH255351   2.859   2.246   5.092 -0.1641 -0.3501  0.1600
11287TIP3    H155352   2.787   2.240   5.155 -1.8623  0.7783 -1.6008
11287TIP3    H255353   2.899   2.159   5.092 -2.9339 -1.6659 -0.4485
11288TIP3   OH255354   5.458   5.995   4.997 -0.2109  0.6720 -0.2236
11288TIP3    H155355   5.433   5.965   4.910 -1.1692  2.2976 -0.5440
11288TIP3    H255356   5.488   5.917   5.042 -1.3129 -0.4970 -1.4635
11289TIP3   OH255357   3.443   4.761   5.706 -0.1341  0.1532 -0.4441
11289TIP3    H155358   3.351   4.777   5.727 -0.4336 -0.2064 -1.4396
11289TIP3    H255359   3.492   4.820   5.763 -0.9167 -0.7158  1.1768
11290TIP3   OH255360   1.675   0.287  12.921 -0.3278 -0.1841 -0.5656
11290TIP3    H155361   1.648   0.218  12.861 -0.7459 -0.7052  0.2107
11290TIP3    H255362   1.638   0.367  12.885 -0.8538 -0.5419 -0.8196
11291TIP3   OH255363   2.653   5.603   3.629 -0.6150 -0.0038  1.0557
11291TIP3    H155364   2.649   5.547   3.552  0.3686 -1.8565  2.3198
11291TIP3    H255365   2.564   5.639   3.637 -0.4657  1.0563 -1.5124
11292TIP3   OH255366   5.360   1.738   6.196 -0.2028  0.2167 -0.6874
11292TIP3    H155367   5.363   1.819   6.145 -2.1065  0.4102 -0.5223
11292TIP3    H255368   5.346   1.767   6.286  0.3360 -0.2577 -0.4448
11293TIP3   OH255369   2.308   0.637   1.509  0.0477  0.1577 -0.1767
11293TIP3    H155370   2.296   0.692   1.432  0.3275 -0.1329 -0.4242
11293TIP3    H255371   2.401   0.618   1.511  0.2271  1.0780  0.8482
11294TIP3   OH255372   0.572   1.003   2.416 -0.8782 -0.2630  0.0676
11294TIP3    H155373   0.503   0.972   2.358 -0.2352  1.4671 -1.6715
11294TIP3    H255374   0.649   0.952   2.390 -0.6351  0.3754 -0.4584
11295TIP3   OH255375   4.795   2.154  13.716 -1.0682  0.1733  0.6713
11295TIP3    H155376   4.754   2.214  13.654 -0.8026  0.0882  0.4091
11295TIP3    H255377   4.789   2.068  13.674  1.6093  0.5224 -0.5385
11296TIP3   OH255378   4.944   2.709   3.900 -0.1228  0.0060 -0.2989
11296TIP3    H155379   4.866   2.760   3.922 -0.0376  0.2785 -0.6311
11296TIP3    H255380   4.995   2.708   3.981 -1.5704 -2.1752  0.6370
11297TIP3   OH255381   1.013   3.578   1.018 -0.0249 -0.4336 -0.2728
11297TIP3    H155382   1.032   3.516   1.088  0.7769 -1.2168 -1.1738
11297TIP3    H255383   1.036   3.664   1.055  0.5663 -0.8582  0.3584
11298TIP3   OH255384   0.453   4.525   5.363  0.1581 -0.4201 -0.1746
11298TIP3    H155385   0.366   4.561   5.381 -0.2075 -1.5136  0.3030
11298TIP3    H255386   0.472   4.552   5.273  0.2336  1.6057  0.4325
11299TIP3   OH255387   1.044   4.929   1.397 -0.2619  0.1744 -0.4531
11299TIP3    H155388   1.013   5.002   1.450  1.1509 -0.9104  1.9574
11299TIP3    H255389   0.967   4.900   1.348 -1.4002  1.7563  0.3705
11300TIP3   OH255390   5.377   5.776  15.577  0.0463  0.2898 -0.5360
11300TIP3    H155391   5.347   5.755  15.489 -1.3312 -1.0790  0.2361
11300TIP3    H255392   5.317   5.845  15.607 -0.7577 -0.6318  0.0388
11301TIP3   OH255393   2.108   1.305   2.791 -0.0560 -0.6300  0.1065
11301TIP3    H155394   2.152   1.363   2.852 -1.1445 -0.6199  0.9149
11301TIP3    H255395   2.056   1.363   2.736  1.8159 -0.5473 -1.6070
11302TIP3   OH255396   2.868   5.497  13.422  0.8477  0.8600 -0.5315
11302TIP3    H155397   2.822   5.577  13.443  0.4727  0.0183  1.9943
11302TIP3    H255398   2.865   5.445  13.502 -1.0625 -2.7420 -2.7841
11303TIP3   OH255399   5.953   3.486   2.982 -0.0046  0.0532  0.5320
11303TIP3    H155400   5.907   3.553   2.931  0.3399 -0.7848 -0.9064
11303TIP3    H255401   5.956   3.410   2.925  3.1927  0.0820  0.5401
11304TIP3   OH255402   1.740   0.613   4.545 -0.1033  0.0069  0.2148
11304TIP3    H155403   1.777   0.532   4.511 -2.2057 -0.0947 -2.0187
11304TIP3    H255404   1.790   0.631   4.625  0.4047 -3.4830  0.7832
11305TIP3   OH255405   0.871   3.529   3.368  0.3320 -0.2437 -0.0188
11305TIP3    H155406   0.815   3.498   3.297  2.1587 -0.6424 -1.3366
11305TIP3    H255407   0.932   3.590   3.325  1.6875 -0.7485  1.1379
11306TIP3   OH255408   5.971   4.673  14.528 -0.6054  0.0019  0.1599
11306TIP3    H155409   5.913   4.603  14.558 -0.9333  0.8681  1.6114
11306TIP3    H255410   6.058   4.647  14.558 -0.5005 -0.4572 -0.5254
11307TIP3   OH255411   5.479   0.576  11.498  0.2639 -0.0475 -0.5350
11307TIP3    H155412   5.466   0.639  11.569 -0.1975 -1.3401  0.5538
11307TIP3    H255413   5.554   0.524  11.525 -0.6228 -1.2946 -0.4215
11308TIP3   OH255414   6.042   6.113  12.172 -0.1369  0.0252  0.3627
11308TIP3    H155415   6.048   6.122  12.076  1.5542 -0.9560  0.3487
11308TIP3    H255416   6.043   6.203  12.204  0.2543  0.3469 -0.5181
11309TIP3   OH255417   1.174   5.755   4.302  0.2697 -0.2437  0.0654
11309TIP3    H155418   1.243   5.699   4.266  0.1307 -1.7014  2.0088
11309TIP3    H255419   1.097   5.735   4.249  0.7448 -0.3561 -0.5910
11310TIP3   OH255420   4.207   0.477  10.384  0.3393 -0.1056  0.1516
11310TIP3    H155421   4.288   0.426  10.377  0.2492 -0.0680 -1.2926
11310TIP3    H255422   4.137   0.413  10.384  0.2371 -0.0167 -1.4523
11311TIP3   OH255423   5.271   6.426  13.990 -0.3691  0.2527  1.0185
11311TIP3    H155424   5.259   6.334  14.014 -0.5032 -0.2870 -1.0003
11311TIP3    H255425   5.203   6.443  13.925 -0.2111  1.7291  1.2215
11312TIP3   OH255426   2.406   5.233   7.002 -0.1197 -0.1839 -0.4024
11312TIP3    H155427   2.335   5.251   6.941 -0.5267 -2.5951 -0.7193
11312TIP3    H255428   2.423   5.139   6.991  2.3169  0.1101  0.5160
11313TIP3   OH255429   3.836   2.813   5.371  0.3395 -0.0367 -0.0056
11313TIP3    H155430   3.785   2.744   5.413  0.3279 -0.1828 -0.2526
11313TIP3    H255431   3.857   2.778   5.284  0.1028  0.3799 -0.2334
11314TIP3   OH255432   5.087   5.540  14.907 -0.1410  0.2446 -0.5223
11314TIP3    H155433   5.144   5.616  14.916  0.4827 -0.2028 -0.6613
11314TIP3    H255434   5.143   5.472  14.869 -1.0000  0.0871 -1.5582
11315TIP3   OH255435   1.737   2.622   3.617 -0.1526  0.7260 -0.3120
11315TIP3    H155436   1.659   2.608   3.565 -0.2674 -0.4947  0.1811
11315TIP3    H255437   1.734   2.554   3.684  1.4666  0.5079 -0.4492
11316TIP3   OH255438   4.684   2.389  16.918 -0.0802 -0.6714  0.1589
11316TIP3    H155439   4.725   2.467  16.956  0.0447 -0.1545 -0.9875
11316TIP3    H255440   4.734   2.316  16.954  1.0787 -0.1129 -0.2682
11317TIP3   OH255441   1.955   1.299  12.280 -0.4024  0.2719 -0.5427
11317TIP3    H155442   1.998   1.351  12.212  0.8676 -1.1726 -0.8927
11317TIP3    H255443   1.914   1.226  12.232 -2.5943  1.1863 -0.1276
11318TIP3   OH255444   5.403   3.683  12.643 -0.6124  0.7269  0.3882
11318TIP3    H155445   5.477   3.625  12.625 -0.2226  0.5771  2.3185
11318TIP3    H255446   5.420   3.717  12.731 -2.7574  0.8016  0.8073
11319TIP3   OH255447   1.277   1.280  13.668 -0.5056  0.2068  0.3968
11319TIP3    H155448   1.225   1.210  13.706 -0.3740  0.0908  0.3627
11319TIP3    H255449   1.214   1.330  13.614 -0.5694  0.0324  0.3091
11320TIP3   OH255450   0.169   5.903  11.924  0.2336  0.1320  0.2835
11320TIP3    H155451   0.095   5.843  11.931 -1.2212  1.6550 -1.6152
11320TIP3    H255452   0.245   5.848  11.945 -1.2396 -1.8438  0.6955
11321TIP3   OH255453   3.962   0.906  12.661 -0.3311  0.5393 -0.3544
11321TIP3    H155454   4.026   0.879  12.726  0.2396  1.2699 -0.6026
11321TIP3    H255455   3.902   0.832  12.652 -1.5979  1.1641  2.4738
11322TIP3   OH255456   2.168   6.138   0.563  0.0396  1.0778  0.6834
11322TIP3    H155457   2.089   6.103   0.604  0.5298  1.1085  1.6658
11322TIP3    H255458   2.145   6.150   0.471 -0.9314  0.5897  0.8682
11323TIP3   OH255459   0.141   0.632   2.539  0.0415 -0.0237  0.3235
11323TIP3    H155460   0.077   0.588   2.483 -2.0064  0.4373  2.2346
11323TIP3    H255461   0.167   0.709   2.489  0.9368 -1.4632 -1.5009
11324TIP3   OH255462   5.635   4.503  11.360 -0.0085 -1.1687  0.1353
11324TIP3    H155463   5.584   4.563  11.305  0.5313 -0.8652 -0.0363
11324TIP3    H255464   5.675   4.442  11.297  3.7899  1.5516 -0.1927
11325TIP3   OH255465   6.005   5.198   3.086  0.3314  0.0446 -0.1184
11325TIP3    H155466   5.943   5.253   3.039  1.6365  2.3407  0.7343
11325TIP3    H255467   5.961   5.176   3.168  0.3796  1.1823  0.2271
11326TIP3   OH255468   1.404   4.234   5.754  0.4539 -0.4312  0.4959
11326TIP3    H155469   1.499   4.219   5.753  0.4979 -0.1341 -0.2936
11326TIP3    H255470   1.368   4.162   5.704  0.3535  0.0322 -0.1064
11327TIP3   OH255471   1.761   3.888  12.958 -0.4783  0.6388  0.1958
11327TIP3    H155472   1.797   3.813  13.004 -0.8398  0.3146 -0.0538
11327TIP3    H255473   1.757   3.957  13.025 -0.4761  0.3354  0.5099
11328TIP3   OH255474   6.716   3.084   5.377 -0.0380  0.5722  0.0308
11328TIP3    H155475   6.629   3.125   5.377  0.0953  0.8881  1.0832
11328TIP3    H255476   6.706   3.009   5.436 -0.1299 -0.5825 -1.4421
11329TIP3   OH255477   6.078   6.431  10.697  0.0895 -0.2922 -0.7146
11329TIP3    H155478   6.111   6.383  10.773  1.3234  0.4132 -0.7996
11329TIP3    H255479   6.089   6.371  10.624  2.4243  0.3857 -0.9678
11330TIP3   OH255480   3.361   2.029  12.454 -0.4905 -0.5614 -0.3305
11330TIP3    H155481   3.347   1.943  12.415 -0.4729 -0.1348 -1.3116
11330TIP3    H255482   3.325   2.022  12.542 -0.7216 -1.4969 -0.4955
11331TIP3   OH255483   3.589   5.670   2.643 -0.0704  0.3531  1.0009
11331TIP3    H155484   3.597   5.680   2.738  0.1587 -0.2018  1.0452
11331TIP3    H255485   3.631   5.586   2.624 -0.2720  0.3757  0.4288
11332TIP3   OH255486   4.237   2.398  11.559  0.3007 -0.5201  0.2990
11332TIP3    H155487   4.261   2.419  11.468 -0.1197  1.2213  0.5713
11332TIP3    H255488   4.220   2.483  11.599 -0.4973 -1.3528  1.7459
11333TIP3   OH255489   1.108   3.890  14.382 -0.1769  0.2823  0.1984
11333TIP3    H155490   1.145   3.801  14.385 -1.5690 -0.3913 -1.8971
11333TIP3    H255491   1.164   3.938  14.321 -2.1021 -0.4763 -2.2449
11334TIP3   OH255492   1.376   3.577   3.123  0.0322  0.1737  0.8767
11334TIP3    H155493   1.402   3.662   3.159 -0.2941  1.2894 -1.4381
11334TIP3    H255494   1.439   3.515   3.161  2.8023  2.0401 -0.4410
11335TIP3   OH255495   3.267   6.100  11.305 -0.5152  0.8468 -0.3115
11335TIP3    H155496   3.204   6.028  11.302 -2.1123  2.2261 -0.6288
11335TIP3    H255497   3.313   6.095  11.222  1.7842 -1.8816  1.0569
11336TIP3   OH255498   6.282   5.669  11.338 -0.2026 -0.0807  0.5566
11336TIP3    H155499   6.217   5.612  11.297  0.0960 -0.6959  0.9295
11336TIP3    H255500   6.364   5.619  11.335 -0.5023 -0.8224  3.3466
11337TIP3   OH255501   5.955   3.397  15.288  0.3592  0.0659 -0.0631
11337TIP3    H155502   5.931   3.368  15.376 -1.4059 -0.0039 -0.5365
11337TIP3    H255503   5.894   3.468  15.269  0.0913 -0.5461 -1.5779
11338TIP3   OH255504   5.129   3.486  13.129  0.3078 -0.4148 -0.3374
11338TIP3    H155505   5.204   3.432  13.151  1.2595  0.8975 -0.3122
11338TIP3    H255506   5.112   3.467  13.037 -0.0277 -1.5358 -0.0483
11339TIP3   OH255507   4.687   4.650   2.918  0.0518 -0.0665  0.4013
11339TIP3    H155508   4.706   4.743   2.915  0.3990 -0.1738 -0.8955
11339TIP3    H255509   4.748   4.615   2.983 -1.7463  0.9756  2.7357
11340TIP3   OH255510   4.334   0.257  14.501  0.1731  0.6170  0.8218
11340TIP3    H155511   4.318   0.163  14.496  0.5453  0.6216 -0.4169
11340TIP3    H255512   4.248   0.294  14.523 -0.0753  0.0335  0.8597
11341TIP3   OH255513   5.816   2.911   4.731  0.2680 -0.9701 -0.3751
11341TIP3    H155514   5.797   2.959   4.812 -1.1260 -0.9335 -0.7073
11341TIP3    H255515   5.896   2.952   4.697 -0.8396  1.0881 -0.5977
11342TIP3   OH255516   5.399   6.539   4.390 -0.2894  0.1961 -0.3095
11342TIP3    H155517   5.481   6.535   4.439  1.3356  1.9437 -2.7236
11342TIP3    H255518   5.355   6.617   4.424 -1.3606 -1.1663  1.5186
11343TIP3   OH255519   5.795   0.007   1.809 -0.1008 -0.3948 -0.3452
11343TIP3    H155520   5.795  -0.076   1.857 -0.8727 -1.4341 -2.1009
11343TIP3    H255521   5.840   0.068   1.867 -2.6843 -1.1201  2.5645
11344TIP3   OH255522   0.333   5.416   0.676  0.3504 -0.5834  0.1616
11344TIP3    H155523   0.372   5.329   0.677 -1.0405 -1.2303  1.5829
11344TIP3    H255524   0.394   5.471   0.726  0.5444 -1.0592  0.4482
11345TIP3   OH255525   4.981   2.984  16.579 -0.1423  0.0019  0.6692
11345TIP3    H155526   5.005   3.021  16.494  1.0751 -0.3891  0.8316
11345TIP3    H255527   4.935   3.055  16.624  0.0274  0.5164  0.0367
11346TIP3   OH255528   1.555   2.823  14.377  0.0625 -0.4239  0.0639
11346TIP3    H155529   1.514   2.759  14.320 -1.9483  0.8906 -0.0323
11346TIP3    H255530   1.560   2.903  14.324  1.0165 -0.0277  0.7215
11347TIP3   OH255531   2.594   2.979  16.442 -0.1149  0.2708 -0.6765
11347TIP3    H155532   2.544   2.947  16.367  0.9609 -1.0945 -0.8200
11347TIP3    H255533   2.537   3.046  16.481  0.2700  2.7310 -4.0542
11348TIP3   OH255534   1.941   3.028   5.251  0.1238  0.7126 -0.1083
11348TIP3    H155535   1.974   3.057   5.166  0.9064  0.2610  0.0371
11348TIP3    H255536   1.956   2.933   5.251 -4.5596 -0.1867 -1.5655
11349TIP3   OH255537   5.711   4.703   4.165 -0.0213 -0.5156 -0.3225
11349TIP3    H155538   5.741   4.679   4.077 -0.8692  0.2768 -0.8416
11349TIP3    H255539   5.781   4.676   4.223  1.3159  0.5308 -1.4188
11350TIP3   OH255540   2.696   1.213  16.600 -0.6023  0.1747  0.0220
11350TIP3    H155541   2.690   1.308  16.587 -0.4390  0.3549  1.1707
11350TIP3    H255542   2.771   1.186  16.547 -0.0812  0.8388  0.4087
11351TIP3   OH255543   0.974   5.686   5.713  0.4791 -0.1726 -0.3579
11351TIP3    H155544   0.895   5.714   5.759  0.2439 -1.7012  0.1755
11351TIP3    H255545   1.037   5.757   5.729 -0.4910  0.6286 -0.0431
11352TIP3   OH255546   0.263   0.049   5.643  0.1724 -0.5710  0.1746
11352TIP3    H155547   0.343   0.066   5.694 -0.3660 -1.5744  1.3676
11352TIP3    H255548   0.232   0.137   5.620 -0.1091 -0.0255  2.4419
11353TIP3   OH255549   2.797   0.013   1.423  0.2266 -0.1349 -0.2764
11353TIP3    H155550   2.881  -0.027   1.402 -0.3291 -2.0820  1.0260
11353TIP3    H255551   2.780  -0.013   1.513 -1.5965  0.5665 -0.3924
11354TIP3   OH255552   3.566   3.867   1.589 -0.2158 -0.4972  0.0285
11354TIP3    H155553   3.541   3.829   1.504 -2.3148  0.8636  0.0137
11354TIP3    H255554   3.658   3.892   1.577  0.3910 -2.9324 -0.8754
11355TIP3   OH255555   0.865   5.377  14.045  0.2613  0.2754 -0.2888
11355TIP3    H155556   0.891   5.457  14.001 -2.4620  1.5051  0.2329
11355TIP3    H255557   0.790   5.402  14.098 -0.0907 -2.4351  0.5909
11356TIP3   OH255558   0.120   4.003  16.973  0.4973  0.4336 -0.7775
11356TIP3    H155559   0.032   3.989  16.939 -0.7439  2.7061  1.3598
11356TIP3    H255560   0.168   4.045  16.901 -0.7519  1.0481 -1.2594
11357TIP3   OH255561   1.350   5.697  14.762 -0.1288  0.5982  0.2584
11357TIP3    H155562   1.256   5.691  14.750 -0.2652  1.8156  0.7031
11357TIP3    H255563   1.371   5.789  14.744  0.6745  0.8281  2.2119
11358TIP3   OH255564   3.930   1.880  15.364 -0.9527 -0.1636  0.8430
11358TIP3    H155565   3.986   1.958  15.369 -0.0605 -0.8348  1.6155
11358TIP3    H255566   3.960   1.834  15.286 -0.9489 -0.1154  0.8166
11359TIP3   OH255567   1.855   5.842  16.066 -0.3909  0.4797  0.4095
11359TIP3    H155568   1.930   5.898  16.088 -0.2460  0.0315  1.0539
11359TIP3    H255569   1.825   5.875  15.981 -0.2238  1.4442  0.7233
11360TIP3   OH255570   5.498   4.227  14.358 -0.5001 -0.5777 -0.5750
11360TIP3    H155571   5.551   4.164  14.406 -1.0887  0.3261  1.3048
11360TIP3    H255572   5.545   4.310  14.367 -1.5833 -0.0240  0.0409
11361TIP3   OH255573   1.922   3.546   0.368  0.2015 -0.2270 -0.3771
11361TIP3    H155574   1.828   3.548   0.348 -0.9465 -2.9540  4.0266
11361TIP3    H255575   1.937   3.623   0.423 -0.1236 -1.2739  1.2191
11362TIP3   OH255576   3.331   0.201   5.574  0.2057  0.0946 -0.1468
11362TIP3    H155577   3.347   0.156   5.657  0.8003 -0.2087 -0.4293
11362TIP3    H255578   3.273   0.274   5.598 -0.3440 -0.5047  0.3910
11363TIP3   OH255579   6.013   3.703  12.434  0.6820  0.2457 -0.2672
11363TIP3    H155580   5.944   3.769  12.431 -0.4826 -1.0366 -3.2995
11363TIP3    H255581   6.066   3.720  12.356  2.4529 -0.2348  0.8037
11364TIP3   OH255582   3.936   5.275   1.785 -0.3037 -0.0591  0.6523
11364TIP3    H155583   3.989   5.334   1.840  0.9642 -0.5126 -0.0493
11364TIP3    H255584   3.921   5.324   1.704 -2.1154  0.5824  1.3518
11365TIP3   OH255585   1.720   2.968   2.530 -0.0004 -0.2911 -0.2170
11365TIP3    H155586   1.810   2.996   2.548 -0.0466 -0.3223  0.0732
11365TIP3    H255587   1.688   2.937   2.615 -0.3869  0.0017 -0.2543
11366TIP3   OH255588   6.159   4.116  14.457  1.0623  0.4253  0.5320
11366TIP3    H155589   6.254   4.116  14.471  0.9476 -0.3833  1.3903
11366TIP3    H255590   6.129   4.034  14.496  0.0864  0.3564 -0.3293
11367TIP3   OH255591   4.167   1.003  11.307 -0.5418 -0.3779 -0.3842
11367TIP3    H155592   4.089   1.057  11.305  0.1597  0.6162 -2.0148
11367TIP3    H255593   4.212   1.023  11.225  1.1789 -1.2886  0.3108
11368TIP3   OH255594   6.184   5.484   2.898 -0.4219  0.5355 -0.5760
11368TIP3    H155595   6.152   5.395   2.885 -1.6737  0.8377  0.4101
11368TIP3    H255596   6.144   5.513   2.980  1.0901  1.5064 -0.1633
11369TIP3   OH255597   6.632   1.016   4.713 -0.0687  0.4965 -0.2448
11369TIP3    H155598   6.704   1.078   4.706  0.4724 -0.4290 -3.7120
11369TIP3    H255599   6.555   1.070   4.729  0.8546  1.7864 -0.0767
11370TIP3   OH255600   1.593   2.811   6.726  0.2698  0.4661 -0.1480
11370TIP3    H155601   1.587   2.871   6.800 -0.0770 -0.1095  0.2943
11370TIP3    H255602   1.686   2.790   6.719  0.2075 -0.0612  0.5932
11371TIP3   OH255603   4.301   5.452   5.992 -0.2532  0.3962  0.2893
11371TIP3    H155604   4.371   5.518   5.995 -0.3091  0.7005 -3.1344
11371TIP3    H255605   4.343   5.371   6.019  1.3363  0.6911 -1.2026
11372TIP3   OH255606   2.837   0.981   0.475 -0.1271  0.2696 -0.6856
11372TIP3    H155607   2.778   0.939   0.413 -0.4761 -0.6051  0.2262
11372TIP3    H255608   2.915   0.926   0.476  0.6858  1.3934 -1.8442
11373TIP3   OH255609   3.315   5.859   5.281 -0.4885  0.1894 -0.5764
11373TIP3    H155610   3.409   5.855   5.269 -0.3825  1.1639 -0.0416
11373TIP3    H255611   3.284   5.773   5.250  0.5591 -0.1377 -0.7412
11374TIP3   OH255612   1.573   5.030  16.452  0.1766  0.2747  0.1872
11374TIP3    H155613   1.612   4.946  16.428  1.9416  0.3993  2.4317
11374TIP3    H255614   1.490   5.006  16.495  0.2980 -0.2900  0.1086
11375TIP3   OH255615   5.641   1.196   3.846 -0.3357  0.1163  0.1361
11375TIP3    H155616   5.734   1.213   3.855 -0.2425 -0.7406  0.9160
11375TIP3    H255617   5.598   1.266   3.894  0.0091 -1.2633  2.5533
11376TIP3   OH255618   4.114   2.025   1.338  0.5891  0.0021 -0.3190
11376TIP3    H155619   4.075   2.037   1.425  2.4497 -0.1775  0.5739
11376TIP3    H255620   4.060   2.078   1.280  0.3521  1.5526  1.2669
11377TIP3   OH255621   2.038   3.307   3.962  0.7011  0.4390  0.3593
11377TIP3    H155622   2.127   3.312   3.997  0.8878  0.7387 -0.1640
11377TIP3    H255623   2.012   3.215   3.976  0.5164  0.7105  1.9047
11378TIP3   OH255624   4.285   2.798   0.821  0.1340  0.6388 -0.3101
11378TIP3    H155625   4.284   2.702   0.829  0.4941  0.5433 -1.3220
11378TIP3    H255626   4.232   2.828   0.895 -0.1314 -0.3466 -0.0804
11379TIP3   OH255627   1.166   1.329   5.694  0.1621  0.4425  0.2984
11379TIP3    H155628   1.260   1.333   5.673 -0.0638  1.3548 -0.5430
11379TIP3    H255629   1.125   1.306   5.611 -0.3668  0.0775  0.6631
11380TIP3   OH255630   6.118   3.790  15.102  0.1551 -0.5323  0.1313
11380TIP3    H155631   6.082   3.851  15.038  0.6364 -0.3283  0.0504
11380TIP3    H255632   6.064   3.711  15.094 -0.6501 -0.0102  0.4438
11381TIP3   OH255633   2.492   6.624   4.344 -0.0989  0.2977  0.0870
11381TIP3    H155634   2.565   6.598   4.401 -1.0791 -0.3976  1.0529
11381TIP3    H255635   2.449   6.542   4.320 -0.4998  0.6921 -0.5614
11382TIP3   OH255636   5.572   1.191   2.998  0.2224 -0.1348  0.5389
11382TIP3    H155637   5.607   1.130   2.933  2.8384  0.4260  1.3657
11382TIP3    H255638   5.648   1.216   3.051 -1.3475  1.5805  2.0554
11383TIP3   OH255639   2.475   2.867  15.234  0.0681 -0.3028 -0.1491
11383TIP3    H155640   2.529   2.934  15.277 -0.7261  0.3011 -0.0775
11383TIP3    H255641   2.401   2.916  15.198 -0.9499 -1.2582  0.6230
11384TIP3   OH255642   4.909   2.288   0.555  0.5301 -0.1029 -0.0203
11384TIP3    H155643   4.883   2.287   0.647 -1.4913  0.5594 -0.5572
11384TIP3    H255644   5.004   2.302   0.557  0.3628  0.9511  1.9385
11385TIP3   OH255645   5.752   3.291  13.980 -0.2083 -0.1504  0.3415
11385TIP3    H155646   5.828   3.234  13.970 -0.2306 -0.3353  1.1783
11385TIP3    H255647   5.679   3.240  13.944  0.2079  0.3861 -1.2955
11386TIP3   OH255648   0.325   3.146  11.344 -0.2791  0.8083  0.7804
11386TIP3    H155649   0.354   3.163  11.434 -0.2577  0.1190  0.9117
11386TIP3    H255650   0.235   3.177  11.342 -0.4554  0.3417  1.1988
11387TIP3   OH255651   4.780   6.027   5.024 -0.1859  0.1331 -0.0025
11387TIP3    H155652   4.739   5.944   5.050  1.1653 -0.3746  0.5343
11387TIP3    H255653   4.839   6.048   5.096 -0.4354  1.5198 -0.1884
11388TIP3   OH255654   0.140   3.666   2.082  0.4989  0.0742  0.7749
11388TIP3    H155655   0.211   3.653   2.018 -1.0860 -0.3318 -0.9737
11388TIP3    H255656   0.130   3.761   2.089  1.1860  0.1291  0.9890
11389TIP3   OH255657   4.826   2.316   3.387  0.0527 -0.4003  0.0637
11389TIP3    H155658   4.839   2.305   3.293  1.2249  1.1987  0.0069
11389TIP3    H255659   4.907   2.356   3.418  0.2204 -2.1428  2.0042
11390TIP3   OH255660   3.673   6.713   1.173 -0.2274  0.1926 -0.5101
11390TIP3    H155661   3.730   6.783   1.141 -0.8061  1.2280  0.6522
11390TIP3    H255662   3.586   6.754   1.178 -0.3984 -0.3186  1.0742
11391TIP3   OH255663   6.378   4.582   0.435  0.2525  0.5317 -0.3390
11391TIP3    H155664   6.443   4.600   0.503 -0.4787 -0.8590  0.7552
11391TIP3    H255665   6.422   4.606   0.353  1.5055  1.2706  0.5354
11392TIP3   OH255666   5.657   2.035   2.734 -0.1326  0.4198 -0.9207
11392TIP3    H155667   5.622   1.984   2.661 -0.2129 -1.2878  0.2723
11392TIP3    H255668   5.580   2.060   2.785 -0.1210  2.0525 -1.6793
11393TIP3   OH255669   3.984   0.882   5.167  0.2365 -0.1458  0.7498
11393TIP3    H155670   3.936   0.854   5.089 -0.2138  2.3067  0.0882
11393TIP3    H255671   3.955   0.823   5.236 -0.4778 -1.4178 -0.6037
11394TIP3   OH255672   0.425   2.791   1.082 -0.5030 -0.2516 -0.4952
11394TIP3    H155673   0.400   2.880   1.106  0.3946 -0.0776 -0.1956
11394TIP3    H255674   0.385   2.777   0.996 -0.8078  0.3645 -0.4562
11395TIP3   OH255675   4.063   3.024   0.913 -0.1841 -0.2987 -0.3176
11395TIP3    H155676   4.017   2.953   0.869  0.7294 -0.6495 -0.7184
11395TIP3    H255677   4.125   3.057   0.848 -0.7218  0.9829 -0.1943
11396TIP3   OH255678   4.989   6.354  11.408  0.7449  0.2124 -0.0236
11396TIP3    H155679   4.925   6.324  11.344  1.5104 -0.6683 -0.3942
11396TIP3    H255680   5.074   6.344  11.364  1.1705  0.9819  0.5955
11397TIP3   OH255681   1.975   0.818  15.362  0.0851  0.1775 -0.2437
11397TIP3    H155682   2.030   0.804  15.440 -1.7477 -1.2524  0.8423
11397TIP3    H255683   2.022   0.884  15.311  1.2952  1.2258  2.1308
11398TIP3   OH255684   5.038   0.573  15.540 -0.2293 -0.0014 -0.0075
11398TIP3    H155685   5.068   0.647  15.594 -1.5809  0.1844  0.5010
11398TIP3    H255686   5.085   0.497  15.575  2.5125  0.8422 -1.6520
11399TIP3   OH255687   6.731   2.175   5.439  0.0236 -0.0795 -0.0326
11399TIP3    H155688   6.771   2.097   5.403  1.5157 -0.4081  2.2066
11399TIP3    H255689   6.675   2.143   5.510 -0.4730  0.7542 -0.0426
11400TIP3   OH255690   4.746   5.502   1.688  0.3070  0.2264 -0.3131
11400TIP3    H155691   4.810   5.444   1.729  0.6583  0.0394 -1.1319
11400TIP3    H255692   4.796   5.582   1.669  0.0536  0.4475 -0.0495
11401TIP3   OH255693   4.203   3.079  12.019 -0.2709 -0.4778  0.4846
11401TIP3    H155694   4.183   3.094  12.111  2.0608  2.3710  0.5940
11401TIP3    H255695   4.155   3.147  11.972 -0.3179 -1.0354 -0.2906
11402TIP3   OH255696   5.299   3.869   2.196 -0.0490  0.2462 -0.1264
11402TIP3    H155697   5.381   3.913   2.218 -0.6259  0.8173  0.9202
11402TIP3    H255698   5.234   3.940   2.189 -1.0511 -0.4407  1.8746
11403TIP3   OH255699   4.424   5.369  12.136 -0.1792 -0.0357 -0.3310
11403TIP3    H155700   4.342   5.321  12.149  1.8435 -3.1760  1.4249
11403TIP3    H255701   4.441   5.410  12.221  0.1781  0.4082 -0.6172
11404TIP3   OH255702   1.461   0.907  13.254 -0.4133  0.3760  0.4005
11404TIP3    H155703   1.395   0.956  13.302 -2.0801  0.7202 -2.1173
11404TIP3    H255704   1.539   0.962  13.258 -1.3572  1.7517  0.2833
11405TIP3   OH255705   5.376   0.108   1.757 -0.4813 -0.0119 -0.0964
11405TIP3    H155706   5.417   0.064   1.831  1.0947 -0.1946 -1.0535
11405TIP3    H255707   5.440   0.174   1.729 -0.9345 -0.1186 -1.4406
11406TIP3   OH255708   1.949   5.403   3.398  0.0387 -0.2006  0.0938
11406TIP3    H155709   2.032   5.445   3.419  0.1771  0.0230 -0.8762
11406TIP3    H255710   1.891   5.475   3.374 -0.6135 -0.3039  1.3386
11407TIP3   OH255711   6.773   3.516  12.825 -0.5963 -0.0160 -0.1873
11407TIP3    H155712   6.730   3.492  12.908 -0.4534  1.4247  0.3253
11407TIP3    H255713   6.866   3.515  12.846 -0.4881 -0.9754 -0.7035
11408TIP3   OH255714   3.568   1.043   5.313 -0.3790  0.0263  0.2354
11408TIP3    H155715   3.518   1.070   5.390 -0.4289  0.2691  0.1185
11408TIP3    H255716   3.626   1.116   5.295  0.2547 -0.3827  0.5621
11409TIP3   OH255717   4.416   2.515   0.096  0.2630  0.3123  0.0268
11409TIP3    H155718   4.403   2.445   0.032  0.2202 -0.0946  0.4773
11409TIP3    H255719   4.464   2.474   0.168  0.4366  0.8027  0.1959
11410TIP3   OH255720   2.909   2.864  14.426 -0.4652  0.1786  0.2985
11410TIP3    H155721   2.987   2.879  14.479 -0.6183  0.0893  0.5504
11410TIP3    H255722   2.937   2.882  14.337 -0.2733  0.5866  0.4368
11411TIP3   OH255723   5.848   2.339  11.549 -0.0106 -0.3538 -0.3025
11411TIP3    H155724   5.840   2.244  11.552  1.1226 -0.4399  0.2918
11411TIP3    H255725   5.824   2.363  11.460  1.3377 -1.3529 -0.9484
11412TIP3   OH255726   2.102   6.333  17.014  0.3970  0.8465 -0.4669
11412TIP3    H155727   2.176   6.272  17.021 -0.5867 -0.1967  1.5358
11412TIP3    H255728   2.101   6.378  17.099 -1.0341  1.1073 -0.6147
11413TIP3   OH255729   4.625   2.739   0.381 -0.1571 -0.4786  0.2964
11413TIP3    H155730   4.574   2.760   0.460 -0.4919  2.0746 -0.5436
11413TIP3    H255731   4.562   2.751   0.309  0.7002 -0.7449 -0.4996
11414TIP3   OH255732   1.005   2.700  14.343  0.3895 -0.1029 -0.5286
11414TIP3    H155733   0.973   2.701  14.252  1.2611  2.5299 -0.8407
11414TIP3    H255734   0.933   2.738  14.394 -0.3158 -2.0730  0.0081
11415TIP3   OH255735   3.067   1.418   1.287 -0.9102  0.5674 -0.2978
11415TIP3    H155736   2.991   1.360   1.281  0.4892 -1.5659  1.7331
11415TIP3    H255737   3.123   1.393   1.214  1.4403 -3.4002  2.6717
11416TIP3   OH255738   4.032   0.395   2.952 -0.3474 -0.3441 -0.0088
11416TIP3    H155739   4.033   0.421   3.044 -2.3045  0.7841 -0.2692
11416TIP3    H255740   4.108   0.439   2.913 -1.3168  1.7765  0.4175
11417TIP3   OH255741   2.250   6.424   3.527 -0.6547  0.8338  0.3674
11417TIP3    H155742   2.292   6.463   3.604  0.5746  0.3577 -0.0516
11417TIP3    H255743   2.190   6.359   3.563 -0.2800  0.7968  0.9338
11418TIP3   OH255744   5.939   5.835  15.147  0.0044 -0.2178 -0.5959
11418TIP3    H155745   5.946   5.911  15.204  2.1940 -0.9176  0.1181
11418TIP3    H255746   5.870   5.858  15.084 -1.1771  1.2852  1.2015
11419TIP3   OH255747   2.056   4.450  13.164 -0.3369  0.2502 -0.5297
11419TIP3    H155748   2.041   4.411  13.078 -1.1033  1.9208 -1.1717
11419TIP3    H255749   2.019   4.386  13.225  2.5510 -2.2132 -1.1993
11420TIP3   OH255750   3.709   2.701   4.887  0.2524  0.5142  0.1035
11420TIP3    H155751   3.704   2.660   4.973 -3.7539  2.9469  1.1720
11420TIP3    H255752   3.784   2.761   4.893 -1.3299  2.3273  2.7825
11421TIP3   OH255753   4.735   2.268  13.451  0.3530 -0.1546  0.0905
11421TIP3    H155754   4.716   2.295  13.361  0.7141  2.4820  0.7544
11421TIP3    H255755   4.830   2.273  13.459  0.3529 -0.7334  0.5240
11422TIP3   OH255756   6.196   1.643  15.431  0.2972 -0.7097 -0.4250
11422TIP3    H155757   6.285   1.674  15.447 -0.5168  1.7711 -0.5169
11422TIP3    H255758   6.173   1.593  15.510  1.0236  0.4222  0.5168
11423TIP3   OH255759   5.479   3.453  14.531  0.6306  0.3911  0.3434
11423TIP3    H155760   5.561   3.422  14.569  0.2731 -1.5800 -0.4187
11423TIP3    H255761   5.414   3.387  14.556 -0.1829  0.5443 -1.2467
11424TIP3   OH255762   5.855   1.305  10.700 -0.7088 -0.8829  0.3436
11424TIP3    H155763   5.924   1.259  10.653 -0.1675  0.8827 -0.6511
11424TIP3    H255764   5.775   1.257  10.679  0.1744 -2.8582  1.3993
11425TIP3   OH255765   4.368   1.694  11.592 -0.0306  0.3768  0.3899
11425TIP3    H155766   4.303   1.759  11.618 -0.3822  0.3372 -0.3829
11425TIP3    H255767   4.317   1.617  11.569  0.3145  0.2031  0.2001
11426TIP3   OH255768   0.973   5.928  17.070 -0.0580 -0.0595  0.2046
11426TIP3    H155769   0.934   6.015  17.078  1.0239  0.3931  0.6769
11426TIP3    H255770   1.062   5.945  17.039  0.0279 -1.0274 -0.0791
11427TIP3   OH255771   5.571   2.180  12.288 -0.1051 -0.4575  0.7492
11427TIP3    H155772   5.555   2.200  12.380 -1.1310 -1.7575  0.8658
11427TIP3    H255773   5.488   2.200  12.244  0.2689 -0.1755  0.1664
11428TIP3   OH255774   6.455   3.626  14.319 -0.7203  0.0240 -0.1883
11428TIP3    H155775   6.432   3.692  14.254 -0.9045 -0.2728 -0.4195
11428TIP3    H255776   6.430   3.543  14.280 -0.8180 -0.1566  0.2549
11429TIP3   OH255777   5.658   2.295   2.332 -0.0051 -0.0306  0.1766
11429TIP3    H155778   5.735   2.347   2.356 -0.1623  0.2354  0.1033
11429TIP3    H255779   5.640   2.320   2.241  1.9874 -2.7246 -1.0358
11430TIP3   OH255780   1.661   4.647  13.630  0.1061  0.0717  0.1890
11430TIP3    H155781   1.578   4.679  13.667 -0.1702  1.3405 -1.4498
11430TIP3    H255782   1.726   4.666  13.697 -0.7650  0.0525  1.0488
11431TIP3   OH255783   3.495   4.812  10.477 -0.5589  1.0875 -0.2135
11431TIP3    H155784   3.409   4.793  10.513 -1.0675 -0.6809 -2.2500
11431TIP3    H255785   3.534   4.725  10.462  1.2226  1.8500 -0.1382
11432TIP3   OH255786   4.311   6.226   3.592 -0.7221  0.5996 -0.8497
11432TIP3    H155787   4.383   6.221   3.530 -0.9110  0.9561 -1.1030
11432TIP3    H255788   4.286   6.319   3.591  0.6069  1.0169  1.2686
11433TIP3   OH255789   4.052   0.078  14.780 -0.3968  0.3939  0.0404
11433TIP3    H155790   4.108   0.092  14.857 -0.0843 -1.0744  0.0896
11433TIP3    H255791   3.999   0.158  14.775  0.0161  0.7776  1.4126
11434TIP3   OH255792   2.147   6.772   2.109 -0.3565  0.4353  0.5334
11434TIP3    H155793   2.097   6.847   2.140 -0.5198  0.1934  0.8523
11434TIP3    H255794   2.085   6.699   2.111 -1.1190  0.9050 -2.7348
11435TIP3   OH255795   3.610   3.737   2.167  0.5465 -0.2038 -0.0421
11435TIP3    H155796   3.643   3.770   2.250  2.9903 -0.1938 -0.9799
11435TIP3    H255797   3.525   3.698   2.189 -0.3770  2.6877  1.8546
11436TIP3   OH255798   5.467   5.210  17.258 -0.1735 -0.1480  0.9991
11436TIP3    H155799   5.486   5.122  17.289  0.6110 -0.4115 -0.1754
11436TIP3    H255800   5.518   5.218  17.177  0.2756  1.6084  1.4424
11437TIP3   OH255801   6.066   5.068  10.515 -0.4141 -0.0529  0.4431
11437TIP3    H155802   6.122   5.044  10.442 -1.3431 -0.4784 -0.1439
11437TIP3    H255803   6.021   5.148  10.486  1.9027  1.8808  1.9842
11438TIP3   OH255804   3.597   0.219   2.325  0.0672  0.1751 -0.3104
11438TIP3    H155805   3.619   0.272   2.249  0.9479  0.8184  0.3762
11438TIP3    H255806   3.665   0.241   2.389 -0.2691 -0.8713  0.4082
11439TIP3   OH255807   4.037   5.236  14.523 -0.2756 -0.4763 -0.5502
11439TIP3    H155808   4.027   5.289  14.444  1.5821 -1.7098 -1.6394
11439TIP3    H255809   4.108   5.279  14.571  0.7455 -1.5286 -1.0943
11440TIP3   OH255810   4.983   3.461   3.774  0.1504  0.2353 -0.3243
11440TIP3    H155811   4.916   3.523   3.803  0.4266  1.0063 -1.3237
11440TIP3    H255812   4.933   3.390   3.733  0.0243  1.8873 -3.1236
11441TIP3   OH255813   6.240   4.074  12.969  0.2484 -0.1589 -0.1561
11441TIP3    H155814   6.250   3.992  12.920  0.1266 -0.4985  0.3834
11441TIP3    H255815   6.305   4.133  12.930  1.6741 -1.1237  0.7132
11442TIP3   OH255816   6.520   2.617  15.365  0.0124  0.3054 -0.1678
11442TIP3    H155817   6.471   2.697  15.346  1.2959  1.0419 -0.4689
11442TIP3    H255818   6.455   2.548  15.363 -1.1645  1.3837  0.3717
11443TIP3   OH255819   5.522   6.188   0.209 -0.1975  0.3299  0.4846
11443TIP3    H155820   5.471   6.259   0.248  1.4560  1.3807  0.8075
11443TIP3    H255821   5.557   6.224   0.128  1.3938  0.2203  1.0901
11444TIP3   OH255822   5.969   3.778  13.629  0.0140  0.0815  0.6845
11444TIP3    H155823   6.046   3.826  13.661 -0.0618  0.5007  0.2390
11444TIP3    H255824   5.909   3.778  13.704 -0.6994  2.1968  0.1543
11445TIP3   OH255825   2.730   6.810   6.040 -0.2769  0.7993 -0.5416
11445TIP3    H155826   2.722   6.897   6.080  0.2133  0.4449  0.3446
11445TIP3    H255827   2.801   6.768   6.089  1.6321  1.0291 -3.0328
11446TIP3   OH255828   4.359   4.152   0.686 -0.0133 -0.1486 -0.1232
11446TIP3    H155829   4.380   4.174   0.777  0.9005  2.5211 -0.9096
11446TIP3    H255830   4.437   4.106   0.654  0.8575  1.4689 -0.3604
11447TIP3   OH255831   2.779   6.498  16.564  0.1458 -0.1815  0.2918
11447TIP3    H155832   2.697   6.491  16.514 -0.2752 -0.6036  1.0268
11447TIP3    H255833   2.807   6.408  16.577  1.2180 -0.0093 -0.7245
11448TIP3   OH255834   2.660   0.286  16.112  0.5803 -0.0428 -0.1118
11448TIP3    H155835   2.691   0.305  16.023 -0.3563  0.6261 -0.3058
11448TIP3    H255836   2.564   0.295  16.106  0.3614 -1.7349  0.5509
11449TIP3   OH255837   5.990   5.596  11.404 -0.3410 -0.1070  0.3343
11449TIP3    H155838   6.013   5.607  11.312 -2.4688  1.0941 -0.0795
11449TIP3    H255839   5.997   5.502  11.420  0.0012 -0.3181 -1.0568
11450TIP3   OH255840   5.736   0.706  15.886  0.2474  0.3198 -0.3450
11450TIP3    H155841   5.724   0.774  15.952 -0.6643  0.1579 -0.3395
11450TIP3    H255842   5.770   0.752  15.810  0.5474  0.6311 -0.0279
11451TIP3   OH255843   5.262   5.844   1.413 -0.1418  0.0063 -0.0242
11451TIP3    H155844   5.292   5.922   1.367  2.3163  0.4025  2.1414
11451TIP3    H255845   5.318   5.773   1.380 -0.1579 -0.2216  0.4366
11452TIP3   OH255846   3.214   1.090   3.397  0.1548 -0.1141  0.1709
11452TIP3    H155847   3.120   1.077   3.386 -0.0584  1.4911 -0.0545
11452TIP3    H255848   3.246   1.110   3.309  0.3546  1.3520  0.5647
11453TIP3   OH255849   5.416   1.381   4.258 -0.6263  0.0274 -0.0455
11453TIP3    H155850   5.334   1.341   4.228 -0.7280  0.7739 -0.7863
11453TIP3    H255851   5.422   1.356   4.350 -1.4251 -0.4693 -0.1204
11454TIP3   OH255852   2.111   4.754   0.714  0.1136  0.0085 -0.4483
11454TIP3    H155853   2.144   4.690   0.652  1.0003  0.5487 -0.5390
11454TIP3    H255854   2.172   4.827   0.709  0.9257 -0.4330  1.9472
11455TIP3   OH255855   2.559   4.209   2.112 -0.1121  0.3004 -0.2016
11455TIP3    H155856   2.590   4.287   2.158 -2.3185  0.9173  0.3231
11455TIP3    H255857   2.536   4.148   2.181  1.1245 -0.6535 -0.6056
11456TIP3   OH255858   5.732   6.544   6.521 -0.4509  0.0413  0.3188
11456TIP3    H155859   5.709   6.505   6.605 -0.4967 -1.0912 -0.2142
11456TIP3    H255860   5.649   6.576   6.486 -0.8708 -1.8623 -0.4933
11457TIP3   OH255861   3.392   2.894  13.087 -0.1994  0.4084 -0.0565
11457TIP3    H155862   3.438   2.889  13.003  2.8074  1.6119  1.4371
11457TIP3    H255863   3.353   2.981  13.088 -0.7719  0.1629 -0.4352
11458TIP3   OH255864   5.948   4.132  15.220 -0.3067  0.6111 -0.5164
11458TIP3    H155865   5.903   4.212  15.248  1.7020  0.7058  2.7134
11458TIP3    H255866   5.878   4.069  15.205 -1.6707  1.4789  1.9358
11459TIP3   OH255867   1.182   2.593   4.191  0.8037 -0.5630 -0.2283
11459TIP3    H155868   1.093   2.616   4.215  0.8035 -1.5085  0.7024
11459TIP3    H255869   1.198   2.640   4.109 -1.1640 -1.8071 -1.3464
11460TIP3   OH255870   0.589   2.047  15.096 -0.3097  0.1188 -0.0369
11460TIP3    H155871   0.656   2.082  15.155  0.1659 -0.9907  0.0794
11460TIP3    H255872   0.581   2.114  15.027  0.2357  0.6985  0.4569
11461TIP3   OH255873   0.068   6.778  12.675 -0.2364 -0.0003  0.4843
11461TIP3    H155874   0.073   6.845  12.606  0.5055 -0.1667  0.3731
11461TIP3    H255875   0.151   6.785  12.721  0.6975 -2.1558 -0.7670
11462TIP3   OH255876   6.510   5.342   5.645 -0.0138  0.1999 -0.4278
11462TIP3    H155877   6.570   5.267   5.639 -0.2734 -0.0842  0.4935
11462TIP3    H255878   6.507   5.362   5.738 -0.1906  1.1663 -0.6398
11463TIP3   OH255879   4.937   1.917   3.471  0.4185 -0.1594  0.7559
11463TIP3    H155880   4.964   1.904   3.380 -1.7893  0.4263 -0.0045
11463TIP3    H255881   5.012   1.960   3.512  1.0306  0.5375 -1.0624
11464TIP3   OH255882   4.231   5.621  11.198 -0.0544  0.0687 -0.1795
11464TIP3    H155883   4.141   5.650  11.209  0.7080  2.7745 -0.6126
11464TIP3    H255884   4.239   5.599  11.105  0.1885  1.5521 -0.5186
11465TIP3   OH255885   2.347   2.797  16.992 -0.6759  1.1204  0.3007
11465TIP3    H155886   2.366   2.768  16.903  0.2145  1.9131  0.2200
11465TIP3    H255887   2.293   2.727  17.029 -2.5671  1.5910 -1.4451
11466TIP3   OH255888   6.370   6.301  13.931  0.2050 -0.3783  0.7589
11466TIP3    H155889   6.306   6.358  13.888  1.4513  0.0688 -0.5096
11466TIP3    H255890   6.394   6.237  13.864  2.5247  0.6198  0.6139
11467TIP3   OH255891   3.814   4.656  13.101 -0.0947 -0.4090 -0.6428
11467TIP3    H155892   3.791   4.586  13.162  0.4182  1.4247  1.7121
11467TIP3    H255893   3.731   4.681  13.060 -0.7946 -0.2266  0.8648
11468TIP3   OH255894   1.045   5.790  11.688 -0.4747 -1.0384 -0.1260
11468TIP3    H155895   1.051   5.817  11.780 -0.0663 -0.2206 -0.3961
11468TIP3    H255896   0.966   5.833  11.656 -0.4720 -1.1171 -0.2380
11469TIP3   OH255897   6.572   4.021   4.524  0.1171  0.4129  0.4753
11469TIP3    H155898   6.643   4.040   4.462  0.2648 -0.0419  0.4986
11469TIP3    H255899   6.494   4.055   4.482  0.1403 -0.3309 -0.1927
11470TIP3   OH255900   0.729   2.225  16.574  0.8428  0.5070  0.0574
11470TIP3    H155901   0.797   2.278  16.533  0.2360  0.3262 -1.2039
11470TIP3    H255902   0.771   2.140  16.590  0.5179 -0.0826 -2.0463
11471TIP3   OH255903   1.591   0.830   0.137  0.1407  0.5247  0.4543
11471TIP3    H155904   1.562   0.740   0.126 -0.3310  0.6692  0.5045
11471TIP3    H255905   1.684   0.823   0.158  0.3981  0.1097 -0.7797
11472TIP3   OH255906   2.183   3.746   1.011  0.1463  0.5647  0.1857
11472TIP3    H155907   2.271   3.767   0.980  0.0847 -0.0806 -0.4439
11472TIP3    H255908   2.132   3.826   0.995  0.0729  0.1859 -1.5822
11473TIP3   OH255909   2.420   4.159  15.489  0.2422 -0.2258 -0.0884
11473TIP3    H155910   2.388   4.192  15.573  2.6178  0.3179  0.6300
11473TIP3    H255911   2.341   4.126  15.445 -1.0601 -0.3567  2.2551
11474TIP3   OH255912   0.501   5.686  13.580  0.2811 -0.1078  0.2185
11474TIP3    H155913   0.458   5.649  13.503 -1.3069  0.3272  0.8935
11474TIP3    H255914   0.460   5.771  13.594  0.6833 -0.0972  1.4448
11475TIP3   OH255915   2.564   4.566  14.687 -0.5129 -0.9433  0.4160
11475TIP3    H155916   2.601   4.488  14.729  1.6459  0.3403  0.9900
11475TIP3    H255917   2.626   4.636  14.709 -2.0000  0.7682 -0.7533
11476TIP3   OH255918   3.676   6.702   2.641  0.0813 -0.6786 -0.0326
11476TIP3    H155919   3.597   6.649   2.630  1.2084 -2.6322  0.9097
11476TIP3    H255920   3.662   6.779   2.586 -1.2118 -2.4200 -2.2195
11477TIP3   OH255921   5.051   5.283   0.348 -0.3673  0.4952  0.0762
11477TIP3    H155922   4.981   5.218   0.341  0.6672 -0.6241  0.0385
11477TIP3    H255923   5.078   5.279   0.440  1.9111 -1.4886 -0.6271
11478TIP3   OH255924   3.354   5.208  15.561  0.5414 -0.0354  0.1775
11478TIP3    H155925   3.391   5.185  15.646 -0.7781  0.1654  0.8238
11478TIP3    H255926   3.269   5.163  15.559  1.0963 -1.0724 -1.5666
11479TIP3   OH255927   0.340   1.558   4.567  0.3074  0.1412 -0.1248
11479TIP3    H155928   0.350   1.481   4.511  0.8916 -2.1426  2.9869
11479TIP3    H255929   0.382   1.629   4.518  0.4747 -1.6788 -2.7097
11480TIP3   OH255930   0.707   4.331   3.757  0.0346 -0.4148  0.4301
11480TIP3    H155931   0.668   4.419   3.753  0.9917  0.0915  1.6552
11480TIP3    H255932   0.646   4.276   3.708 -0.1163  1.0872 -1.1311
11481TIP3   OH255933   6.273   2.349  16.917  0.1212  0.0520 -0.1394
11481TIP3    H155934   6.201   2.308  16.966 -0.1934  0.9509  0.1598
11481TIP3    H255935   6.248   2.339  16.825 -0.8228  1.1262 -0.0101
11482TIP3   OH255936   2.090   6.178  12.667 -0.4169  0.8761 -0.1550
11482TIP3    H155937   2.003   6.147  12.692 -0.3049 -0.2135 -1.0985
11482TIP3    H255938   2.148   6.146  12.736 -0.4276 -0.3305 -0.6991
11483TIP3   OH255939   2.804   0.483   6.802 -0.7756  0.0782  0.0541
11483TIP3    H155940   2.737   0.536   6.845 -2.2467 -2.9757  1.6303
11483TIP3    H255941   2.856   0.446   6.873  0.6791 -0.0842 -1.0521
11484TIP3   OH255942   6.181   2.426  15.126 -0.3076  0.9579  0.3684
11484TIP3    H155943   6.098   2.428  15.078 -0.3889 -1.4711  0.3397
11484TIP3    H255944   6.236   2.492  15.084 -1.5861  1.3084 -0.7756
11485TIP3   OH255945   4.892   1.588  10.861  0.5409 -0.2225 -0.4083
11485TIP3    H155946   4.980   1.556  10.841  0.8898  0.8968 -0.6728
11485TIP3    H255947   4.903   1.682  10.877 -0.1654 -0.5203  2.1651
11486TIP3   OH255948   2.853   2.515  12.982 -0.1105 -0.0913  0.5138
11486TIP3    H155949   2.937   2.513  13.028  0.3719 -3.6877 -0.3689
11486TIP3    H255950   2.838   2.607  12.964  3.0107  0.7460  1.8387
11487TIP3   OH255951   0.849   1.605   3.155  0.3602  0.6694 -0.3395
11487TIP3    H155952   0.918   1.641   3.211  0.3601 -0.1432  0.1966
11487TIP3    H255953   0.834   1.517   3.190 -1.1322  0.9344 -0.2851
11488TIP3   OH255954   3.167   1.958   6.018 -0.3919  0.7028 -0.1740
11488TIP3    H155955   3.175   2.025   6.085 -1.3919 -0.1958  0.8681
11488TIP3    H255956   3.102   1.897   6.052  1.1351 -1.2857 -0.6699
11489TIP3   OH255957   1.201   4.699   4.137 -0.0465  0.9275  0.2742
11489TIP3    H155958   1.169   4.787   4.118  0.6338  1.1970  0.3655
11489TIP3    H255959   1.177   4.683   4.228  1.4690  1.7428  0.8214
11490TIP3   OH255960   2.581   5.066  13.956 -0.5399  0.0917 -0.3785
11490TIP3    H155961   2.612   5.134  14.016 -1.0140  0.7175 -0.8410
11490TIP3    H255962   2.641   5.072  13.881 -0.0184 -0.6134 -0.0221
11491TIP3   OH255963   2.970   1.546  16.030 -1.2249 -0.1109  0.0030
11491TIP3    H155964   2.987   1.588  16.114  0.1409  0.6188 -0.6115
11491TIP3    H255965   2.875   1.547  16.020 -1.3649  0.2076  1.3182
11492TIP3   OH255966   2.464   0.356   5.632 -0.3109  0.4455  0.5105
11492TIP3    H155967   2.487   0.330   5.721  1.1985  1.2802  0.3739
11492TIP3    H255968   2.520   0.302   5.576  0.7014  1.8604  0.1473
11493TIP3   OH255969   1.175   6.818   2.836  1.0201 -0.5142  0.0068
11493TIP3    H155970   1.165   6.904   2.878  0.5572 -0.6908  0.2549
11493TIP3    H255971   1.211   6.762   2.905  2.3193 -0.2590 -0.4495
11494TIP3   OH255972   0.290   3.836  10.616 -0.9651 -0.3527  0.0084
11494TIP3    H155973   0.351   3.809  10.548  1.6578 -0.9473  2.4728
11494TIP3    H255974   0.336   3.906  10.663 -3.4223  1.2434  0.1059
11495TIP3   OH255975   0.365   5.144  10.543 -0.6256 -0.4186 -0.2287
11495TIP3    H155976   0.382   5.055  10.576  1.8388  0.0344 -0.1879
11495TIP3    H255977   0.284   5.135  10.492 -2.6132 -1.8599  2.9769
11496TIP3   OH255978   1.623   3.520  16.643  0.4158 -0.3746 -0.6069
11496TIP3    H155979   1.669   3.436  16.654  1.4383  0.1602 -0.7434
11496TIP3    H255980   1.661   3.558  16.564  0.9731  0.8772  0.2463
11497TIP3   OH255981   4.208   6.290  15.285 -0.0327  0.1572 -0.7669
11497TIP3    H155982   4.192   6.196  15.291 -0.8847  0.3345 -0.1205
11497TIP3    H255983   4.236   6.316  15.372 -1.7268  0.8321 -0.3930
11498TIP3   OH255984   3.706   2.676   2.073  0.0174 -0.1837 -0.0727
11498TIP3    H155985   3.791   2.639   2.048  0.1705  0.9195 -1.2654
11498TIP3    H255986   3.691   2.644   2.161  2.1197  0.3591  0.5154
11499TIP3   OH255987   1.808   1.713  11.239 -0.8655  0.4368  0.1051
11499TIP3    H155988   1.829   1.664  11.319  1.1867  1.1867  0.0615
11499TIP3    H255989   1.727   1.759  11.260 -0.5991  0.2682  1.6078
11500TIP3   OH255990   4.333   2.718   3.711 -0.0904 -0.8923  0.0066
11500TIP3    H155991   4.314   2.725   3.804  1.4979  1.8061  0.1522
11500TIP3    H255992   4.260   2.763   3.668 -0.5669 -1.7033 -0.0440
11501TIP3   OH255993   4.224   0.464  14.710  0.6195  0.1920 -0.0921
11501TIP3    H155994   4.173   0.507  14.642 -2.3789 -0.8982  1.3648
11501TIP3    H255995   4.274   0.535  14.750 -1.4223  1.7192 -0.1597
11502TIP3   OH255996   3.014   2.107  13.406  0.0144 -0.5098 -0.8199
11502TIP3    H155997   3.012   2.160  13.326  0.3402  0.9314  0.1107
11502TIP3    H255998   3.037   2.169  13.476  0.3253 -1.8564  0.3060
11503TIP3   OH255999   1.872   2.486   3.818 -0.6388 -0.1579 -0.3661
11503TIP3    H156000   1.842   2.406   3.863  0.7889 -0.6948 -0.3416
11503TIP3    H256001   1.908   2.540   3.888  0.2342 -0.3568 -0.6610
11504TIP3   OH256002   0.777   6.008  14.112 -0.0197  0.0279  0.0170
11504TIP3    H156003   0.728   6.071  14.058 -1.4944 -2.3311 -1.4638
11504TIP3    H256004   0.864   6.005  14.072 -0.5635 -0.3654 -1.1640
11505TIP3   OH256005   4.303   6.502   3.603  1.0475  0.1361  0.0764
11505TIP3    H156006   4.235   6.562   3.634  0.5289  0.0157 -0.8182
11505TIP3    H256007   4.372   6.558   3.571  1.5034  0.2632  1.2437
11506TIP3   OH256008   4.789   0.565  17.276 -0.2834 -0.2859 -0.1427
11506TIP3    H156009   4.726   0.624  17.318 -0.1053 -0.3117  0.1598
11506TIP3    H256010   4.873   0.585  17.317 -0.4384 -1.6245  0.8853
11507TIP3   OH256011   2.593   0.375  14.583  0.0546  0.4839 -0.0073
11507TIP3    H156012   2.662   0.435  14.613 -1.4015  1.7372  0.9326
11507TIP3    H256013   2.605   0.297  14.637 -0.4347  1.4364  1.5150
11508TIP3   OH256014   5.187   3.389  15.711  0.0549 -0.0394  1.3204
11508TIP3    H156015   5.214   3.427  15.627  0.5829 -0.7279  1.1672
11508TIP3    H256016   5.098   3.420  15.725 -0.1837 -0.2648  0.2979
11509TIP3   OH256017   5.998   1.218   0.320 -0.3412  0.2397  0.7487
11509TIP3    H156018   5.933   1.241   0.254 -1.4411 -1.3555  1.2383
11509TIP3    H256019   6.061   1.291   0.319 -1.2748  1.0467 -0.8266
11510TIP3   OH256020   0.075   5.964   2.823 -0.0196  0.1818  0.3993
11510TIP3    H156021   0.056   6.057   2.808 -2.4043 -0.2196  0.8216
11510TIP3    H256022   0.086   5.957   2.918  1.0439  0.1723  0.2837
11511TIP3   OH256023   0.889   0.254  11.290  0.0156  0.5364  0.4897
11511TIP3    H156024   0.802   0.258  11.329 -0.0315 -0.6079  0.5266
11511TIP3    H256025   0.939   0.199  11.351  0.2352 -0.3736 -0.4982
11512TIP3   OH256026   2.183   6.068  16.201  0.2465  0.0826  0.2081
11512TIP3    H156027   2.258   6.022  16.239 -0.8199 -0.9422  1.1241
11512TIP3    H256028   2.197   6.160  16.224 -0.0526 -0.4398  2.6040
11513TIP3   OH256029   4.001   1.111  15.809  0.3720  0.3597  0.3995
11513TIP3    H156030   4.016   1.178  15.876  0.1961  0.9646 -0.1548
11513TIP3    H256031   3.990   1.161  15.728 -0.3189 -0.3182  0.0744
11514TIP3   OH256032   1.197   4.639   5.870  0.2405 -0.3158 -0.3507
11514TIP3    H156033   1.262   4.573   5.845  1.0358  0.9419 -1.6098
11514TIP3    H256034   1.165   4.609   5.955  2.3080 -1.0568  0.1981
11515TIP3   OH256035   6.413   1.232   1.103  0.4597  0.1493  0.2965
11515TIP3    H156036   6.354   1.221   1.178 -0.6436  0.1399 -0.5533
11515TIP3    H256037   6.363   1.285   1.041  0.6180 -1.3960 -1.2085
11516TIP3   OH256038   2.957   3.641  10.870 -0.0089 -0.1167  0.4723
11516TIP3    H156039   2.907   3.576  10.819  0.3669 -0.0067 -0.0447
11516TIP3    H256040   3.048   3.613  10.860  0.1833  0.6990 -0.0501
11517TIP3   OH256041   5.354   2.073   2.294  0.4201  0.0909  0.3858
11517TIP3    H156042   5.273   2.099   2.252  0.8931 -0.9794 -1.2222
11517TIP3    H256043   5.336   1.985   2.329  1.3296 -0.7721 -1.2703
11518TIP3   OH256044   4.107   4.781  16.843 -0.5916 -0.1271  1.0219
11518TIP3    H156045   4.142   4.834  16.914  3.1525 -2.6413  1.2382
11518TIP3    H256046   4.055   4.713  16.887 -1.3437  0.4930  1.0910
11519TIP3   OH256047   6.494   5.600  10.670 -0.0584  0.3733  0.2812
11519TIP3    H156048   6.513   5.597  10.764 -0.8478  1.7209  0.5010
11519TIP3    H256049   6.442   5.522  10.654  0.7624 -0.2948  0.7946
11520TIP3   OH256050   2.524   2.282  15.322  0.3505  0.6054  0.1212
11520TIP3    H156051   2.509   2.376  15.328  0.5249  0.7055 -0.8657
11520TIP3    H256052   2.524   2.264  15.228  0.0711 -0.4191  0.3098
11521TIP3   OH256053   5.860   4.482  14.691  0.9784  0.3928 -0.3619
11521TIP3    H156054   5.784   4.491  14.748  0.5154  0.9301 -1.0504
11521TIP3    H256055   5.863   4.389  14.668  0.6680  0.3295 -0.1387
11522TIP3   OH256056   2.901   2.184   2.255  0.1529 -0.7464 -0.3259
11522TIP3    H156057   2.861   2.128   2.188  0.3070 -0.8452 -0.3345
11522TIP3    H256058   2.859   2.269   2.242 -0.2851 -0.9335 -0.1250
11523TIP3   OH256059   5.161   6.772  14.617  0.3333  0.1127 -0.1060
11523TIP3    H156060   5.113   6.855  14.625  1.3614  0.4321  3.0826
11523TIP3    H256061   5.137   6.740  14.530 -1.7795  2.6906 -0.5481
11524TIP3   OH256062   2.319   1.483   2.161  0.0800  0.7298 -0.3892
11524TIP3    H156063   2.261   1.557   2.177  0.1857  0.2079  2.7682
11524TIP3    H256064   2.262   1.406   2.169  0.6873  0.3334  0.1720
11525TIP3   OH256065   0.472   0.815  15.933  0.0035 -0.3562 -0.3411
11525TIP3    H156066   0.532   0.887  15.952 -0.2686 -0.3116  0.3653
11525TIP3    H256067   0.385   0.851  15.950 -0.1980 -0.5523 -0.9437
11526TIP3   OH256068   3.725   3.070   2.434  0.1353  0.5271 -0.4565
11526TIP3    H156069   3.654   3.112   2.385  0.5620  2.3190  0.4531
11526TIP3    H256070   3.784   3.036   2.366  0.7497  3.0350 -1.2236
11527TIP3   OH256071   4.809   0.524   4.503  0.2170 -0.1807  0.3385
11527TIP3    H156072   4.797   0.612   4.466 -1.0716 -0.1867  0.7223
11527TIP3    H256073   4.723   0.501   4.539  1.0446 -0.8044  1.9776
11528TIP3   OH256074   1.636   1.763  13.197  0.4075 -0.3532 -0.2870
11528TIP3    H156075   1.710   1.798  13.148 -0.4207  0.3332 -1.0608
11528TIP3    H256076   1.570   1.743  13.130  1.3837 -4.9003 -0.0986
11529TIP3   OH256077   2.274   0.998   0.688  0.2080 -0.3502  0.3168
11529TIP3    H156078   2.360   1.032   0.711  0.0653 -0.0439  0.3972
11529TIP3    H256079   2.226   0.995   0.770 -0.0057 -0.0950  0.2022
11530TIP3   OH256080   5.732   0.560  13.772 -0.2858 -0.6931 -0.0501
11530TIP3    H156081   5.807   0.566  13.713 -0.1597 -0.4839  0.1294
11530TIP3    H256082   5.738   0.639  13.826 -0.5182 -0.7791  0.1029
11531TIP3   OH256083   4.505   5.658   5.953 -0.2838 -0.1752 -0.1799
11531TIP3    H156084   4.502   5.622   5.864 -1.2120 -0.2873 -0.1066
11531TIP3    H256085   4.465   5.745   5.945  1.2796  0.5704 -0.2145
11532TIP3   OH256086   3.957   1.460   4.611 -0.4008  0.2715 -0.3192
11532TIP3    H156087   3.957   1.365   4.604  1.9315  0.2981 -1.2097
11532TIP3    H256088   3.970   1.491   4.521 -0.8757  1.4251 -0.0074
11533TIP3   OH256089   3.049   0.628  16.003 -0.0880  0.0464  0.0159
11533TIP3    H156090   2.954   0.620  15.996 -0.2220  1.3571  0.3139
11533TIP3    H256091   3.082   0.545  15.968 -1.2766  0.1642 -1.4367
11534TIP3   OH256092   6.367   6.326  17.124 -0.5906  0.0892  0.0387
11534TIP3    H156093   6.355   6.257  17.058 -1.1513  0.2496 -0.0235
11534TIP3    H256094   6.451   6.366  17.101 -0.3672 -0.4197 -0.0600
11535TIP3   OH256095   1.779   5.046  13.021  0.0137  0.7647 -0.0576
11535TIP3    H156096   1.708   5.057  13.084  1.9347 -1.0726  2.5318
11535TIP3    H256097   1.802   5.135  12.994 -1.2483  1.5369  1.3523
11536TIP3   OH256098   2.484   2.089  15.892 -0.6800 -0.0113  0.1311
11536TIP3    H156099   2.424   2.020  15.866 -0.4523 -0.4902  0.8456
11536TIP3    H256100   2.499   2.140  15.812 -0.5267 -1.0318 -0.5048
11537TIP3   OH256101   5.096   5.586   1.861  0.6032  0.0136 -0.3443
11537TIP3    H156102   5.166   5.640   1.824  0.1590  0.1720 -0.9533
11537TIP3    H256103   5.108   5.500   1.822  1.3396 -0.3557  0.6628
11538TIP3   OH256104   2.989   2.037  16.281 -0.7639  0.0358  0.2528
11538TIP3    H156105   3.083   2.036  16.265 -1.1026  0.4770 -1.8706
11538TIP3    H256106   2.964   2.128  16.267 -1.8306 -0.4712 -1.2464
11539TIP3   OH256107   4.264   3.247   2.771  0.0265  0.7251  0.2096
11539TIP3    H156108   4.208   3.281   2.840  0.6493  0.3011  0.9372
11539TIP3    H256109   4.223   3.165   2.745 -0.0457  0.7334  0.2968
11540TIP3   OH256110   0.571   4.466   0.315 -0.0696 -0.1936  0.5118
11540TIP3    H156111   0.581   4.488   0.223 -1.1556 -0.2238  0.3897
11540TIP3    H256112   0.649   4.413   0.335 -0.9514 -2.0822 -0.9507
11541TIP3   OH256113   2.374   3.295   2.611 -0.0551 -0.1099 -0.4344
11541TIP3    H156114   2.318   3.223   2.640  0.9717 -0.6981  0.1228
11541TIP3    H256115   2.428   3.257   2.541  0.2164  0.2179 -0.4074
11542TIP3   OH256116   3.590   4.551  15.795 -0.3631  0.1965  1.0369
11542TIP3    H156117   3.641   4.480  15.834  2.0797  1.4369  0.2250
11542TIP3    H256118   3.502   4.540  15.830  0.6182 -1.6049  3.0451
11543TIP3   OH256119   3.843   4.483   3.362 -0.0610  0.0084  0.3228
11543TIP3    H156120   3.805   4.517   3.281  0.8946 -0.0369 -0.1568
11543TIP3    H256121   3.890   4.557   3.399  2.7733 -0.9645 -1.1842
11544TIP3   OH256122   3.773   0.879   1.314  0.4879 -0.2647 -0.9126
11544TIP3    H156123   3.777   0.913   1.403  1.9667 -0.7472 -0.7896
11544TIP3    H256124   3.682   0.893   1.288 -0.1487 -0.7800  0.9302
11545TIP3   OH256125   1.023   0.085   5.584 -0.5717  0.2844  1.1317
11545TIP3    H156126   1.095   0.056   5.639  0.5962  0.9178 -0.0393
11545TIP3    H256127   0.997   0.169   5.622  1.5223  1.6762 -0.3906
11546TIP3   OH256128   0.414   5.122   4.431  0.0303 -0.1531  0.0334
11546TIP3    H156129   0.433   5.089   4.519 -0.2563  1.5485  0.7508
11546TIP3    H256130   0.476   5.076   4.374  1.6623  0.2766  1.4138
11547TIP3   OH256131   1.150   1.232   1.275 -0.0873 -0.1944  0.0051
11547TIP3    H156132   1.119   1.320   1.298  0.1718 -0.4918  1.5607
11547TIP3    H256133   1.112   1.214   1.189 -1.6116  0.7121  0.4833
11548TIP3   OH256134   4.363   3.115  15.757  0.3166 -0.5324  0.1287
11548TIP3    H156135   4.312   3.196  15.745  2.9333  1.2485  0.6638
11548TIP3    H256136   4.348   3.091  15.848 -1.4777 -1.4052 -0.3670
11549TIP3   OH256137   1.669   2.081  12.888  0.2234  0.1473  0.4093
11549TIP3    H156138   1.647   2.116  12.974 -2.3368 -2.2220  0.7659
11549TIP3    H256139   1.683   2.159  12.834 -0.2114  1.6602  2.4326
11550TIP3   OH256140   4.550   5.134  13.065  0.1195  0.0137 -0.1049
11550TIP3    H156141   4.565   5.219  13.106  2.2538 -0.5713  0.3677
11550TIP3    H256142   4.637   5.104  13.038 -0.6110 -1.9963 -0.3154
11551TIP3   OH256143   0.272   6.652  10.574 -0.1141  0.2766 -0.8498
11551TIP3    H156144   0.196   6.660  10.632  0.7374 -0.4144  0.3904
11551TIP3    H256145   0.329   6.724  10.599  0.0861  0.1989 -1.0893
11552TIP3   OH256146   4.201   1.973  12.748 -0.9048 -0.0650  0.4697
11552TIP3    H156147   4.164   1.994  12.662 -0.0939 -0.5941 -0.0153
11552TIP3    H256148   4.135   1.916  12.788 -1.3135  0.2291  0.2291
11553TIP3   OH256149   1.429   1.952   0.880 -0.0219  0.6887 -0.5468
11553TIP3    H156150   1.385   1.969   0.963 -0.3022  1.4338 -0.8397
11553TIP3    H256151   1.461   1.862   0.888  1.6168  1.3906  1.1005
11554TIP3   OH256152   6.057   4.219  16.441  0.2639 -0.8691 -0.6438
11554TIP3    H156153   6.009   4.223  16.524  1.7595 -0.0762  0.2010
11554TIP3    H256154   5.990   4.237  16.374 -1.1081 -2.2728  0.3017
11555TIP3   OH256155   6.290   0.165  15.960  0.4841 -0.0437 -0.7444
11555TIP3    H156156   6.202   0.161  15.923  0.5936  0.1542 -1.0245
11555TIP3    H256157   6.345   0.117  15.897  0.6924  0.4103 -0.9046
11556TIP3   OH256158   1.173   2.895   0.603  0.3837  0.7498  0.1632
11556TIP3    H156159   1.268   2.906   0.608  0.3891  0.0386  2.0777
11556TIP3    H256160   1.154   2.891   0.509  2.7362 -3.1088 -0.2378
11557TIP3   OH256161   1.468   5.244  11.398  0.2678 -0.1980  0.2252
11557TIP3    H156162   1.442   5.159  11.432 -0.3178  0.0543  0.4119
11557TIP3    H256163   1.496   5.293  11.476  1.1589 -0.4189  0.0428
11558TIP3   OH256164   2.424   3.552   5.196  0.6862  0.0072 -0.1596
11558TIP3    H156165   2.473   3.568   5.115  1.0213  0.0325  0.0431
11558TIP3    H256166   2.369   3.477   5.177  2.9440 -1.8769  0.5067
11559TIP3   OH256167   4.202   4.468  16.447 -0.3282  0.2289  0.4903
11559TIP3    H156168   4.160   4.408  16.509 -1.8604 -0.1613 -0.8872
11559TIP3    H256169   4.143   4.544  16.445 -1.5623 -0.7300 -2.2048
11560TIP3   OH256170   2.379   1.234  17.051  0.2841  0.1674 -0.3694
11560TIP3    H156171   2.438   1.283  16.994 -1.1275  1.8271 -0.4808
11560TIP3    H256172   2.301   1.220  16.997  0.2119 -1.1590  0.0793
11561TIP3   OH256173   1.719   0.381   5.576  0.3153  0.0484 -0.6593
11561TIP3    H156174   1.781   0.453   5.588 -0.6386  0.5056  1.6332
11561TIP3    H256175   1.648   0.398   5.638 -1.5852 -1.0732 -2.4547
11562TIP3   OH256176   6.546   5.623  10.927  0.1267  0.3177  0.0103
11562TIP3    H156177   6.501   5.588  11.004  1.1128  1.2843  1.0600
11562TIP3    H256178   6.520   5.715  10.924  1.5311  0.7411  0.2780
11563TIP3   OH256179   3.511   1.997  13.167  0.2134 -0.2496 -0.5158
11563TIP3    H156180   3.443   2.061  13.190 -0.0540 -1.2629  1.6059
11563TIP3    H256181   3.587   2.024  13.218 -0.3829 -2.5147  1.7010
11564TIP3   OH256182   4.192   0.634   3.801  0.3292  0.0964  0.2935
11564TIP3    H156183   4.214   0.549   3.762 -1.5913 -0.3331  0.1347
11564TIP3    H256184   4.106   0.621   3.840  1.6488  0.8710  3.6612
11565TIP3   OH256185   1.740   1.745  14.789 -0.1788  0.1849 -0.0214
11565TIP3    H156186   1.692   1.716  14.867  0.6206 -0.0611  0.3859
11565TIP3    H256187   1.787   1.823  14.818 -0.5548  0.5870 -0.4989
11566TIP3   OH256188   6.317   5.902   0.888  0.3076 -0.0504 -0.8098
11566TIP3    H156189   6.313   5.927   0.795  1.4233  1.0252 -0.5679
11566TIP3    H256190   6.242   5.946   0.927  0.6501  0.6411 -0.9284
11567TIP3   OH256191   3.992   6.327   0.014  0.3374  0.3307 -0.5554
11567TIP3    H156192   4.063   6.354  -0.044 -0.3050  2.9989 -0.1920
11567TIP3    H256193   3.912   6.349  -0.034 -0.2263 -0.2304  0.1110
11568TIP3   OH256194   2.473   2.300   4.031  0.4448 -0.0396 -0.4682
11568TIP3    H156195   2.540   2.243   4.069  0.8601 -1.8284 -3.6642
11568TIP3    H256196   2.394   2.281   4.081  0.5477 -3.5811 -1.5404
11569TIP3   OH256197   5.494   0.463   0.157  1.1060  0.3558 -0.0141
11569TIP3    H156198   5.497   0.370   0.136  0.2807  0.2816  0.1645
11569TIP3    H256199   5.445   0.502   0.085  1.0161  0.5774  0.1660
11570TIP3   OH256200   0.633   4.463   0.047  0.0795  0.4579  0.1481
11570TIP3    H156201   0.581   4.498  -0.025  0.2028  2.4203  0.9959
11570TIP3    H256202   0.685   4.394   0.007 -0.0317  1.3577 -1.5988
11571TIP3   OH256203   0.750   2.199   3.725 -0.1350  0.2479  0.3814
11571TIP3    H156204   0.732   2.207   3.819  0.2091  0.2944  0.4455
11571TIP3    H256205   0.664   2.185   3.685 -0.2842  0.2377  0.7023
11572TIP3   OH256206   1.912   6.092   3.754 -0.5189 -0.6420 -0.6535
11572TIP3    H156207   1.865   6.011   3.773  1.7005 -2.3647 -2.2046
11572TIP3    H256208   1.900   6.105   3.660 -2.2041  1.7299 -0.1262
11573TIP3   OH256209   1.613   1.579  12.499 -0.4338  0.1097 -0.0311
11573TIP3    H156210   1.669   1.502  12.504 -1.1085 -0.4468 -1.0819
11573TIP3    H256211   1.543   1.555  12.439 -1.6120  0.9347  0.9781
11574TIP3   OH256212   2.431   0.643   4.754  0.2551  0.4701 -0.3092
11574TIP3    H156213   2.471   0.558   4.770 -0.0975  0.5902  1.2616
11574TIP3    H256214   2.337   0.628   4.762  0.2058  1.0670  0.3417
11575TIP3   OH256215   5.839   2.687  13.823  0.0374  0.6165  0.7089
11575TIP3    H156216   5.918   2.703  13.771  0.1517 -2.4240 -0.1063
11575TIP3    H256217   5.767   2.706  13.764  0.1690 -1.4708 -0.1338
11576TIP3   OH256218   4.078   2.062  14.820 -0.7400  0.2492  0.2135
11576TIP3    H156219   4.028   2.051  14.739 -0.4465 -1.1020  0.2072
11576TIP3    H256220   4.065   2.154  14.844 -1.4069  0.4720 -0.9822
11577TIP3   OH256221   5.459   2.530   4.279 -0.4581 -0.0430 -0.1839
11577TIP3    H156222   5.430   2.447   4.242 -0.3713 -0.2842  0.2748
11577TIP3    H256223   5.548   2.512   4.311  0.2385  0.7164 -1.6738
11578TIP3   OH256224   3.469   1.016  12.842 -0.2020 -0.2886  0.2699
11578TIP3    H156225   3.388   1.033  12.794  1.0738  0.2627 -1.7922
11578TIP3    H256226   3.481   0.922  12.836 -1.2848 -0.5223  1.6056
11579TIP3   OH256227   1.153   0.265   2.052  0.4401  1.0134 -0.5526
11579TIP3    H156228   1.070   0.234   2.089  1.5736 -2.2046 -0.5031
11579TIP3    H256229   1.130   0.297   1.965 -0.8958  0.2420 -0.5115
11580TIP3   OH256230   4.855   0.513   1.680 -0.4891  0.0828 -0.5982
11580TIP3    H156231   4.885   0.533   1.591  0.6144 -0.7056 -0.4121
11580TIP3    H256232   4.811   0.429   1.673  1.4864 -1.0267 -0.0281
11581TIP3   OH256233   0.775   1.507   0.170 -0.5900  0.3581 -0.5863
11581TIP3    H156234   0.712   1.435   0.162  0.1436 -0.3457 -0.2149
11581TIP3    H256235   0.726   1.578   0.210 -0.6847 -0.8056  1.4515
11582TIP3   OH256236   4.216   0.571   5.123 -0.3974 -0.0966 -0.1198
11582TIP3    H156237   4.219   0.664   5.104  0.1771  0.4245  2.3342
11582TIP3    H256238   4.254   0.529   5.046  1.5696  1.8504 -0.2494
11583TIP3   OH256239   2.593   4.468   2.238 -0.1855  0.8312 -0.2875
11583TIP3    H156240   2.501   4.476   2.214 -0.1987  1.0593 -0.1550
11583TIP3    H256241   2.637   4.539   2.192 -0.0273  0.5339 -0.5989
11584TIP3   OH256242   0.562   4.304   2.994  0.0351 -0.2762 -0.1724
11584TIP3    H156243   0.522   4.341   2.915 -0.4487 -0.3093  0.0598
11584TIP3    H256244   0.654   4.329   2.988  0.0814 -0.6089 -0.9514
11585TIP3   OH256245   4.869   2.060  11.084  0.3675  0.2329 -0.0718
11585TIP3    H156246   4.898   2.143  11.045 -0.6434 -0.7446 -3.0737
11585TIP3    H256247   4.782   2.078  11.119 -0.2077  0.2838 -1.4749
11586TIP3   OH256248   2.447   3.998  12.310 -0.3633  0.2726 -0.9074
11586TIP3    H156249   2.489   4.001  12.224  0.4873  0.1868 -0.5035
11586TIP3    H256250   2.480   3.917  12.350 -0.4061  0.5358 -0.3274
11587TIP3   OH256251   2.496   5.157   1.992  0.0171  0.3177 -0.6680
11587TIP3    H156252   2.566   5.092   1.986 -0.9463 -0.8661  0.8013
11587TIP3    H256253   2.529   5.222   2.054  1.0713  1.3954 -2.3030
11588TIP3   OH256254   4.507   3.125  14.799  0.3808 -0.2984  0.6586
11588TIP3    H156255   4.516   3.089  14.711  2.0011 -0.5693  0.9207
11588TIP3    H256256   4.449   3.201  14.788  0.5581 -0.3408 -0.6297
11589TIP3   OH256257   0.861   2.818   0.481 -0.1800 -0.0640 -0.1170
11589TIP3    H156258   0.813   2.883   0.533 -0.5541 -2.0779  2.0928
11589TIP3    H256259   0.850   2.736   0.528  2.0568 -1.3634 -1.7639
11590TIP3   OH256260   4.486   5.007   2.325 -0.3965 -0.0717  0.2036
11590TIP3    H156261   4.402   4.989   2.283  0.0531 -1.1323 -0.2568
11590TIP3    H256262   4.551   4.993   2.256  0.4245 -2.7368  1.4451
11591TIP3   OH256263   1.217   1.406  16.125  0.1728 -0.2370  0.3631
11591TIP3    H156264   1.179   1.491  16.101  1.0972  0.0908  0.0558
11591TIP3    H256265   1.176   1.384  16.209 -0.2555  0.3956  0.3230
11592TIP3   OH256266   6.706   6.398   3.877  0.2069 -0.3282  0.3949
11592TIP3    H156267   6.721   6.484   3.916  1.2764  0.1751 -1.1221
11592TIP3    H256268   6.653   6.415   3.800 -0.7429 -1.1869  0.8489
11593TIP3   OH256269   2.271   0.712  16.306  0.6700 -0.4256  0.2366
11593TIP3    H156270   2.244   0.632  16.352 -1.1718 -0.8325 -1.4988
11593TIP3    H256271   2.289   0.775  16.377 -1.2356 -1.3069  1.5623
11594TIP3   OH256272   1.836   2.131  17.136  0.0682 -0.2147  0.1244
11594TIP3    H156273   1.795   2.052  17.101 -0.7898  0.9535 -1.6194
11594TIP3    H256274   1.769   2.170  17.191  1.0070 -1.4306  2.2013
11595TIP3   OH256275   2.677   6.797  13.588  0.3024  0.5388 -0.1695
11595TIP3    H156276   2.670   6.702  13.590  0.2885  0.5669  2.2508
11595TIP3    H256277   2.649   6.821  13.500 -1.0627 -1.5852 -0.3435
11596TIP3   OH256278   6.173   0.959   1.697  0.1500  0.3014  0.2823
11596TIP3    H156279   6.102   0.896   1.679 -0.2966  0.2537  2.0955
11596TIP3    H256280   6.209   0.930   1.781  2.6023  0.0934 -0.8144
11597TIP3   OH256281   4.561   2.865   3.639 -0.3787  0.4147 -0.6343
11597TIP3    H156282   4.480   2.816   3.654  0.6039 -0.4951  1.9800
11597TIP3    H256283   4.531   2.952   3.612 -2.2033 -0.3095 -1.0453
11598TIP3   OH256284   6.234   0.626   4.082 -0.2138 -0.8638 -0.2507
11598TIP3    H156285   6.265   0.568   4.013  0.0725  0.4991 -1.3057
11598TIP3    H256286   6.279   0.597   4.161  1.5530 -0.7327 -1.1875
11599TIP3   OH256287   5.142   4.149   4.376 -0.6746  0.3196  0.2280
11599TIP3    H156288   5.237   4.159   4.372 -0.6313 -0.2118 -0.2257
11599TIP3    H256289   5.107   4.232   4.344 -0.3628  0.4762  0.2924
11600TIP3   OH256290   6.791   3.261   0.043  0.5003 -0.1624 -0.0393
11600TIP3    H156291   6.727   3.332   0.042 -0.0025 -0.6182 -0.6660
11600TIP3    H256292   6.773   3.213   0.123 -0.4519 -0.7468 -0.5984
11601TIP3   OH256293   2.803   4.428   1.977 -0.1182  0.3050  0.3552
11601TIP3    H156294   2.775   4.509   2.021  0.8612  1.7972 -1.6945
11601TIP3    H256295   2.761   4.432   1.891 -0.1585 -1.4595  0.2714
11602TIP3   OH256296   5.578   3.066   2.155  1.0529  0.6340 -0.3383
11602TIP3    H156297   5.619   3.030   2.077  0.3281 -0.5385 -0.1984
11602TIP3    H256298   5.491   3.095   2.126  0.6013 -0.2387  0.1185
11603TIP3   OH256299   1.839   0.599   5.268  0.3951 -0.3897  1.0286
11603TIP3    H156300   1.783   0.640   5.333 -1.1615  0.3891 -0.7421
11603TIP3    H256301   1.927   0.601   5.306 -0.5736 -0.4752  3.3082
11604TIP3   OH256302   5.197   3.722   5.654 -0.0600 -0.3595 -0.4074
11604TIP3    H156303   5.137   3.648   5.659 -0.7855  0.3193  1.4268
11604TIP3    H256304   5.280   3.684   5.625 -0.4629 -1.8503  0.3707
11605TIP3   OH256305   5.561   5.402   4.339  0.3301  0.1369  0.1637
11605TIP3    H156306   5.476   5.437   4.311  0.8365 -0.9118 -2.9262
11605TIP3    H256307   5.539   5.327   4.394 -0.7851 -0.0435 -0.5031
11606TIP3   OH256308   4.055   4.168   4.442  0.1277  0.2076 -0.3569
11606TIP3    H156309   4.139   4.159   4.487  1.1470  1.3995 -1.9405
11606TIP3    H256310   4.052   4.260   4.415 -1.4539  0.0531 -0.7819
11607TIP3   OH256311   0.508   0.345  15.048  0.2869 -0.0047 -0.4064
11607TIP3    H156312   0.525   0.437  15.066  1.3827 -0.0461 -1.2020
11607TIP3    H256313   0.422   0.344  15.005 -0.0102  0.5766  0.1752
11608TIP3   OH256314   4.811   3.422   5.304  0.2365  0.2470  0.1059
11608TIP3    H156315   4.770   3.458   5.382  0.5767  0.4700  0.1793
11608TIP3    H256316   4.857   3.495   5.264  1.8269 -0.3325  0.8342
11609TIP3   OH256317   4.764   1.571  13.208  0.3927 -0.0391  0.3399
11609TIP3    H156318   4.780   1.638  13.142  1.0474 -0.5149  0.0068
11609TIP3    H256319   4.848   1.527  13.219  0.1171 -0.4239  0.9828
11610TIP3   OH256320   5.022   1.382   1.266 -0.5320 -0.2954 -0.0989
11610TIP3    H156321   5.058   1.373   1.178 -0.6820 -0.6285 -0.1270
11610TIP3    H256322   4.999   1.293   1.292  0.4412 -0.3300  0.6693
11611TIP3   OH256323   4.818   3.820   3.550  0.2258  0.2065  0.2958
11611TIP3    H156324   4.753   3.886   3.575  0.0815 -0.3035  1.2757
11611TIP3    H256325   4.778   3.736   3.574  0.3952 -0.2515 -0.9623
11612TIP3   OH256326   0.168   0.550   5.336 -0.6276  0.9515 -0.3573
11612TIP3    H156327   0.196   0.473   5.386  0.2206  0.8636 -0.9730
11612TIP3    H256328   0.104   0.517   5.274 -1.8274  1.0876  0.7715
11613TIP3   OH256329   1.894   1.198   5.025  0.0492  0.3560  0.5632
11613TIP3    H156330   1.935   1.111   5.026  1.0532  0.8083  0.0691
11613TIP3    H256331   1.926   1.241   5.105 -1.0547  0.0072  1.2030
11614TIP3   OH256332   4.784   6.800  12.985  0.4149 -0.0771 -0.1531
11614TIP3    H156333   4.768   6.749  12.906  0.1320  2.9336 -2.1449
11614TIP3    H256334   4.759   6.743  13.057 -1.0615 -2.2528 -2.3310
11615TIP3   OH256335   1.315   6.696  14.905  0.0688 -0.2537  0.0807
11615TIP3    H156336   1.261   6.634  14.857 -1.6266  1.1810  0.0984
11615TIP3    H256337   1.261   6.775  14.912  2.0426  1.1107  0.3590
11616TIP3   OH256338   0.113   3.548  10.470  0.0841 -0.0201  0.1941
11616TIP3    H156339   0.189   3.509  10.428  0.3067  1.8268 -1.2265
11616TIP3    H256340   0.130   3.643  10.468 -1.8299  0.3677  0.6107
11617TIP3   OH256341   1.147   3.862   0.978  0.2083  0.0524 -0.1509
11617TIP3    H156342   1.130   3.954   0.962  1.1231  0.1532 -0.5877
11617TIP3    H256343   1.113   3.817   0.900 -0.0645  0.0429 -0.0248
11618TIP3   OH256344   3.804   0.513  13.677  0.2877 -0.3006 -0.3797
11618TIP3    H156345   3.764   0.475  13.599  0.2508 -0.1013 -0.4575
11618TIP3    H256346   3.733   0.559  13.721  0.8200  1.6775 -1.5147
11619TIP3   OH256347   5.250   3.485   3.662 -0.0509 -0.1854  0.2327
11619TIP3    H156348   5.164   3.463   3.698 -0.0235  0.6995  0.8580
11619TIP3    H256349   5.238   3.485   3.567 -1.4683  2.7989  0.3684
11620TIP3   OH256350   4.331   0.388   1.106  0.5513 -0.2341  0.0030
11620TIP3    H156351   4.273   0.320   1.141  0.2771 -0.4765 -0.9067
11620TIP3    H256352   4.277   0.467   1.106  0.7992 -0.0696  0.8552
11621TIP3   OH256353   1.838   1.610   5.745  0.0680  0.1439  0.2442
11621TIP3    H156354   1.838   1.593   5.839  0.0028  0.2228  0.2585
11621TIP3    H256355   1.768   1.674   5.732 -0.7784 -0.8335 -0.0316
11622TIP3   OH256356   3.780   1.158   4.875 -0.1508  0.2726 -0.4277
11622TIP3    H156357   3.773   1.213   4.797  0.1639  0.0454 -0.6184
11622TIP3    H256358   3.789   1.219   4.948  2.5393  0.4624 -0.8620
11623TIP3   OH256359   2.124   4.961  14.519  0.4170 -0.4895  0.2486
11623TIP3    H156360   2.049   4.931  14.468  0.9382 -0.2292 -0.6709
11623TIP3    H256361   2.089   4.974  14.607 -0.3069 -1.6709  0.1382
11624TIP3   OH256362   1.350   0.544   2.781 -0.0494  0.0006 -0.3863
11624TIP3    H156363   1.333   0.638   2.772 -1.3810 -0.1529  0.4218
11624TIP3    H256364   1.443   0.535   2.764 -0.2755  1.2096 -2.4616
11625TIP3   OH256365   4.209   3.832   3.866  0.0266 -0.0915  0.5050
11625TIP3    H156366   4.143   3.895   3.894 -0.5220  1.0913 -3.1991
11625TIP3    H256367   4.165   3.748   3.872 -1.1588  0.4749 -0.0583
11626TIP3   OH256368   4.113   5.209  13.157 -0.3277 -0.0001 -0.1039
11626TIP3    H156369   4.108   5.176  13.068  0.7997 -1.6553  0.4134
11626TIP3    H256370   4.108   5.304  13.149 -3.7431 -0.2478 -1.6558
11627TIP3   OH256371   3.741   6.647   1.438 -0.2962  0.2267 -0.4299
11627TIP3    H156372   3.784   6.562   1.423 -0.9187  0.1400 -1.8241
11627TIP3    H256373   3.718   6.677   1.350 -2.1705  0.7595  0.2284
11628TIP3   OH256374   4.942   2.899  14.444  0.4322 -0.1570  0.3071
11628TIP3    H156375   5.015   2.921  14.386  0.0527  1.1460  0.2991
11628TIP3    H256376   4.983   2.880  14.528  0.8055  0.3761  0.2488
11629TIP3   OH256377   1.618   2.113  14.393 -0.2708 -0.3069 -0.2462
11629TIP3    H156378   1.577   2.198  14.405 -2.7615 -1.7045  1.6642
11629TIP3    H256379   1.708   2.125  14.424 -0.6972  1.5313  0.3184
11630TIP3   OH256380   3.549   0.523  12.254  0.4384 -0.2814 -0.1441
11630TIP3    H156381   3.638   0.487  12.259  1.3273  1.6027 -1.8360
11630TIP3    H256382   3.495   0.447  12.232  1.8101 -1.1908 -0.4930
11631TIP3   OH256383   6.589   2.104  12.709  0.4408  0.2580  0.0905
11631TIP3    H156384   6.658   2.089  12.773 -1.4015 -2.6218  1.5107
11631TIP3    H256385   6.596   2.031  12.648 -0.7675  0.4124 -0.2632
11632TIP3   OH256386   0.999   2.648   0.004  0.3203 -0.5686  0.0646
11632TIP3    H156387   0.970   2.559   0.024 -0.6576 -0.8350 -2.3358
11632TIP3    H256388   0.977   2.698   0.083  0.8731 -2.4369  1.4386
11633TIP3   OH256389   1.365   0.649  14.959 -0.0371  0.1405 -0.2520
11633TIP3    H156390   1.333   0.581  14.901 -0.2726  0.1466 -0.1276
11633TIP3    H256391   1.373   0.727  14.903  0.0620  0.0573 -0.3529
11634TIP3   OH256392   3.210   5.888   0.625 -0.6676  0.0145  0.3287
11634TIP3    H156393   3.241   5.973   0.593  0.5646 -0.1229  1.1413
11634TIP3    H256394   3.150   5.909   0.696  0.0924  0.2008  0.9225
11635TIP3   OH256395   6.322   5.622   3.929  0.0403 -0.7224 -0.3357
11635TIP3    H156396   6.359   5.614   4.017  1.3787 -0.8036 -0.8935
11635TIP3    H256397   6.242   5.673   3.941  0.9221  0.4505  0.7453
11636TIP3   OH256398   3.492   1.581   6.202 -0.1720  0.2095  0.3799
11636TIP3    H156399   3.445   1.659   6.171 -1.2278 -1.0257 -1.2073
11636TIP3    H256400   3.584   1.607   6.202 -0.5294  1.5355  0.1054
11637TIP3   OH256401   2.580   5.219   0.379  0.1450  0.3125 -0.0273
11637TIP3    H156402   2.509   5.244   0.439  0.9929  1.5619  0.4877
11637TIP3    H256403   2.536   5.201   0.296 -0.9303 -0.3667  0.6814
11638TIP3   OH256404   0.083   1.983  16.711  0.1129 -0.9990  0.1255
11638TIP3    H156405   0.093   2.076  16.732 -0.4580 -0.9238  0.0646
11638TIP3    H256406   0.061   1.942  16.794 -0.4947 -0.9496 -0.0092
11639TIP3   OH256407   1.867   4.262  13.982  0.3788 -0.5763  0.1313
11639TIP3    H156408   1.897   4.184  14.028 -0.5724 -1.2334 -0.3428
11639TIP3    H256409   1.931   4.329  14.004  0.4191 -1.1091  1.7113
11640TIP3   OH256410   2.762   4.606   3.518  0.4328  0.2767  0.1825
11640TIP3    H156411   2.816   4.547   3.465  0.5066 -0.7784  1.4132
11640TIP3    H256412   2.774   4.576   3.608 -0.4381  1.4533  0.7083
11641TIP3   OH256413   4.802   5.196   2.423 -0.0495  0.0932 -0.0603
11641TIP3    H156414   4.773   5.262   2.361  0.2827 -0.2812 -0.6096
11641TIP3    H256415   4.861   5.243   2.482 -0.2832  0.4208 -0.0834
11642TIP3   OH256416   4.491   6.267   0.349 -0.2134  0.2449  0.0839
11642TIP3    H156417   4.443   6.272   0.267 -0.2482 -0.0539  0.0841
11642TIP3    H256418   4.426   6.288   0.416 -0.4782 -0.6745  0.1260
11643TIP3   OH256419   4.307   4.563  16.828  0.9597  0.3243 -0.3453
11643TIP3    H156420   4.334   4.480  16.789  0.4641  0.3895 -0.8280
11643TIP3    H256421   4.212   4.559  16.830  1.0133 -0.3041  2.2445
11644TIP3   OH256422   0.467   2.487  13.233  0.0907  0.1344  0.3706
11644TIP3    H156423   0.462   2.573  13.274 -1.0257  1.9522 -3.3074
11644TIP3    H256424   0.557   2.481  13.201  0.5855 -0.7113  1.9034
11645TIP3   OH256425   2.763   2.566  10.475 -0.3299 -0.1503  0.2480
11645TIP3    H156426   2.854   2.573  10.503  0.1057 -0.4863 -1.0494
11645TIP3    H256427   2.761   2.490  10.417 -1.4545 -0.1925  0.3248
11646TIP3   OH256428   1.851   2.033  14.082 -0.4990  0.6061  0.4371
11646TIP3    H156429   1.765   1.992  14.081 -0.6214  0.8519  0.7912
11646TIP3    H256430   1.893   1.999  14.160 -0.6274  1.2008  0.7674
11647TIP3   OH256431   2.189   0.942  15.945  0.0987 -0.2821  0.2768
11647TIP3    H156432   2.250   0.964  16.015 -0.4437  0.3323  0.5650
11647TIP3    H256433   2.105   0.977  15.974 -0.3469 -0.9016 -0.2264
11648TIP3   OH256434   5.988   5.379  12.534  0.2649  0.2643 -0.4704
11648TIP3    H156435   5.941   5.303  12.568 -1.2743  1.7994  0.9164
11648TIP3    H256436   5.927   5.419  12.472  1.0051  0.4659 -1.0714
11649TIP3   OH256437   6.331   0.704   2.383 -0.0635 -0.2336  0.1595
11649TIP3    H156438   6.375   0.780   2.344 -0.2161  0.2305  0.8857
11649TIP3    H256439   6.356   0.706   2.475  0.1824 -1.2506  0.1127
11650TIP3   OH256440   1.248   6.556  15.159  0.3612 -0.1584  0.1706
11650TIP3    H156441   1.328   6.562  15.212  1.0358 -2.3382 -0.5357
11650TIP3    H256442   1.258   6.624  15.092  0.0440  1.8238  2.0955
11651TIP3   OH256443   6.602   1.848   2.099  0.1247 -0.2957  0.8559
11651TIP3    H156444   6.644   1.933   2.086  1.7127 -1.2801 -0.7073
11651TIP3    H256445   6.599   1.836   2.194  1.8187  0.5681  1.0264
11652TIP3   OH256446   3.677   5.344   1.864 -0.5617  0.0066 -0.3729
11652TIP3    H156447   3.760   5.305   1.833  0.3765  1.6029  0.0796
11652TIP3    H256448   3.641   5.279   1.924  1.0192 -0.1483  0.4259
11653TIP3   OH256449   6.534   0.047   1.611  0.0440 -0.2762  0.1919
11653TIP3    H156450   6.517   0.041   1.705 -0.5553 -1.8542 -0.0101
11653TIP3    H256451   6.490  -0.029   1.574 -1.6916  1.5661 -1.6518
11654TIP3   OH256452   6.621   0.863   2.653  0.3554  0.0261 -0.1691
11654TIP3    H156453   6.669   0.926   2.599 -0.6371 -0.1381 -1.2628
11654TIP3    H256454   6.686   0.797   2.676  1.0006  0.5606 -0.4157
11655TIP3   OH256455   4.985   0.169   6.449  0.2387  0.1828  0.0908
11655TIP3    H156456   4.972   0.262   6.435 -0.4282 -0.0448 -0.8568
11655TIP3    H256457   4.898   0.130   6.442  0.6971 -0.6873 -0.9958
11656TIP3   OH256458   6.662   2.409  14.269 -0.0531  0.4835  0.0364
11656TIP3    H156459   6.746   2.436  14.307  0.7313 -0.9057 -0.6677
11656TIP3    H256460   6.685   2.377  14.182 -1.3463  0.2466 -0.2156
11657TIP3   OH256461   3.932   6.625  13.610  0.7624  0.0214  0.2874
11657TIP3    H156462   3.989   6.547  13.616  1.5647  0.6531  1.0699
11657TIP3    H256463   3.978   6.683  13.550  1.5387  1.0186  1.8246
11658TIP3   OH256464   4.581   4.955  13.380  0.6175  0.6840  0.3133
11658TIP3    H156465   4.630   4.917  13.453 -1.2151 -1.4796  0.4956
11658TIP3    H256466   4.570   4.882  13.319 -2.6877  0.9653  0.4775
11659TIP3   OH256467   4.353   2.939   5.753 -0.5179  0.5048 -0.0679
11659TIP3    H156468   4.304   2.922   5.833 -0.2937 -2.1735 -0.4418
11659TIP3    H256469   4.287   2.947   5.685 -0.5702 -2.0678 -0.3911
11660TIP3   OH256470   1.955   2.773  11.309 -0.2160 -0.0546 -0.3241
11660TIP3    H156471   1.933   2.683  11.333 -1.4616  0.4070  0.2870
11660TIP3    H256472   1.924   2.782  11.218  0.5165 -0.4418 -0.6152
11661TIP3   OH256473   3.579   3.676   4.288 -0.5253 -0.0351  0.1026
11661TIP3    H156474   3.593   3.769   4.267  0.2747 -0.2320 -0.2369
11661TIP3    H256475   3.567   3.634   4.203 -0.1012 -0.3704  0.2056
11662TIP3   OH256476   1.891   3.387   0.817  0.3473  0.1624 -0.0280
11662TIP3    H156477   1.883   3.375   0.912 -2.2434  1.4405 -0.0368
11662TIP3    H256478   1.932   3.473   0.807 -0.1611  0.3987 -0.0743
11663TIP3   OH256479   0.145   2.673  15.150  0.7533  0.3537 -0.0214
11663TIP3    H156480   0.142   2.597  15.092 -0.2034 -0.7307  1.3963
11663TIP3    H256481   0.145   2.636  15.238  1.2547  1.9847  0.6944
11664TIP3   OH256482   1.677   3.742   1.411  0.1709  0.1458  0.8524
11664TIP3    H156483   1.704   3.774   1.497 -1.6579 -0.6675  1.7653
11664TIP3    H256484   1.603   3.798   1.387 -0.3227 -0.6308  0.5367
11665TIP3   OH256485   5.339   0.274   2.703  0.8227 -0.3897 -0.2201
11665TIP3    H156486   5.368   0.203   2.646 -0.2353 -1.6428  0.7746
11665TIP3    H256487   5.420   0.316   2.732  1.4671 -1.3793 -0.5646
11666TIP3   OH256488   1.938   1.476  14.388  0.5569 -0.4667 -0.7335
11666TIP3    H156489   1.891   1.536  14.446  1.3289 -0.3433 -0.2171
11666TIP3    H256490   1.871   1.438  14.332 -0.2330 -0.7436  0.3823
11667TIP3   OH256491   1.061   1.191   5.420  0.4725  0.4849 -0.1953
11667TIP3    H156492   1.104   1.111   5.390  1.9254  0.6160  1.4333
11667TIP3    H256493   1.076   1.254   5.349  0.3670 -0.3384 -0.9599
11668TIP3   OH256494   1.438   0.819  12.580  0.4110  0.4990 -0.2789
11668TIP3    H156495   1.366   0.871  12.543 -0.0764 -1.1921 -1.7955
11668TIP3    H256496   1.395   0.744  12.621  1.1622  0.8394  1.1438
11669TIP3   OH256497   6.216   4.680   5.566  0.8114 -0.5430 -0.1728
11669TIP3    H156498   6.269   4.754   5.534  0.5020 -1.0144 -1.8193
11669TIP3    H256499   6.127   4.701   5.538  0.4772 -0.8405  0.6538
11670TIP3   OH256500   6.784   0.373   1.709  0.6334  0.1059  0.0548
11670TIP3    H156501   6.723   0.350   1.778  1.9931  0.5044  1.4229
11670TIP3    H256502   6.731   0.417   1.643 -0.9793 -1.8075  0.0440
11671TIP3   OH256503   4.120   5.516   4.061 -0.3257 -0.0696  0.2302
11671TIP3    H156504   4.140   5.569   3.984 -0.1595  1.0801  1.0592
11671TIP3    H256505   4.080   5.437   4.025  0.9260 -0.1115 -1.1107
11672TIP3   OH256506   2.618   5.145   0.778  0.3469 -0.3320  0.4458
11672TIP3    H156507   2.548   5.170   0.718 -1.2295  0.5331  2.6073
11672TIP3    H256508   2.677   5.091   0.724 -0.0734  1.8380 -2.3372
11673TIP3   OH256509   1.974   4.326   0.866  0.1108  0.4771 -0.2891
11673TIP3    H156510   1.949   4.291   0.952 -1.5488  0.2421 -0.8450
11673TIP3    H256511   1.990   4.419   0.882 -0.2914  0.4601  0.2595
11674TIP3   OH256512   1.258   6.437  12.438  0.3590  0.3623 -0.1496
11674TIP3    H156513   1.350   6.419  12.453  0.4621  0.1107 -1.0136
11674TIP3    H256514   1.212   6.386  12.504  0.8166  0.1105 -0.0239
11675TIP3   OH256515   4.370   6.272   2.022 -0.0612 -0.2682  0.1087
11675TIP3    H156516   4.388   6.365   2.040 -0.8902 -0.3562  1.4220
11675TIP3    H256517   4.400   6.227   2.101  2.2858 -1.3581 -1.3617
11676TIP3   OH256518   0.038   4.314  16.335 -0.1434 -0.6142  0.1724
11676TIP3    H156519   0.043   4.237  16.279  0.2266  0.4627 -1.2951
11676TIP3    H256520   0.129   4.333  16.358 -0.1094  0.2404 -0.6586
11677TIP3   OH256521   6.611   3.927   3.407  0.1578  0.1180  0.0964
11677TIP3    H156522   6.638   3.847   3.453 -1.7667 -0.0100  1.0829
11677TIP3    H256523   6.571   3.895   3.326 -0.0311  0.0968  0.1956
11678TIP3   OH256524   3.377   2.723  14.904  0.2497 -1.2018 -0.2280
11678TIP3    H156525   3.338   2.682  14.981 -1.6972 -1.3506 -1.2555
11678TIP3    H256526   3.418   2.651  14.856 -0.7774 -1.5393 -0.6243
11679TIP3   OH256527   1.413   3.639  12.635 -0.1163 -0.6835 -0.0182
11679TIP3    H156528   1.415   3.545  12.654  1.2480 -1.0096 -1.6589
11679TIP3    H256529   1.481   3.651  12.568 -1.1743  1.2563 -0.7669
11680TIP3   OH256530   5.194   4.279  17.130  0.0803 -0.4078 -0.8177
11680TIP3    H156531   5.249   4.301  17.206  1.4813 -0.4521 -1.8108
11680TIP3    H256532   5.109   4.317  17.151  0.4776 -0.3311  0.7396
11681TIP3   OH256533   1.367   4.712   1.102  0.4062 -0.2102 -0.3461
11681TIP3    H156534   1.312   4.656   1.157  1.0017 -0.3193  0.1483
11681TIP3    H256535   1.443   4.732   1.157 -0.3366  2.0347 -0.0823
11682TIP3   OH256536   4.818   5.808   1.696 -0.0824  0.3735  0.0502
11682TIP3    H156537   4.777   5.807   1.783  1.2359  0.9703  0.6831
11682TIP3    H256538   4.744   5.810   1.635 -1.0248 -0.6299  1.1444
11683TIP3   OH256539   2.591   0.860   4.821 -0.2159 -0.8142  0.8994
11683TIP3    H156540   2.531   0.799   4.778  1.7226 -1.5991 -0.7641
11683TIP3    H256541   2.577   0.943   4.775 -0.3739 -0.8747  0.8376
11684TIP3   OH256542   0.753   5.043   3.620  0.3090  0.2805  0.8960
11684TIP3    H156543   0.673   5.045   3.674 -0.5387  1.1161 -0.3474
11684TIP3    H256544   0.774   4.950   3.612 -1.3142 -0.0470  0.1550
11685TIP3   OH256545   4.343   0.125   1.241  0.3572  0.5265 -0.4020
11685TIP3    H156546   4.384   0.044   1.273  1.0247  0.9951 -0.0624
11685TIP3    H256547   4.254   0.122   1.278  0.2407 -0.2462 -0.7277
11686TIP3   OH256548   6.770   4.071  11.146 -0.0497 -0.0181  0.5104
11686TIP3    H156549   6.827   4.148  11.154  0.9830 -0.5231 -1.5841
11686TIP3    H256550   6.726   4.083  11.062 -1.2088 -0.8513  0.9938
11687TIP3   OH256551   5.918   3.819  10.658 -0.0717 -0.0038  0.2704
11687TIP3    H156552   5.930   3.877  10.583  0.8207  1.2811  1.3596
11687TIP3    H256553   5.903   3.733  10.621 -1.0151  0.8672 -1.3961
11688TIP3   OH256554   5.582   5.577  14.534  0.3484  0.3570  0.0029
11688TIP3    H156555   5.668   5.563  14.495  0.6410  1.0230  0.4038
11688TIP3    H256556   5.592   5.549  14.625 -0.0959 -0.3760 -0.1648
11689TIP3   OH256557   4.907   2.245   2.524  0.7566 -0.2324  0.4672
11689TIP3    H156558   4.814   2.250   2.502  1.0242 -0.4246 -0.7494
11689TIP3    H256559   4.947   2.313   2.470  1.4718 -0.9453  0.0862
11690TIP3   OH256560   5.250   6.473  14.930 -0.4442  0.6645  0.1409
11690TIP3    H156561   5.287   6.559  14.908  1.6044 -0.0218  0.7904
11690TIP3    H256562   5.158   6.491  14.947  0.0129  2.8066  0.5933
11691TIP3   OH256563   1.558   1.009   1.661 -0.4770 -0.2226 -0.0517
11691TIP3    H156564   1.545   0.946   1.590  0.8917 -0.4633 -0.0915
11691TIP3    H256565   1.483   0.996   1.719 -0.2015 -1.8830 -0.0572
11692TIP3   OH256566   6.474   1.422   5.522  0.0700  0.3266 -0.8962
11692TIP3    H156567   6.566   1.403   5.503  0.3049  0.9484 -0.3888
11692TIP3    H256568   6.426   1.347   5.486  0.8901 -0.6599  0.0441
11693TIP3   OH256569   3.485   1.534  14.483  0.4880  0.4735 -0.1935
11693TIP3    H156570   3.521   1.506  14.567  0.3486 -0.5869 -0.4759
11693TIP3    H256571   3.434   1.458  14.452  0.9782  0.6409 -1.4786
11694TIP3   OH256572   6.784   3.919   0.991  0.2424  0.3372  0.0462
11694TIP3    H156573   6.866   3.887   1.029 -0.5407 -2.7395 -0.6550
11694TIP3    H256574   6.752   3.984   1.053  2.3748  0.3514  1.1806
11695TIP3   OH256575   4.078   1.351   4.041 -0.0842  0.2775 -0.1449
11695TIP3    H156576   4.090   1.411   4.115 -0.7849  0.9020 -0.5346
11695TIP3    H256577   4.165   1.313   4.027  0.3374  1.1179  0.1776
11696TIP3   OH256578   5.513   0.390  17.124 -0.1522  0.2183  0.1240
11696TIP3    H156579   5.576   0.328  17.161  0.6017  1.7671  1.4934
11696TIP3    H256580   5.453   0.408  17.196 -1.4349 -0.2636 -0.7959
11697TIP3   OH256581   2.403   0.616  15.919  0.8227 -0.4356 -0.2428
11697TIP3    H156582   2.342   0.632  15.846  2.3085 -0.9916 -1.6321
11697TIP3    H256583   2.445   0.701  15.934 -0.6080  0.0757  1.0501
11698TIP3   OH256584   1.880   5.155  15.937 -0.3530 -0.4560  0.3287
11698TIP3    H156585   1.818   5.228  15.947 -1.0432 -1.2340  1.8530
11698TIP3    H256586   1.840   5.101  15.869  0.5623  0.9755 -1.3843
11699TIP3   OH256587   1.707   3.493  14.677  0.2230  0.1596  0.3648
11699TIP3    H156588   1.702   3.576  14.628  0.1739  0.1710  0.3887
11699TIP3    H256589   1.659   3.510  14.758 -0.3071 -0.0771  0.1054
11700TIP3   OH256590   5.629   3.659   5.307 -0.0712 -0.2722  0.1178
11700TIP3    H156591   5.594   3.604   5.377  2.5508 -1.7523  0.3607
11700TIP3    H256592   5.630   3.602   5.230  1.9785 -0.3694  0.1868
11701TIP3   OH256593   4.842   3.706  11.723 -0.5492 -0.3450 -0.1935
11701TIP3    H156594   4.903   3.766  11.767 -1.1141 -0.6287  1.0070
11701TIP3    H256595   4.830   3.743  11.636  1.9865 -0.7351 -0.7492
11702TIP3   OH256596   6.581   0.754   5.819 -0.1293 -0.0909 -0.1557
11702TIP3    H156597   6.588   0.659   5.810  1.6629 -0.1086  1.1666
11702TIP3    H256598   6.540   0.783   5.737 -0.6968 -1.9834 -0.5697
11703TIP3   OH256599   0.326   4.348   2.537  0.0808 -0.2745  0.3025
11703TIP3    H156600   0.301   4.258   2.519  1.1238 -0.6093  0.5016
11703TIP3    H256601   0.319   4.393   2.453 -0.6857 -0.4726  0.2556
11704TIP3   OH256602   4.286   3.356  13.335 -0.3313  0.5778  0.4975
11704TIP3    H156603   4.375   3.321  13.342 -0.1457  0.9414 -0.0381
11704TIP3    H256604   4.242   3.325  13.415 -0.3406 -1.3742 -0.2321
11705TIP3   OH256605   4.576   1.304   5.174 -0.5934 -0.3332  0.0729
11705TIP3    H156606   4.665   1.270   5.177 -0.8199 -0.9464 -0.1157
11705TIP3    H256607   4.528   1.242   5.120 -1.0618  0.1703 -0.0964
11706TIP3   OH256608   2.868   2.329   0.576  0.1293 -0.0150 -0.1448
11706TIP3    H156609   2.806   2.322   0.649  1.4239 -0.7405  0.9049
11706TIP3    H256610   2.906   2.241   0.569  0.8614  0.3605 -0.9321
11707TIP3   OH256611   3.882   0.323  16.156 -0.2544  0.5346 -0.0622
11707TIP3    H156612   3.839   0.277  16.084 -0.0203 -2.3260  1.5700
11707TIP3    H256613   3.945   0.380  16.113  0.1677 -1.4341 -2.1372
11708TIP3   OH256614   5.817   4.066   3.794 -0.4111 -0.1671 -0.1061
11708TIP3    H156615   5.727   4.095   3.810  0.2300  0.8587  1.7759
11708TIP3    H256616   5.850   4.126   3.727 -0.5728  0.5899  0.4800
11709TIP3   OH256617   0.953   5.678  16.228 -0.0608 -0.4938  0.2338
11709TIP3    H156618   1.022   5.696  16.292 -0.0322 -1.0801  0.3690
11709TIP3    H256619   0.996   5.626  16.160 -0.1843 -0.2012 -0.0716
11710TIP3   OH256620   5.451   5.759  11.085  0.1140  0.0789 -0.0808
11710TIP3    H156621   5.377   5.747  11.145 -0.2302  0.1785 -0.4895
11710TIP3    H256622   5.528   5.762  11.143  0.1602 -3.2455  0.1062
11711TIP3   OH256623   6.509   3.342   0.067 -0.5852  0.1953  0.0409
11711TIP3    H156624   6.489   3.300  -0.016 -2.2810 -0.6261  0.8326
11711TIP3    H256625   6.425   3.380   0.096  0.2246  1.4113  0.8416
11712TIP3   OH256626   2.861   0.058   5.631 -0.4448 -0.0075  0.0111
11712TIP3    H156627   2.782   0.072   5.683 -0.5444 -1.5435  0.3183
11712TIP3    H256628   2.927   0.030   5.696 -0.5051 -1.7152 -0.6445
11713TIP3   OH256629   6.509   4.639   0.217 -0.4488 -0.5670  0.4147
11713TIP3    H156630   6.564   4.562   0.203 -1.4317 -1.0991 -0.6212
11713TIP3    H256631   6.564   4.713   0.191 -0.6637 -1.1936 -1.9833
11714TIP3   OH256632   0.402   5.050  15.513 -0.7205  0.0362 -0.4572
11714TIP3    H156633   0.381   4.974  15.567 -1.0243  1.9375  2.2196
11714TIP3    H256634   0.336   5.050  15.444 -1.4537 -1.4180  0.2255
11715TIP3   OH256635   1.431   2.524   2.592 -0.4634  0.4852  0.1466
11715TIP3    H156636   1.377   2.603   2.595  1.0635  1.5303  1.8327
11715TIP3    H256637   1.521   2.557   2.588  0.1761 -1.1563  0.5700
11716TIP3   OH256638   0.582   1.032  14.255 -0.3298  0.0355  0.0603
11716TIP3    H156639   0.584   1.085  14.335  0.2368 -0.4669  0.3878
11716TIP3    H256640   0.665   0.984  14.256 -0.1994  0.2224 -0.9677
11717TIP3   OH256641   6.340   0.541  12.359 -0.3030  0.2463  0.4889
11717TIP3    H156642   6.286   0.465  12.378  3.6712 -2.4163  1.7624
11717TIP3    H256643   6.398   0.513  12.288 -1.0322  3.2486 -1.3756
11718TIP3   OH256644   5.280   3.175  16.405  0.2481 -0.2715  0.4038
11718TIP3    H156645   5.359   3.128  16.379  0.6246  0.6100 -0.0935
11718TIP3    H256646   5.266   3.151  16.497  0.1566 -1.7090  0.0136
11719TIP3   OH256647   4.298   4.541  12.361  0.0140  0.0353 -0.1303
11719TIP3    H156648   4.258   4.603  12.422 -0.7868 -1.3527  0.8044
11719TIP3    H256649   4.387   4.574  12.347 -0.5104  1.5740  0.0554
11720TIP3   OH256650   0.367   4.146  14.747 -0.6158  0.3755  0.0616
11720TIP3    H156651   0.448   4.181  14.785  0.4945 -1.5698 -0.4317
11720TIP3    H256652   0.340   4.078  14.809 -1.8651  1.0020  0.2077
11721TIP3   OH256653   2.390   1.325  11.426 -0.1098 -0.0330  0.2307
11721TIP3    H156654   2.337   1.265  11.374  0.4875 -0.0898 -0.3194
11721TIP3    H256655   2.378   1.296  11.516 -0.6412 -0.3323  0.0683
11722TIP3   OH256656   1.039   5.526   0.501  0.3663 -0.0872  0.5208
11722TIP3    H156657   0.966   5.584   0.521  0.3610  0.8249 -1.9655
11722TIP3    H256658   1.020   5.446   0.551 -1.4622  0.7309  1.2039
11723TIP3   OH256659   2.089   1.828  15.261 -0.0457  0.0743  0.2575
11723TIP3    H156660   2.160   1.767  15.282  1.8632  2.6254  1.4475
11723TIP3    H256661   2.015   1.772  15.238  2.3404 -2.6692 -1.0057
11724TIP3   OH256662   0.965   4.853  13.346  0.0774 -0.2093 -0.0855
11724TIP3    H156663   1.055   4.872  13.318 -0.7349  0.8453 -2.0783
11724TIP3    H256664   0.911   4.885  13.274 -2.1090  2.0765  2.5037
11725TIP3   OH256665   5.071   1.593  11.274  0.5592 -0.6454 -0.3656
11725TIP3    H156666   5.118   1.658  11.222  1.1590 -0.3909  0.4820
11725TIP3    H256667   4.993   1.639  11.305 -0.5362 -1.2197 -2.1932
11726TIP3   OH256668   4.810   5.278   3.545 -0.3817 -0.0136 -0.3399
11726TIP3    H156669   4.795   5.184   3.556  0.2854  0.0236  0.9831
11726TIP3    H256670   4.850   5.306   3.628 -0.2530  1.3667 -0.8542
11727TIP3   OH256671   1.950   6.415  12.107 -0.1419 -0.1954 -0.0427
11727TIP3    H156672   1.952   6.358  12.185  1.6567  0.6501  0.5557
11727TIP3    H256673   2.042   6.425  12.083 -0.6948 -0.9281 -2.6708
11728TIP3   OH256674   6.793   2.088  14.740  0.0025 -0.2809  0.2735
11728TIP3    H156675   6.788   2.115  14.648 -1.2245  1.5092  0.8537
11728TIP3    H256676   6.877   2.122  14.770 -0.2076  0.3122  0.1891
11729TIP3   OH256677   3.383   2.815   6.132  0.3697  0.1292 -0.3055
11729TIP3    H156678   3.396   2.774   6.217  1.8628 -1.4279 -1.2632
11729TIP3    H256679   3.447   2.887   6.130 -2.1055  2.4686  1.2863
11730TIP3   OH256680   6.118   4.996  10.961  0.1421  0.0186 -0.4481
11730TIP3    H156681   6.195   5.017  11.014 -0.7035 -1.8701  1.5683
11730TIP3    H256682   6.044   5.002  11.021 -1.0776 -0.2505 -1.8766
11731TIP3   OH256683   2.402   6.567  16.713 -0.2483  0.3860 -0.0450
11731TIP3    H156684   2.352   6.589  16.792 -0.9285  3.0981 -1.1797
11731TIP3    H256685   2.354   6.493  16.674 -1.4208  0.7520  0.6856
11732TIP3   OH256686   5.442   1.766   0.119  0.0163 -0.6011 -0.0958
11732TIP3    H156687   5.383   1.820   0.172  0.9774  1.0928 -0.6917
11732TIP3    H256688   5.394   1.748   0.039  0.8302  2.0834 -1.2408
11733TIP3   OH256689   5.510   1.447  13.877 -0.2590  0.0911 -0.1756
11733TIP3    H156690   5.556   1.439  13.794  0.1026  2.2532 -0.2070
11733TIP3    H256691   5.438   1.384  13.871  1.6153 -2.0240 -0.8378
11734TIP3   OH256692   1.667   2.823  14.624  0.3197 -0.1642 -0.1850
11734TIP3    H156693   1.756   2.856  14.609  0.6059 -0.8867 -0.0512
11734TIP3    H256694   1.627   2.825  14.537  0.3477  0.4964 -0.1883
11735TIP3   OH256695   4.230   0.568   2.941  0.3676  0.0773 -0.2970
11735TIP3    H156696   4.324   0.585   2.952  0.6046  1.0869 -3.4839
11735TIP3    H256697   4.188   0.643   2.984  0.8893 -1.2651  2.7274
11736TIP3   OH256698   0.965   0.083  14.367 -0.8044  0.1507 -0.2546
11736TIP3    H156699   1.050   0.097  14.326 -0.1142  1.8803  1.7290
11736TIP3    H256700   0.945  -0.009  14.349  1.8917 -0.5230  0.0357
11737TIP3   OH256701   4.775   4.129  16.249  0.2776  0.6536  0.2220
11737TIP3    H156702   4.776   4.195  16.180  1.7365 -0.8182 -1.1952
11737TIP3    H256703   4.850   4.150  16.304  1.7637 -0.8092 -1.2095
11738TIP3   OH256704   2.596   0.733   5.068 -0.2945 -0.2046  0.1983
11738TIP3    H156705   2.577   0.804   5.006 -0.1142  0.8707  1.3614
11738TIP3    H256706   2.684   0.703   5.043 -0.7136 -0.6150 -0.8401
11739TIP3   OH256707   5.670   5.817  11.299 -0.0408  0.3911  0.6132
11739TIP3    H156708   5.682   5.911  11.289 -1.3824  0.4850 -0.2707
11739TIP3    H256709   5.674   5.801  11.393 -2.7993  1.7662  1.0031
11740TIP3   OH256710   3.764   2.063   1.808 -0.3695 -0.0847 -0.2067
11740TIP3    H156711   3.734   2.111   1.885  0.3741  0.8052 -0.4541
11740TIP3    H256712   3.715   2.100   1.735 -0.6721 -0.5476 -0.2437
11741TIP3   OH256713   1.070   2.120  17.256  0.4748  0.0425  0.0945
11741TIP3    H156714   1.023   2.106  17.338  0.4286  2.0660  0.4399
11741TIP3    H256715   1.150   2.068  17.264 -0.1670 -0.8417  0.8445
11742TIP3   OH256716   2.275   1.326  17.268  0.4242 -0.2407  0.2801
11742TIP3    H156717   2.336   1.287  17.206  0.7843 -1.3831  1.3321
11742TIP3    H256718   2.270   1.263  17.339 -1.9977 -0.1761  0.2084
11743TIP3   OH256719   0.162   5.725   3.382  0.0761 -0.0122 -0.4238
11743TIP3    H156720   0.178   5.634   3.409  0.6058 -0.1992 -1.3192
11743TIP3    H256721   0.119   5.765   3.457  0.2874 -0.8740  0.1727
11744TIP3   OH256722   4.656   4.117   3.492 -0.0414  0.1038  0.0471
11744TIP3    H156723   4.653   4.079   3.404  2.2213  1.4160 -0.6539
11744TIP3    H256724   4.564   4.127   3.517 -0.7446  0.5030 -2.5255
11745TIP3   OH256725   4.893   4.197  12.087  0.0545  0.2376  0.1691
11745TIP3    H156726   4.834   4.190  12.162  0.8409 -1.2185  0.6653
11745TIP3    H256727   4.869   4.124  12.030  0.3716  0.5349 -0.3474
11746TIP3   OH256728   6.693   5.044   1.777  0.8300  0.3450  0.0366
11746TIP3    H156729   6.776   5.086   1.751 -0.1864  1.2581 -1.8923
11746TIP3    H256730   6.643   5.114   1.818 -1.3603  1.5277 -4.2821
11747TIP3   OH256731   6.741   6.097   1.357 -0.1838 -0.3167 -0.1461
11747TIP3    H156732   6.654   6.057   1.364 -0.3004 -0.0481 -0.0736
11747TIP3    H256733   6.793   6.052   1.423 -0.4782  0.0891  0.3623
11748TIP3   OH256734   3.692   5.383   2.243 -0.7868 -0.5104  1.0741
11748TIP3    H156735   3.785   5.360   2.232 -1.0492 -0.3730 -2.0345
11748TIP3    H256736   3.691   5.479   2.241 -1.3431 -0.5055 -3.3373
11749TIP3   OH256737   4.130   4.695   0.686  0.2295  0.4378  0.2040
11749TIP3    H156738   4.169   4.771   0.644 -0.8212  0.1712 -1.3164
11749TIP3    H256739   4.050   4.728   0.727 -0.0935  0.2059 -0.2367
11750TIP3   OH256740   5.638   3.843  16.289 -0.0237  0.6317 -0.3704
11750TIP3    H156741   5.554   3.850  16.243 -0.4570  0.3247  0.3556
11750TIP3    H256742   5.616   3.800  16.372  1.0251 -0.4071 -0.6214
11751TIP3   OH256743   3.296   3.423  11.677 -0.6507  0.2587 -0.2904
11751TIP3    H156744   3.262   3.334  11.665 -0.6568 -0.1699  2.6226
11751TIP3    H256745   3.341   3.420  11.761  1.2842  2.4487 -1.2213
11752TIP3   OH256746   5.817   1.375  14.404  0.5681  0.8986  0.0080
11752TIP3    H156747   5.856   1.452  14.362  0.7700  0.8193  0.0489
11752TIP3    H256748   5.736   1.360  14.355  1.7217 -0.3272 -1.6002
11753TIP3   OH256749   0.562   4.256  12.808 -0.1768 -0.3384  0.1868
11753TIP3    H156750   0.553   4.317  12.735  0.4542 -0.8294 -0.3004
11753TIP3    H256751   0.537   4.171  12.772  0.8635 -0.7153  0.3402
11754TIP3   OH256752   2.207   1.598  14.299 -0.1163  0.0238 -0.1669
11754TIP3    H156753   2.129   1.572  14.348  1.6073 -0.0221  2.6498
11754TIP3    H256754   2.220   1.528  14.236 -0.4790 -1.6523  1.5575
11755TIP3   OH256755   3.726   4.535  12.246  0.0743  0.3834 -0.1505
11755TIP3    H156756   3.650   4.479  12.228 -0.2746  0.6463  0.4726
11755TIP3    H256757   3.789   4.476  12.288 -0.3230  0.4622  0.5755
11756TIP3   OH256758   3.419   5.590  16.834 -0.5879 -0.4632 -0.7823
11756TIP3    H156759   3.492   5.527  16.830 -2.1896 -2.3614 -0.8081
11756TIP3    H256760   3.400   5.610  16.742  1.1740  1.6164 -0.7450
11757TIP3   OH256761   2.973   3.148   2.257 -0.1290 -0.3349 -0.0918
11757TIP3    H156762   3.000   3.188   2.174  2.0297 -1.5782 -0.0277
11757TIP3    H256763   2.885   3.116   2.240 -0.6042  1.4293 -1.1878
11758TIP3   OH256764   6.770   5.266  12.170  0.4472 -0.1867 -0.2485
11758TIP3    H156765   6.852   5.225  12.139  0.4597  0.8606 -1.6373
11758TIP3    H256766   6.723   5.194  12.213  1.4256 -1.1604 -0.7610
11759TIP3   OH256767   6.461   0.019  15.773  0.4634  0.2862 -0.0021
11759TIP3    H156768   6.549  -0.014  15.752  0.1830 -1.1121  0.9116
11759TIP3    H256769   6.451   0.097  15.719  2.6300  0.9913  0.5377
11760TIP3   OH256770   3.082   2.627   0.503  0.2262  0.1594  0.0068
11760TIP3    H156771   3.087   2.545   0.453  2.2224  0.3541 -0.1278
11760TIP3    H256772   3.048   2.691   0.441  0.8338 -0.0509 -0.5462
11761TIP3   OH256773   2.106   1.501  14.952 -0.2870 -0.1753 -0.3213
11761TIP3    H156774   2.191   1.486  14.993  0.2321 -1.1949 -1.7580
11761TIP3    H256775   2.088   1.594  14.970  0.9226 -0.0523  0.3399
11762TIP3   OH256776   3.741   1.270   5.307  0.0236 -0.1880 -0.2083
11762TIP3    H156777   3.834   1.250   5.318  0.9166  3.2489 -0.7790
11762TIP3    H256778   3.719   1.323   5.384 -1.4436 -0.8795 -0.1390
11763TIP3   OH256779   2.054   5.947   3.214  0.1367  0.7233 -0.0413
11763TIP3    H156780   2.062   5.909   3.302  0.1713  0.4308 -0.1701
11763TIP3    H256781   2.064   5.873   3.155 -0.1480  0.8827 -0.2894
11764TIP3   OH256782   4.103   5.719  14.615 -0.3002 -0.1680  0.0072
11764TIP3    H156783   4.189   5.676  14.614  0.1969  0.8187  0.3349
11764TIP3    H256784   4.111   5.790  14.552 -0.7355  0.2199  0.3932
11765TIP3   OH256785   4.732   4.418   3.130  0.1011  0.2612  0.2537
11765TIP3    H156786   4.770   4.457   3.051  0.5102 -1.2191 -0.2794
11765TIP3    H256787   4.643   4.394   3.103  0.0354  0.3178  0.4237
11766TIP3   OH256788   4.834   1.506  13.818 -0.5280  0.3130 -0.4318
11766TIP3    H156789   4.924   1.521  13.846  0.1689 -1.4936 -1.6304
11766TIP3    H256790   4.806   1.590  13.781  0.1064  1.3457  1.3880
11767TIP3   OH256791   0.217   1.038   3.652  0.2066  0.0910  1.1262
11767TIP3    H156792   0.233   0.951   3.615  1.7386  0.6345  0.4632
11767TIP3    H256793   0.129   1.033   3.688  0.2507 -1.7152  1.0193
11768TIP3   OH256794   1.151   2.222  13.577  0.2317 -0.0486 -0.2674
11768TIP3    H156795   1.059   2.219  13.552 -0.0891  1.4978  0.6537
11768TIP3    H256796   1.183   2.305  13.541  0.8523  0.1625  0.7477
11769TIP3   OH256797   0.652   4.277   5.657  0.1740  0.6055  0.7835
11769TIP3    H156798   0.591   4.247   5.590 -1.8372  1.2190  2.2886
11769TIP3    H256799   0.684   4.196   5.698 -1.5586  0.3129  1.6259
11770TIP3   OH256800   0.730   5.393   2.636 -0.4885  0.1080 -0.4729
11770TIP3    H156801   0.758   5.483   2.621  0.2178  0.1165  0.8039
11770TIP3    H256802   0.770   5.369   2.720 -0.6086 -1.4120 -0.8288
11771TIP3   OH256803   0.375   6.291   2.630 -0.4754 -0.5128  0.1230
11771TIP3    H156804   0.394   6.208   2.673  1.5858 -0.2767 -0.2390
11771TIP3    H256805   0.365   6.269   2.538 -0.9721 -0.5070  0.1772
11772TIP3   OH256806   2.390   0.106  17.196  0.2438 -0.0819 -0.2691
11772TIP3    H156807   2.472   0.079  17.153 -0.4188 -1.1034 -0.9118
11772TIP3    H256808   2.322   0.083  17.133 -0.5413  0.7636  0.2731
11773TIP3   OH256809   3.414   3.650   3.506 -0.2263  0.0592  0.3105
11773TIP3    H156810   3.413   3.558   3.532  0.6476 -0.6433 -2.0178
11773TIP3    H256811   3.465   3.694   3.575  0.1795 -1.3547  0.9293
11774TIP3   OH256812   6.212   3.059  12.965 -0.4314 -0.4245  0.6260
11774TIP3    H156813   6.238   3.009  13.042  0.6216 -0.2201  0.4173
11774TIP3    H256814   6.172   2.995  12.907  1.0677 -1.0712  0.2818
11775TIP3   OH256815   1.816   2.524   1.089 -0.7778  0.2804 -0.1078
11775TIP3    H156816   1.851   2.469   1.019  1.9079  0.8792  0.7247
11775TIP3    H256817   1.767   2.463   1.145 -0.4351 -0.7071 -0.8732
11776TIP3   OH256818   1.572   5.940  16.668 -0.2988 -1.1444 -0.4274
11776TIP3    H156819   1.534   5.880  16.604  1.9377 -0.3150 -2.6163
11776TIP3    H256820   1.664   5.913  16.673  0.0102  0.1077  0.9360
11777TIP3   OH256821   5.396   1.758  11.312 -0.0570  0.1914  0.1698
11777TIP3    H156822   5.449   1.836  11.295 -0.2623  0.5630  1.2441
11777TIP3    H256823   5.326   1.763  11.247  0.7901  0.0887 -0.7645
11778TIP3   OH256824   2.272   0.467   0.941 -0.2928 -0.2676  0.2299
11778TIP3    H156825   2.188   0.431   0.912 -0.2990  0.2551 -0.4128
11778TIP3    H256826   2.320   0.486   0.860  0.4946 -0.6735  0.5911
11779TIP3   OH256827   5.807   6.414  16.185  0.1710 -0.4540 -0.6211
11779TIP3    H156828   5.858   6.356  16.129  1.0867 -0.9213  0.6929
11779TIP3    H256829   5.761   6.356  16.245  1.9116  0.1765  1.3894
11780TIP3   OH256830   2.864   0.208  17.085  0.2057  0.0411 -0.8581
11780TIP3    H156831   2.956   0.194  17.064  1.1313  2.6109  1.1491
11780TIP3    H256832   2.861   0.206  17.181 -1.8020  0.1001 -0.8915
11781TIP3   OH256833   1.582   2.527  11.348 -0.5597 -0.2573  0.4697
11781TIP3    H156834   1.504   2.557  11.301  0.0987  1.4577  0.4446
11781TIP3    H256835   1.559   2.536  11.440 -0.9052 -1.1463  0.4795
11782TIP3   OH256836   1.018   6.674   3.148  0.3778 -0.0820  0.4683
11782TIP3    H156837   1.015   6.765   3.179  0.9986 -0.2958  1.1937
11782TIP3    H256838   1.111   6.658   3.133  0.1464 -0.2204 -0.8341
11783TIP3   OH256839   4.877   6.049   0.481 -0.5077 -0.1931  0.0727
11783TIP3    H156840   4.819   6.076   0.410  1.1495  2.8244 -0.2331
11783TIP3    H256841   4.950   6.005   0.436  0.1223  0.9641 -0.0725
11784TIP3   OH256842   6.712   4.154   2.402 -0.1161 -0.1228 -0.1639
11784TIP3    H156843   6.639   4.092   2.395  0.8521 -1.0887 -2.2830
11784TIP3    H256844   6.777   4.109   2.456 -1.2026  0.8945  2.0508
11785TIP3   OH256845   2.962   4.852   1.971  0.1525 -0.4824 -0.1540
11785TIP3    H156846   2.951   4.926   2.030 -0.3025 -0.7318  0.0843
11785TIP3    H256847   3.040   4.807   2.003  1.2049  0.6470 -1.1280
11786TIP3   OH256848   5.902   3.468   1.537  0.6783  0.1883 -0.2668
11786TIP3    H156849   5.972   3.502   1.592 -0.1468  1.2483  0.1325
11786TIP3    H256850   5.829   3.453   1.597  0.3356 -0.2877 -0.7901
11787TIP3   OH256851   1.727   1.005   5.901 -0.1127 -0.2688  0.3567
11787TIP3    H156852   1.729   0.978   5.809 -2.2258  1.5060 -0.2407
11787TIP3    H256853   1.791   1.076   5.907  0.4244 -0.7523  0.3917
11788TIP3   OH256854   0.332   6.446  12.718 -0.3214  0.9030  0.2722
11788TIP3    H156855   0.414   6.491  12.738 -1.8671  4.4660 -0.8052
11788TIP3    H256856   0.300   6.489  12.639 -1.2337 -3.2464 -1.7519
11789TIP3   OH256857   3.660   5.168  12.885 -0.4707 -0.3422  0.1019
11789TIP3    H156858   3.642   5.102  12.818  0.2410  1.5202 -1.9873
11789TIP3    H256859   3.577   5.214  12.896 -1.0091 -1.6684  1.6728
11790TIP3   OH256860   0.997   0.123   5.312 -0.2445  0.1350  0.0215
11790TIP3    H156861   1.064   0.068   5.272  1.3736  1.2924  1.0652
11790TIP3    H256862   1.023   0.130   5.404 -1.6947  0.7698  0.4040
11791TIP3   OH256863   2.640   6.421   1.002 -0.3020  0.1108  0.0749
11791TIP3    H156864   2.704   6.482   1.039 -1.0112  0.9952 -0.1383
11791TIP3    H256865   2.692   6.345   0.976  0.6181  0.6836  0.2138
11792TIP3   OH256866   2.221   1.885   1.394  0.2996  0.3286 -0.5282
11792TIP3    H156867   2.269   1.803   1.403 -1.1417 -0.4632  0.1962
11792TIP3    H256868   2.241   1.916   1.306  1.2984 -0.5123 -0.5957
11793TIP3   OH256869   2.860   1.754  11.194  0.0114 -0.5421 -0.7319
11793TIP3    H156870   2.895   1.820  11.254  0.7404  0.4979 -2.2631
11793TIP3    H256871   2.765   1.764  11.201  0.1124  0.5997 -0.8622
11794TIP3   OH256872   0.671   2.851   5.557 -0.2659  0.2288  0.0384
11794TIP3    H156873   0.592   2.896   5.584 -0.7846 -0.4142 -0.4000
11794TIP3    H256874   0.708   2.905   5.487 -0.5219  0.3244 -0.0205
11795TIP3   OH256875   3.994   6.036   2.127  0.6009 -0.1045  0.5008
11795TIP3    H156876   3.914   6.087   2.115 -0.3209 -1.6728 -0.0749
11795TIP3    H256877   4.026   6.063   2.214 -0.3476  0.7918  0.5862
11796TIP3   OH256878   2.931   6.733   3.048 -0.5656  0.2840 -0.3998
11796TIP3    H156879   2.928   6.677   2.970  0.9697  0.5975 -0.7018
11796TIP3    H256880   3.003   6.795   3.030  0.7611 -0.5404  1.8551
11797TIP3   OH256881   5.060   5.317   6.109  0.1131 -0.3591 -0.3549
11797TIP3    H156882   5.087   5.264   6.185  2.9292  0.0753 -0.9862
11797TIP3    H256883   5.136   5.315   6.051 -0.6303  2.4036 -1.4792
11798TIP3   OH256884   0.340   6.314   0.952  0.0323 -0.1311 -0.6165
11798TIP3    H156885   0.314   6.363   1.030 -1.3642 -0.4214 -0.8996
11798TIP3    H256886   0.332   6.222   0.978 -0.2152 -0.2279 -1.0405
11799TIP3   OH256887   2.293   6.092  12.836 -0.4281 -0.2882  0.0330
11799TIP3    H156888   2.344   6.043  12.901  0.4226 -0.2611 -0.6022
11799TIP3    H256889   2.346   6.088  12.756 -0.8526  0.7620 -0.3124
11800TIP3   OH256890   5.222   5.445  12.809  0.1150  0.4515 -0.1258
11800TIP3    H156891   5.284   5.379  12.778 -0.1028  1.5135 -2.9742
11800TIP3    H256892   5.231   5.443  12.905  1.4548 -2.3528 -0.2446
11801TIP3   OH256893   4.880   3.843   1.111 -0.1642  0.4887  0.1291
11801TIP3    H156894   4.825   3.901   1.059 -0.1047 -1.0818 -1.7509
11801TIP3    H256895   4.969   3.875   1.096 -0.2363  0.6763  0.1002
11802TIP3   OH256896   3.999   5.597   0.439 -0.1082 -0.4045  0.3891
11802TIP3    H156897   4.010   5.651   0.517  1.2714  1.2124 -0.8804
11802TIP3    H256898   4.014   5.657   0.366  0.3399 -2.2575 -1.0866
11803TIP3   OH256899   0.202   4.856   0.048  0.5831  0.5264 -0.1500
11803TIP3    H156900   0.155   4.940   0.052  2.1818  1.3980  1.1867
11803TIP3    H256901   0.239   4.853  -0.040  0.6171  1.3031 -0.1704
11804TIP3   OH256902   3.481   2.400  11.435 -0.0730 -0.4128  0.0837
11804TIP3    H156903   3.514   2.423  11.349 -2.9986 -2.2247 -1.6180
11804TIP3    H256904   3.533   2.325  11.462  1.0713  0.3650  0.0539
11805TIP3   OH256905   2.896   6.716   4.371  0.9838 -0.6400  0.4935
11805TIP3    H156906   2.906   6.661   4.449  0.9564 -1.9792 -0.4226
11805TIP3    H256907   2.868   6.801   4.405  0.8719 -1.2308  1.9314
11806TIP3   OH256908   3.249   4.333   1.727 -0.2461  0.4238 -0.2350
11806TIP3    H156909   3.205   4.369   1.804 -1.1747  0.9671 -1.0116
11806TIP3    H256910   3.201   4.253   1.707  1.1815 -0.7324  0.8775
11807TIP3   OH256911   3.592   6.153   5.336  0.0933  0.5303  0.4954
11807TIP3    H156912   3.527   6.195   5.279 -0.0666  0.6470  0.7657
11807TIP3    H256913   3.624   6.078   5.285 -1.2191 -0.3181  0.8932
11808TIP3   OH256914   5.553   3.004   0.127 -0.2944  0.0724  0.2546
11808TIP3    H156915   5.523   3.049   0.206  0.4952  1.2216 -0.0906
11808TIP3    H256916   5.635   2.962   0.154  0.0842  0.6384  0.0027
11809TIP3   OH256917   2.359   5.255   2.275  0.4776 -0.4387 -0.2436
11809TIP3    H156918   2.449   5.222   2.275  1.0322  0.9767 -2.0106
11809TIP3    H256919   2.365   5.339   2.320  0.0260 -0.3914 -0.2778
11810TIP3   OH256920   0.088   4.942   4.999 -0.6458 -0.2787  0.4527
11810TIP3    H156921   0.056   5.027   5.030 -0.3322 -0.0715  0.2162
11810TIP3    H256922   0.009   4.889   4.989 -0.9045  0.1632  0.0736
11811TIP3   OH256923   6.427   4.867  11.262  0.3382 -0.1976 -0.0072
11811TIP3    H156924   6.474   4.920  11.327 -1.5061  0.7630  0.6086
11811TIP3    H256925   6.418   4.781  11.304 -1.8938  0.7500  1.6178
11812TIP3   OH256926   1.819   1.512  16.556  0.2249 -0.2854 -0.2208
11812TIP3    H156927   1.879   1.584  16.537  1.3704 -1.0477  0.4413
11812TIP3    H256928   1.781   1.489  16.471 -0.3944  1.2945 -0.3913
11813TIP3   OH256929   1.883   1.849   1.434  0.0619  0.2222 -0.2967
11813TIP3    H156930   1.950   1.795   1.391 -0.8439 -1.9326  0.9046
11813TIP3    H256931   1.827   1.880   1.362  0.4655 -0.6278 -0.9837
11814TIP3   OH256932   2.836   3.531   5.568 -0.5750 -0.2716  0.1897
11814TIP3    H156933   2.873   3.471   5.632  2.7857  1.8487  0.3514
11814TIP3    H256934   2.774   3.478   5.518  1.8699 -3.7153  0.6564
11815TIP3   OH256935   4.326   5.416  17.122 -0.7034 -0.1494  0.0011
11815TIP3    H156936   4.371   5.443  17.042  1.5739  0.3237  1.3982
11815TIP3    H256937   4.314   5.498  17.171 -0.2984 -0.6971  1.0235
11816TIP3   OH256938   2.081   4.644   6.895  0.3944 -0.3166  0.7626
11816TIP3    H156939   2.156   4.700   6.876  0.4077 -0.3379  0.7530
11816TIP3    H256940   2.011   4.677   6.838  0.5877 -0.7080  0.2949
11817TIP3   OH256941   5.556   2.603  16.388  0.0822 -0.6393  0.1463
11817TIP3    H156942   5.597   2.518  16.373 -1.2490 -1.6692  2.0696
11817TIP3    H256943   5.491   2.611  16.318 -0.3537 -1.6011  0.4241
11818TIP3   OH256944   2.506   3.171   1.496 -0.3782 -0.4188  0.0026
11818TIP3    H156945   2.498   3.200   1.405  0.9747 -0.7865 -0.2386
11818TIP3    H256946   2.519   3.252   1.546 -0.4887 -0.2724 -0.2034
11819TIP3   OH256947   4.533   3.588  17.027  0.2439  0.5561  0.3029
11819TIP3    H156948   4.528   3.621  17.117 -2.3731 -0.2460  0.4920
11819TIP3    H256949   4.460   3.527  17.020  0.3053  0.7458 -2.4361
11820TIP3   OH256950   4.098   4.695  13.618  0.6120 -0.0096 -0.2511
11820TIP3    H156951   4.065   4.768  13.567 -0.0756 -0.4765 -0.4786
11820TIP3    H256952   4.079   4.618  13.565 -0.4918 -0.5423  0.8829
11821TIP3   OH256953   4.949   1.412  15.148 -0.2016 -0.0588 -0.2814
11821TIP3    H156954   4.888   1.411  15.074  0.2020 -1.4267 -0.6023
11821TIP3    H256955   5.035   1.419  15.109 -0.0551  0.4821  0.1217
11822TIP3   OH256956   4.752   6.304   4.943  0.3282  0.3076 -0.0789
11822TIP3    H156957   4.777   6.213   4.960 -0.5017  0.0174 -0.3354
11822TIP3    H256958   4.665   6.313   4.983 -0.1092  0.6319 -1.0804
11823TIP3   OH256959   2.952   4.672  16.170  0.6474 -0.2093 -0.5201
11823TIP3    H156960   3.032   4.724  16.175  0.6448 -0.2872  0.4458
11823TIP3    H256961   2.883   4.732  16.199  0.5782 -0.5893  0.1176
11824TIP3   OH256962   6.137   1.791  13.295 -0.4524 -0.2200  0.1608
11824TIP3    H156963   6.216   1.835  13.265 -0.1419 -1.7056 -1.3241
11824TIP3    H256964   6.121   1.825  13.383  0.1340  2.3055 -0.6863
11825TIP3   OH256965   4.881   6.187  16.823  0.1872  0.1303  0.3558
11825TIP3    H156966   4.849   6.224  16.741 -1.5996  1.2753  1.5345
11825TIP3    H256967   4.966   6.150  16.801  0.7981  2.5119 -1.5058
11826TIP3   OH256968   5.260   0.635   3.633 -0.1955 -0.1117  0.5720
11826TIP3    H156969   5.233   0.596   3.716  0.2814 -0.2307  0.6699
11826TIP3    H256970   5.236   0.728   3.642 -0.0541 -0.1042  0.8816
11827TIP3   OH256971   0.642   6.054  15.804 -0.0225 -0.3698  0.3418
11827TIP3    H156972   0.646   6.125  15.868 -0.2214  2.7396 -2.9031
11827TIP3    H256973   0.730   6.051  15.767 -0.2606 -1.2603 -0.1653
11828TIP3   OH256974   0.936   5.941   1.732 -0.2549 -0.5017 -0.0647
11828TIP3    H156975   0.878   5.865   1.729  0.6299 -1.2270  0.9280
11828TIP3    H256976   0.922   5.979   1.818  3.2484 -2.7186  1.5942
11829TIP3   OH256977   1.715   3.801  12.706  0.0389 -0.3683 -0.7648
11829TIP3    H156978   1.730   3.850  12.786 -1.9999 -0.3393 -0.3640
11829TIP3    H256979   1.716   3.709  12.734  0.4281 -0.4022 -0.8958
11830TIP3   OH256980   0.340   5.506  12.989  0.0192 -0.6055 -0.1773
11830TIP3    H156981   0.341   5.438  13.056  1.1398 -0.1532  0.2720
11830TIP3    H256982   0.383   5.581  13.030 -0.3315  0.0565 -1.0024
11831TIP3   OH256983   3.181   0.007  17.292  0.0096  0.0263  0.1715
11831TIP3    H156984   3.086   0.023  17.287  0.0844  0.4334  0.0495
11831TIP3    H256985   3.191  -0.050  17.368 -0.2749  0.4373  0.5173
11832TIP3   OH256986   2.243   5.710  12.473 -0.4914 -0.2153  0.1796
11832TIP3    H156987   2.222   5.618  12.457 -0.6490 -0.3487  1.1037
11832TIP3    H256988   2.159   5.750  12.494 -0.6329  0.4438 -1.6075
11833TIP3   OH256989   3.859   2.782   4.005 -0.1614 -0.6192  0.3917
11833TIP3    H156990   3.858   2.693   3.970  0.6517 -0.3345 -0.3426
11833TIP3    H256991   3.911   2.776   4.085  1.9096 -0.3399 -0.9018
11834TIP3   OH256992   5.718   0.849   0.367 -0.3502 -0.1239 -0.6862
11834TIP3    H156993   5.704   0.767   0.415 -2.8052 -1.2620 -3.2078
11834TIP3    H256994   5.771   0.824   0.292 -1.6787  0.4475 -1.8353
11835TIP3   OH256995   5.983   5.057   2.784  0.3927  0.4678  0.9896
11835TIP3    H156996   6.055   5.111   2.814  1.1940  0.5016 -0.9036
11835TIP3    H256997   6.007   4.968   2.811  0.8100  0.5708  0.9571
11836TIP3   OH256998   6.384   5.749  12.074 -0.4628 -0.0828 -0.4564
11836TIP3    H156999   6.345   5.663  12.060 -1.2888  0.1688  0.2836
11836TIP3    H257000   6.477   5.736  12.057 -0.6702 -0.9865 -0.9290
11837TIP3   OH257001   3.065   4.274  16.648 -0.7208 -0.5239  0.1905
11837TIP3    H157002   3.159   4.290  16.654 -0.4580 -1.1610 -1.6991
11837TIP3    H257003   3.058   4.179  16.632 -1.6639 -0.4627  0.2324
11838TIP3   OH257004   6.449   0.448  16.999 -0.1135  0.3583 -0.5211
11838TIP3    H157005   6.354   0.444  16.988 -0.3903  0.9077  1.5810
11838TIP3    H257006   6.475   0.359  17.021 -0.0792  0.1264 -1.4739
11839TIP3   OH257007   1.020   4.122   3.097 -0.4588 -0.8857  0.2276
11839TIP3    H157008   1.069   4.156   3.173 -1.0281 -3.0404  1.6041
11839TIP3    H257009   0.929   4.141   3.117 -0.4290  0.5274 -0.9732
11840TIP3   OH257010   6.346   6.012  14.882  0.3498  0.0910 -0.4467
11840TIP3    H157011   6.336   6.041  14.791  0.7214 -1.3971 -0.9848
11840TIP3    H257012   6.290   6.071  14.932  1.2166  1.8072 -1.4641
11841TIP3   OH257013   2.047   1.645  14.000 -0.0730 -0.4252 -0.2234
11841TIP3    H157014   1.973   1.668  14.056  0.0131 -1.1250  0.1833
11841TIP3    H257015   2.006   1.623  13.915 -0.2772 -0.2178 -0.1807
11842TIP3   OH257016   1.199   1.769   3.115 -0.1959  0.0879  0.4320
11842TIP3    H157017   1.198   1.736   3.205 -0.4940 -2.1091 -0.3397
11842TIP3    H257018   1.180   1.863   3.123 -2.0769 -0.4305  2.5207
11843TIP3   OH257019   5.727   5.715  13.528  0.2854 -0.6831 -0.0924
11843TIP3    H157020   5.797   5.764  13.483 -1.0181  0.2938 -1.0993
11843TIP3    H257021   5.773   5.658  13.589  1.9285  0.5232 -0.1804
11844TIP3   OH257022   1.824   2.932  12.699 -0.4092 -0.0528 -0.1864
11844TIP3    H157023   1.812   2.953  12.606 -1.9732  0.9204  0.2175
11844TIP3    H257024   1.865   2.845  12.699  2.1131  1.0775 -1.8282
11845TIP3   OH257025   3.941   1.686  11.820 -0.0116  0.1734 -0.2106
11845TIP3    H157026   4.022   1.686  11.871  0.4645  0.1385 -0.9664
11845TIP3    H257027   3.952   1.615  11.756 -0.0532  1.0757 -1.2355
11846TIP3   OH257028   1.545   0.866   2.842 -0.8598  0.0309  0.0140
11846TIP3    H157029   1.489   0.943   2.858 -1.3885 -0.2116 -0.6184
11846TIP3    H257030   1.496   0.814   2.778 -1.2009 -1.5798  1.5387
11847TIP3   OH257031   5.150   4.200  12.169 -0.4127 -0.1564 -0.0993
11847TIP3    H157032   5.055   4.207  12.157 -0.5069  0.1535  0.8108
11847TIP3    H257033   5.187   4.222  12.084 -1.1292  0.5004 -0.2391
11848TIP3   OH257034   3.467   6.732   3.750  0.7516  0.0271  0.3806
11848TIP3    H157035   3.471   6.828   3.752 -0.6089  0.1587 -1.8675
11848TIP3    H257036   3.394   6.710   3.807  1.5033  0.2678  1.4584
11849TIP3   OH257037   5.613   2.533   0.923 -0.6036  0.6341 -0.3261
11849TIP3    H157038   5.592   2.541   1.016 -0.2978  1.9124 -0.3621
11849TIP3    H257039   5.571   2.609   0.882  1.0210  1.2207 -0.9194
11850TIP3   OH257040   3.625   3.075   1.482  0.1710  0.0858 -0.2900
11850TIP3    H157041   3.535   3.101   1.462  0.5592  0.0897 -2.1173
11850TIP3    H257042   3.616   3.005   1.547 -1.1603 -0.1743 -0.7448
11851TIP3   OH257043   0.978   3.377   2.356  0.4732  0.4129  0.0098
11851TIP3    H157044   1.066   3.383   2.318  0.1651  1.1526 -0.6066
11851TIP3    H257045   0.924   3.343   2.285  0.5520 -1.5215  0.8621
11852TIP3   OH257046   5.796   6.191   4.762 -0.0413 -0.3645  0.5162
11852TIP3    H157047   5.891   6.202   4.760 -0.1150  0.3797  0.7309
11852TIP3    H257048   5.776   6.161   4.850 -0.0401 -0.1455  0.5916
11853TIP3   OH257049   6.573   1.843   0.347 -0.0547  0.2320 -0.5465
11853TIP3    H157050   6.512   1.903   0.304  0.1282  0.1405 -0.9401
11853TIP3    H257051   6.659   1.870   0.316 -0.0179 -0.6005 -1.1986
11854TIP3   OH257052   3.452   2.646  12.658 -0.0061  0.5252  0.0554
11854TIP3    H157053   3.468   2.577  12.594 -0.5259  0.7626 -0.3399
11854TIP3    H257054   3.386   2.702  12.617  0.8485  1.6008  0.1159
11855TIP3   OH257055   3.667   6.143  14.824  0.0843  0.5626 -0.4417
11855TIP3    H157056   3.752   6.187  14.835 -0.8488  2.1348  0.7983
11855TIP3    H257057   3.672   6.066  14.880  1.0864  0.0469 -1.2243
11856TIP3   OH257058   0.162   1.645  11.749  0.2142 -0.0573  0.4255
11856TIP3    H157059   0.176   1.708  11.820 -0.4105  0.5049  0.0555
11856TIP3    H257060   0.140   1.563  11.794 -0.6859  0.4204  0.8856
11857TIP3   OH257061   4.519   3.402   1.917  0.0904  0.6495 -0.1847
11857TIP3    H157062   4.515   3.357   1.832  1.9936 -1.2246  0.6662
11857TIP3    H257063   4.574   3.345   1.971 -0.1834  2.3857  1.9711
11858TIP3   OH257064   4.559   2.554  16.310  0.0591 -0.5083  0.0549
11858TIP3    H157065   4.614   2.479  16.286 -1.0022 -1.6875  1.2511
11858TIP3    H257066   4.586   2.576  16.400 -0.3609 -0.0994  0.0812
11859TIP3   OH257067   3.481   6.628   4.424  0.0258  0.1590 -0.7832
11859TIP3    H157068   3.475   6.653   4.332 -0.0908  1.8403 -0.3378
11859TIP3    H257069   3.464   6.534   4.425 -0.7159  0.2685 -2.3921
11860TIP3   OH257070   5.311   5.519   4.305  0.2268 -0.7708  0.5385
11860TIP3    H157071   5.221   5.497   4.278  0.3717  0.6884 -1.2449
11860TIP3    H257072   5.302   5.550   4.395 -1.3114  0.8190 -0.1313
11861TIP3   OH257073   2.977   2.526  13.283 -0.0769 -0.4502  0.1032
11861TIP3    H157074   2.899   2.476  13.307 -0.1465 -0.5995 -0.4201
11861TIP3    H257075   2.968   2.608  13.331 -1.5284  0.3073 -1.3904
11862TIP3   OH257076   1.070   2.818  12.564 -0.3384 -0.1385 -0.7776
11862TIP3    H157077   1.100   2.798  12.652 -0.3574 -2.0829 -1.2038
11862TIP3    H257078   1.144   2.864  12.524 -0.5572  1.3094  0.4249
11863TIP3   OH257079   0.764   5.999   4.601 -0.0607 -0.3626 -0.4225
11863TIP3    H157080   0.751   5.913   4.562 -0.5171 -0.1874 -0.6593
11863TIP3    H257081   0.795   6.054   4.529 -0.2259 -0.2119 -0.3779
11864TIP3   OH257082   6.158   2.412  13.813 -0.6526 -0.1071 -0.1156
11864TIP3    H157083   6.102   2.335  13.808 -0.0886 -0.5026 -0.3776
11864TIP3    H257084   6.144   2.447  13.901 -0.6321 -0.7177  0.1270
11865TIP3   OH257085   4.091   1.194   4.294  0.4422 -0.0052  0.3436
11865TIP3    H157086   4.011   1.216   4.246 -0.1357 -0.8673  0.9001
11865TIP3    H257087   4.150   1.159   4.228  1.4135  3.2264 -0.5861
11866TIP3   OH257088   0.258   6.658  16.815 -0.1320  0.3686  0.3852
11866TIP3    H157089   0.304   6.668  16.732  0.3398 -0.0299  0.5937
11866TIP3    H257090   0.261   6.745  16.855 -0.0315  0.4704  0.1524
11867TIP3   OH257091   3.986   1.332   5.527  0.2359  0.3437  0.3678
11867TIP3    H157092   3.958   1.252   5.482  1.2063 -0.7116  1.5626
11867TIP3    H257093   3.932   1.335   5.606  0.3553  0.7421  0.4361
11868TIP3   OH257094   0.079   4.755  11.938 -0.1279 -0.0103  0.3980
11868TIP3    H157095   0.005   4.696  11.921 -0.5128  0.5973 -0.0775
11868TIP3    H257096   0.156   4.706  11.909 -0.5191  0.0081 -0.7050
11869TIP3   OH257097   6.217   5.372  12.688 -0.3020  0.1230  0.3621
11869TIP3    H157098   6.205   5.459  12.726 -0.2149  0.4028 -0.2456
11869TIP3    H257099   6.136   5.355  12.641  0.3677  0.6210 -0.9898
11870TIP3   OH257100   1.957   4.645   3.601 -0.3639 -0.0711 -0.6000
11870TIP3    H157101   2.043   4.650   3.560 -0.5409 -0.2193 -0.9943
11870TIP3    H257102   1.976   4.634   3.694  0.0396  0.3045 -0.6337
11871TIP3   OH257103   6.100   3.576  12.038  0.8764 -0.0674 -0.0093
11871TIP3    H157104   6.130   3.553  12.126  0.6340  1.2680  0.4360
11871TIP3    H257105   6.163   3.642  12.008  1.0634 -0.6425 -0.9270
11872TIP3   OH257106   5.823   0.804  11.562 -0.1115 -0.5494 -0.3939
11872TIP3    H157107   5.884   0.863  11.518  1.1261  1.0439  3.2589
11872TIP3    H257108   5.876   0.763  11.632 -2.7159 -0.6340  1.5851
11873TIP3   OH257109   0.352   5.282  16.398  0.4017 -0.5924 -0.2025
11873TIP3    H157110   0.325   5.365  16.358 -0.2287 -0.8042 -0.2328
11873TIP3    H257111   0.336   5.295  16.491 -1.0162 -1.1530 -0.3513
11874TIP3   OH257112   1.376   2.483  13.139 -0.2326 -0.5027 -0.2243
11874TIP3    H157113   1.283   2.484  13.119 -0.4752 -1.1999  0.8204
11874TIP3    H257114   1.382   2.520  13.227  0.6009  0.6330 -0.7530
11875TIP3   OH257115   6.482   0.093   1.149  0.4453  0.1612 -0.1383
11875TIP3    H157116   6.560   0.056   1.107  0.5514  0.4786 -0.2170
11875TIP3    H257117   6.516   0.157   1.211  0.2332  0.5276 -0.3974
11876TIP3   OH257118   3.802   3.725  12.609 -0.0598  0.2525  0.2330
11876TIP3    H157119   3.870   3.740  12.674 -0.0074 -0.1401  0.2709
11876TIP3    H257120   3.775   3.813  12.581  0.3097  0.4114  0.3756
11877TIP3   OH257121   5.193   5.730  15.961 -0.4849 -0.1353  0.2598
11877TIP3    H157122   5.138   5.771  16.028 -1.6277 -1.9575  0.4838
11877TIP3    H257123   5.218   5.802  15.903  0.2334  1.4151  2.4247
11878TIP3   OH257124   4.810   6.595   4.236  0.4350 -0.1180 -0.1738
11878TIP3    H157125   4.824   6.593   4.331 -0.2961  0.3988 -0.0478
11878TIP3    H257126   4.725   6.553   4.224  2.4763 -4.2484 -1.0156
11879TIP3   OH257127   2.163   4.118  11.712  0.1487 -0.4860 -0.0269
11879TIP3    H157128   2.251   4.093  11.738 -0.0197  0.7511  1.7987
11879TIP3    H257129   2.105   4.069  11.770 -0.4030 -1.6951 -1.5648
11880TIP3   OH257130   2.526   4.914   4.792 -0.5933  0.4726  0.4585
11880TIP3    H157131   2.494   4.997   4.757  2.0380  1.1641 -0.4021
11880TIP3    H257132   2.601   4.938   4.847 -1.0943 -1.1604  1.9295
11881TIP3   OH257133   1.382   4.090  16.809 -0.0291  0.0826 -0.6144
11881TIP3    H157134   1.372   3.996  16.828 -0.9157 -0.3240 -2.9206
11881TIP3    H257135   1.476   4.102  16.797 -0.0655 -0.9424 -2.1876
11882TIP3   OH257136   1.116   5.316   4.455 -0.6801 -0.2823 -0.2639
11882TIP3    H157137   1.179   5.357   4.514 -1.7598  1.8149 -0.5211
11882TIP3    H257138   1.074   5.248   4.509  0.3459 -0.3126  0.5118
11883TIP3   OH257139   2.356   3.050  15.042  0.2009 -0.0619  0.7073
11883TIP3    H157140   2.386   3.122  15.098 -1.1382  0.2647  1.0059
11883TIP3    H257141   2.417   3.050  14.969  1.3442  0.1726  1.6423
11884TIP3   OH257142   3.942   3.406   1.894 -0.1923  0.1620 -0.1374
11884TIP3    H157143   3.911   3.443   1.812  1.7329  2.6278  0.2019
11884TIP3    H257144   4.037   3.418   1.892  0.3438 -3.2257  0.7929
11885TIP3   OH257145   0.315   4.494  14.840 -0.2243 -0.5093  0.2578
11885TIP3    H157146   0.406   4.518  14.822 -0.4531  1.6838  1.8453
11885TIP3    H257147   0.272   4.577  14.859 -2.2225 -1.6947  1.0221
11886TIP3   OH257148   1.166   6.454   4.133 -0.6757 -0.0664 -0.3623
11886TIP3    H157149   1.086   6.422   4.175 -1.7139  1.5512 -1.0609
11886TIP3    H257150   1.182   6.393   4.061 -2.4686  0.7977 -1.5130
11887TIP3   OH257151   3.043   0.185   5.835  0.1585  0.3265  0.3081
11887TIP3    H157152   3.099   0.167   5.911  0.3994 -1.8257 -0.3310
11887TIP3    H257153   3.100   0.229   5.773  0.3156  0.9124  0.8637
11888TIP3   OH257154   2.102   2.105  10.687  0.0562 -0.5659 -0.1922
11888TIP3    H157155   2.155   2.040  10.733  0.9157  0.0893 -0.2455
11888TIP3    H257156   2.131   2.100  10.596 -0.4301 -0.6576 -0.3443
11889TIP3   OH257157   5.559   4.133  15.936  0.0524 -0.1064  0.1364
11889TIP3    H157158   5.612   4.107  16.011  1.4013  0.1802 -0.6966
11889TIP3    H257159   5.586   4.074  15.866 -1.5048 -0.6476 -0.0001
11890TIP3   OH257160   0.720   5.003  15.671 -0.5079 -0.2799  0.0738
11890TIP3    H157161   0.796   5.059  15.658 -1.4049  1.1913  0.9855
11890TIP3    H257162   0.689   4.983  15.583 -0.7965  1.5389 -0.2475
11891TIP3   OH257163   6.688   1.699  16.140  0.2902  0.5095  0.4664
11891TIP3    H157164   6.755   1.652  16.190  0.1542  0.3521  0.5004
11891TIP3    H257165   6.636   1.630  16.100 -0.3929  0.6121  1.1565
11892TIP3   OH257166   1.426   6.238   4.890 -0.7137  0.1737 -0.0389
11892TIP3    H157167   1.413   6.177   4.963 -0.4245  1.6902  1.2943
11892TIP3    H257168   1.338   6.249   4.853 -0.9207 -0.3346  0.2848
11893TIP3   OH257169   0.448   1.482   5.999  0.0425 -0.0007 -0.5708
11893TIP3    H157170   0.513   1.529   6.050 -0.3042  3.5044 -3.1457
11893TIP3    H257171   0.476   1.494   5.908 -3.1427  0.0412 -1.6049
11894TIP3   OH257172   5.687   4.269   4.524  0.0131  0.1305 -0.0510
11894TIP3    H157173   5.708   4.187   4.568 -0.3918 -0.0444 -0.1823
11894TIP3    H257174   5.721   4.337   4.582 -1.5871 -0.0578  1.1268
11895TIP3   OH257175   3.467   0.895  15.707 -0.7438  0.5199 -0.1518
11895TIP3    H157176   3.551   0.936  15.728 -0.5387  0.0545 -0.0602
11895TIP3    H257177   3.428   0.953  15.642  0.1271  0.1856 -0.9923
11896TIP3   OH257178   3.866   5.354   3.438  0.0219  0.1068  0.3819
11896TIP3    H157179   3.840   5.336   3.348 -0.6062  3.4115 -0.1651
11896TIP3    H257180   3.953   5.394   3.431 -1.4526  3.5704  0.8830
11897TIP3   OH257181   3.338   3.189  15.437  0.1524  0.5166  0.0850
11897TIP3    H157182   3.417   3.181  15.490 -0.3856 -1.1377  0.6782
11897TIP3    H257183   3.272   3.222  15.498  0.1065  0.8458 -0.1407
11898TIP3   OH257184   6.398   5.294  15.701  0.0625  0.3754 -0.0337
11898TIP3    H157185   6.306   5.281  15.676  0.2025  0.5185 -0.6342
11898TIP3    H257186   6.395   5.305  15.796 -0.6156  0.9828 -0.1171
11899TIP3   OH257187   3.023   5.789   0.467  0.7669 -0.2437  0.3817
11899TIP3    H157188   2.962   5.749   0.529  1.0743 -0.5797  0.4695
11899TIP3    H257189   3.089   5.832   0.521  0.0684  0.9619  0.2871
11900TIP3   OH257190   1.165   1.120   6.296 -1.0416  0.1695  0.0183
11900TIP3    H157191   1.186   1.212   6.314  1.2349 -0.2520 -0.2950
11900TIP3    H257192   1.086   1.123   6.242 -0.1546  2.0263 -1.2216
11901TIP3   OH257193   2.411   6.326  14.346 -0.1283 -0.9539 -0.4757
11901TIP3    H157194   2.375   6.260  14.287 -1.4838 -1.1728  0.5866
11901TIP3    H257195   2.433   6.277  14.426 -2.5555  0.1010  0.8867
11902TIP3   OH257196   6.406   1.416  14.513 -0.0395 -0.1969  0.0436
11902TIP3    H157197   6.338   1.444  14.452 -0.4661 -0.5183  0.3681
11902TIP3    H257198   6.474   1.483  14.505 -1.2704  1.2282  1.2049
11903TIP3   OH257199   0.218   5.168  13.483 -0.1982  0.2218  0.8719
11903TIP3    H157200   0.158   5.137  13.414  0.9588 -1.1357  0.4664
11903TIP3    H257201   0.262   5.243  13.443 -0.3715  0.1600  0.5568
11904TIP3   OH257202   0.462   5.213   0.890  0.2606 -0.6252  0.1763
11904TIP3    H157203   0.532   5.271   0.920 -0.1944  0.5107 -0.9413
11904TIP3    H257204   0.507   5.149   0.834  0.5539 -0.5611  0.3357
11905TIP3   OH257205   5.262   4.880  13.038  0.1006 -0.2671  0.1240
11905TIP3    H157206   5.241   4.821  12.966  2.7899  0.4110 -1.2663
11905TIP3    H257207   5.210   4.959  13.020 -0.5298 -0.7362 -0.1212
11906TIP3   OH257208   1.287   4.499   0.193  0.3620  0.0918  0.1711
11906TIP3    H157209   1.348   4.477   0.124  0.2920 -0.0985  0.1690
11906TIP3    H257210   1.341   4.537   0.262  0.3335  1.0093 -0.3017
11907TIP3   OH257211   0.232   1.016   1.178 -0.1710 -0.0593  0.6720
11907TIP3    H157212   0.172   0.950   1.144 -2.2692  1.0655  2.0648
11907TIP3    H257213   0.224   1.090   1.117 -1.7086  0.8224  1.8848
11908TIP3   OH257214   6.315   2.694  16.333  0.0373 -0.8741  0.5989
11908TIP3    H157215   6.334   2.602  16.352 -0.8272 -1.1544  0.1191
11908TIP3    H257216   6.229   2.693  16.292  1.1420 -0.1439 -1.8738
11909TIP3   OH257217   2.207   6.748   4.267  0.2295  0.2618  0.3412
11909TIP3    H157218   2.243   6.692   4.336 -1.0444 -1.7710 -0.5954
11909TIP3    H257219   2.113   6.731   4.269  0.0032  1.3034 -0.9266
11910TIP3   OH257220   3.698   0.478   1.470 -1.0827 -0.3263 -0.4130
11910TIP3    H157221   3.692   0.402   1.528 -0.4419 -0.1499 -0.1192
11910TIP3    H257222   3.683   0.553   1.527  1.4641 -0.0246 -0.1076
11911TIP3   OH257223   3.268   0.299  12.993 -0.1059 -0.6255  0.0953
11911TIP3    H157224   3.359   0.270  12.995  0.4276  0.7551 -2.3565
11911TIP3    H257225   3.217   0.219  12.984  0.9552 -1.3164  0.2252
11912TIP3   OH257226   0.303   4.111   0.731 -0.7888  0.1592 -0.4652
11912TIP3    H157227   0.310   4.040   0.666 -0.0666 -0.6988  0.5275
11912TIP3    H257228   0.319   4.068   0.815 -1.1668  1.3641  0.2379
11913TIP3   OH257229   1.457   6.306   0.073  0.3869  0.0450 -0.5368
11913TIP3    H157230   1.406   6.227   0.058 -1.4335  1.0784  0.0514
11913TIP3    H257231   1.548   6.278   0.063 -0.1659 -2.4013  0.8804
11914TIP3   OH257232   0.815   1.998   1.071  0.7586 -0.0584  0.2928
11914TIP3    H157233   0.847   1.907   1.074 -2.0052 -1.0703 -0.1253
11914TIP3    H257234   0.755   2.005   1.145 -0.5489  0.8474 -0.8353
11915TIP3   OH257235   0.040   5.067   0.098  0.5245  0.0025  0.2956
11915TIP3    H157236  -0.010   5.095   0.021 -0.5209  0.6248  1.1888
11915TIP3    H257237   0.096   5.141   0.119  1.5643 -0.5522 -0.4747
11916TIP3   OH257238   3.896   1.497  14.026  0.4005  0.4396 -0.4656
11916TIP3    H157239   3.952   1.429  13.987 -0.8173  0.1107 -1.6636
11916TIP3    H257240   3.846   1.451  14.093  0.4036  0.3931 -0.4941
11917TIP3   OH257241   6.036   0.704  14.275 -0.1821 -0.3093  0.0909
11917TIP3    H157242   6.105   0.744  14.222  1.6329 -0.3986  2.3021
11917TIP3    H257243   5.993   0.643  14.215  0.1962  1.3681 -1.9453
11918TIP3   OH257244   3.823   6.268  16.881 -0.2582  0.1284  0.4313
11918TIP3    H157245   3.751   6.258  16.818 -0.8839  1.3232  0.9424
11918TIP3    H257246   3.781   6.266  16.967  0.1197  2.3033  0.6965
11919TIP3   OH257247   0.301   0.617  14.784  0.4286  0.4355 -0.1206
11919TIP3    H157248   0.381   0.604  14.734  1.2704  2.2060  0.7169
11919TIP3    H257249   0.231   0.612  14.719  1.0490 -2.7159 -0.6371
11920TIP3   OH257250   0.303   6.574  13.328 -0.6402  0.2496 -0.5891
11920TIP3    H157251   0.257   6.616  13.254 -0.8456 -0.4172 -0.8475
11920TIP3    H257252   0.340   6.647  13.377 -0.9473  0.7363 -1.0607
11921TIP3   OH257253   6.028   3.035  12.699 -0.6572 -0.6605 -0.4751
11921TIP3    H157254   5.954   3.084  12.736 -0.1283 -0.2584  0.0527
11921TIP3    H257255   6.094   3.101  12.681 -0.3278 -1.0541 -0.7126
11922TIP3   OH257256   2.719   6.441   4.387  0.6342 -0.5281 -0.0418
11922TIP3    H157257   2.810   6.438   4.416  0.4354  0.7428  0.7459
11922TIP3    H257258   2.700   6.352   4.358  1.4476 -1.3405  1.8730
11923TIP3   OH257259   5.939   2.025   3.899  0.2061  0.2861  0.3646
11923TIP3    H157260   5.886   2.002   3.976  0.6425  0.1645  0.6292
11923TIP3    H257261   5.927   1.952   3.839 -1.1673  0.9726 -0.2215
11924TIP3   OH257262   6.185   3.557   4.747 -0.0987 -0.2156  0.0592
11924TIP3    H157263   6.156   3.602   4.826  1.2720  0.8956 -0.0473
11924TIP3    H257264   6.266   3.512   4.772  0.2968  0.0668 -0.6863
11925TIP3   OH257265   1.193   5.781   2.647  0.6170 -0.6034 -0.4058
11925TIP3    H157266   1.184   5.876   2.658  0.3383 -0.8842  2.0497
11925TIP3    H257267   1.110   5.745   2.680  1.3336 -1.7950  0.1180
11926TIP3   OH257268   1.875   5.383   0.632  0.4831  0.0765 -0.0404
11926TIP3    H157269   1.827   5.393   0.715  1.7328  1.7295  0.5252
11926TIP3    H257270   1.806   5.375   0.566 -0.6758  3.1306  0.6629
11927TIP3   OH257271   3.830   0.448  12.220  0.3048 -0.0737  0.2719
11927TIP3    H157272   3.801   0.357  12.230  0.8613 -0.0585  2.3630
11927TIP3    H257273   3.911   0.442  12.169  0.5049 -0.7786  0.6671
11928TIP3   OH257274   6.707   3.785  13.344  0.5560  0.0716  0.2184
11928TIP3    H157275   6.791   3.808  13.306  0.1551  0.9925 -0.1275
11928TIP3    H257276   6.654   3.864  13.334 -0.2336 -0.3847  0.7546
11929TIP3   OH257277   3.172   2.480  11.715 -0.0977  0.8601 -0.2609
11929TIP3    H157278   3.078   2.496  11.700 -0.4973  0.3472  1.6095
11929TIP3    H257279   3.193   2.407  11.657 -1.1571  0.1550  0.2206
11930TIP3   OH257280   6.249   4.612   5.160 -0.1466 -0.0556  0.0723
11930TIP3    H157281   6.240   4.682   5.096 -0.0300  0.0083  0.1247
11930TIP3    H257282   6.336   4.626   5.198 -0.1304 -0.2205  0.0928
11931TIP3   OH257283   5.808   1.131  13.674 -0.1065  0.3515  0.0455
11931TIP3    H157284   5.816   1.196  13.603 -1.1902  0.0273 -0.3983
11931TIP3    H257285   5.734   1.162  13.726 -0.7286 -0.5980 -0.2561
11932TIP3   OH257286   5.309   0.837   1.966  0.3219 -0.2538  0.0114
11932TIP3    H157287   5.213   0.837   1.968  0.3283  0.6987  0.8235
11932TIP3    H257288   5.331   0.834   1.873 -0.5098  0.2399 -0.2070
11933TIP3   OH257289   1.728   5.607  11.708 -0.0397  0.1630 -0.0750
11933TIP3    H157290   1.684   5.674  11.760 -1.3990 -1.4303  0.9130
11933TIP3    H257291   1.792   5.654  11.656 -0.1456  2.0774  1.4724
11934TIP3   OH257292   5.743   0.381  14.000  0.0259 -0.4261  0.2171
11934TIP3    H157293   5.772   0.472  14.005 -0.4750 -0.3209  1.2667
11934TIP3    H257294   5.752   0.358  13.907  0.1154  0.7048 -0.0587
11935TIP3   OH257295   5.192   4.373   5.034 -0.2092 -0.1802 -0.0477
11935TIP3    H157296   5.183   4.303   5.100  0.2059  1.6999  2.0747
11935TIP3    H257297   5.132   4.348   4.964 -0.5170 -2.3564  0.9326
11936TIP3   OH257298   5.458   3.085  12.039  0.1311  0.0617 -0.4934
11936TIP3    H157299   5.412   3.167  12.055  0.8032 -0.0826  2.4502
11936TIP3    H257300   5.547   3.111  12.015  0.5793  0.2051  1.2709
11937TIP3   OH257301   1.416   0.739   6.700 -0.0368 -0.0500  0.6795
11937TIP3    H157302   1.368   0.737   6.783 -1.7040  0.5326 -0.2561
11937TIP3    H257303   1.383   0.816   6.654  1.1490 -0.1485 -0.3855
11938TIP3   OH257304   0.093   5.905   0.165  0.3937  0.0200 -0.6690
11938TIP3    H157305   0.084   5.966   0.238 -0.5327  0.1215 -0.8718
11938TIP3    H257306   0.162   5.943   0.110  0.0435  0.7147 -0.6289
11939TIP3   OH257307   0.340   1.519  16.160 -0.0408  0.3733 -0.2485
11939TIP3    H157308   0.329   1.573  16.082  2.2295  1.8662  0.4012
11939TIP3    H257309   0.302   1.571  16.231 -1.7119 -0.7897 -0.2667
11940TIP3   OH257310   5.538   1.056   4.279 -0.0257  0.0323 -0.3948
11940TIP3    H157311   5.554   1.000   4.355 -1.0830  0.5288  0.2108
11940TIP3    H257312   5.443   1.062   4.274  0.0616  0.9254 -1.0766
11941TIP3   OH257313   3.836   6.201  15.766  0.4423  0.6082 -0.3994
11941TIP3    H157314   3.872   6.129  15.714  0.2095 -0.1232  0.4277
11941TIP3    H257315   3.783   6.251  15.705  0.4655 -0.0267 -0.9495
11942TIP3   OH257316   4.617   3.535  14.465  0.2049  0.1531  0.5050
11942TIP3    H157317   4.667   3.573  14.394 -1.1718  0.0602 -0.5424
11942TIP3    H257318   4.636   3.441  14.461 -1.1432 -0.0960 -0.8343
11943TIP3   OH257319   0.869   3.259   1.516  0.4438  0.1817  0.6107
11943TIP3    H157320   0.799   3.294   1.461 -0.6095 -0.3496  1.5872
11943TIP3    H257321   0.840   3.277   1.606  1.8516  0.4948  1.0077
11944TIP3   OH257322   4.967   2.795   0.073 -0.1834  0.4102  0.4465
11944TIP3    H157323   4.901   2.828   0.134  1.5303 -0.9581  3.1247
11944TIP3    H257324   5.028   2.867   0.062  1.2114 -0.3420  2.8934
11945TIP3   OH257325   1.086   3.560   3.056  0.3067  0.1735 -0.7528
11945TIP3    H157326   1.059   3.592   3.143  0.5407  4.1925 -2.0566
11945TIP3    H257327   1.181   3.567   3.056  0.3345 -0.2110 -1.1889
11946TIP3   OH257328   1.464   0.688   0.440  0.0244  0.0169  0.0935
11946TIP3    H157329   1.408   0.694   0.363 -1.7797 -1.6065  1.2457
11946TIP3    H257330   1.534   0.628   0.415  0.6866  1.2115 -0.9857
11947TIP3   OH257331   6.023   5.634   5.691 -0.4738 -0.3320 -0.3049
11947TIP3    H157332   5.959   5.704   5.700 -0.6030 -0.4559 -0.2542
11947TIP3    H257333   5.987   5.562   5.743 -0.2712 -0.3863 -0.2364
11948TIP3   OH257334   3.078   1.682  15.205  0.4447  0.8083 -0.5652
11948TIP3    H157335   3.165   1.700  15.170 -0.1392  1.6122 -1.6198
11948TIP3    H257336   3.020   1.690  15.130 -0.5057 -0.0662  0.0678
11949TIP3   OH257337   1.638   0.256  14.093  0.1581  0.0250  0.3639
11949TIP3    H157338   1.643   0.163  14.073 -0.1143  0.0306  0.2751
11949TIP3    H257339   1.728   0.280  14.115  0.8743  0.4881 -2.8599
11950TIP3   OH257340   0.655   0.801  15.320 -0.0055 -0.2241  0.3885
11950TIP3    H157341   0.700   0.881  15.293 -2.6995  1.1527 -0.2231
11950TIP3    H257342   0.615   0.823  15.404 -1.9824 -0.4195 -0.4709
11951TIP3   OH257343   0.294   4.490   1.332  0.7510  0.6290 -0.2352
11951TIP3    H157344   0.224   4.537   1.285  0.8306 -0.4445 -1.4804
11951TIP3    H257345   0.359   4.472   1.264  1.1972 -0.3436  0.4550
11952TIP3   OH257346   1.797   4.602  10.693  0.0691  0.3356  0.2796
11952TIP3    H157347   1.889   4.588  10.713 -0.5043 -1.8025  1.6194
11952TIP3    H257348   1.770   4.673  10.751  0.4233 -0.3003  1.2377
11953TIP3   OH257349   2.720   2.877   3.222  0.7702 -0.1083 -0.2142
11953TIP3    H157350   2.665   2.881   3.299  1.6462  0.8132  0.3772
11953TIP3    H257351   2.694   2.796   3.178  0.7570 -1.0111  1.4117
11954TIP3   OH257352   0.194   5.676  15.211  0.0230 -0.1637 -0.0638
11954TIP3    H157353   0.275   5.625  15.221  2.0837  3.1008  0.7437
11954TIP3    H257354   0.160   5.685  15.300 -1.1548 -1.3376 -0.3750
11955TIP3   OH257355   1.696   1.824   6.102 -0.1235  0.3199  0.2732
11955TIP3    H157356   1.737   1.908   6.122  0.7228 -0.0103 -0.0722
11955TIP3    H257357   1.662   1.793   6.186  0.5983  0.4484  0.6139
11956TIP3   OH257358   4.864   5.662  14.465 -0.3910  0.3248  0.3362
11956TIP3    H157359   4.776   5.666  14.426 -0.1949  0.4626 -0.1008
11956TIP3    H257360   4.872   5.745  14.513  0.1679  1.1089 -1.0864
11957TIP3   OH257361   4.866   2.418  14.515 -0.6459  0.2609  0.3990
11957TIP3    H157362   4.848   2.511  14.530 -0.5589  0.6077 -1.4845
11957TIP3    H257363   4.959   2.408  14.535  0.6773  1.7611 -4.3781
11958TIP3   OH257364   5.869   1.950   1.140  0.1641 -0.2908 -0.0941
11958TIP3    H157365   5.933   1.970   1.072  0.2825  0.3957  0.2193
11958TIP3    H257366   5.914   1.889   1.198 -0.0396 -1.1136 -0.7946
11959TIP3   OH257367   5.954   5.520  15.790 -0.1795  0.1793 -0.3751
11959TIP3    H157368   6.021   5.481  15.847  0.1582  1.2135 -0.0475
11959TIP3    H257369   5.991   5.605  15.765 -1.9225  1.3282  0.8504
11960TIP3   OH257370   3.160   6.632   0.206 -0.5342  0.5654  0.7715
11960TIP3    H157371   3.252   6.608   0.209 -0.8553 -0.6671  0.9884
11960TIP3    H257372   3.140   6.666   0.293 -0.4565  0.2146  0.9238
11961TIP3   OH257373   3.863   2.081  13.765  0.0523  0.1273 -0.2778
11961TIP3    H157374   3.773   2.109  13.781  0.5305  1.7503 -0.3477
11961TIP3    H257375   3.869   1.995  13.807 -0.8485  1.0476  1.8312
11962TIP3   OH257376   5.518   3.803   0.847 -0.3442 -0.2082 -0.0310
11962TIP3    H157377   5.536   3.773   0.758  0.5663 -2.6660  0.9537
11962TIP3    H257378   5.604   3.810   0.887 -0.8686 -0.9351  1.2328
11963TIP3   OH257379   6.007   2.279  14.825 -0.1532  0.1777  0.5459
11963TIP3    H157380   6.030   2.319  14.742  0.6274  0.7402  1.0358
11963TIP3    H257381   6.089   2.241  14.857 -0.1207  1.2509  1.7675
11964TIP3   OH257382   3.050   3.136   2.848  0.6609 -0.3863 -0.7550
11964TIP3    H157383   2.971   3.084   2.861  0.3680  0.4799  1.1756
11964TIP3    H257384   3.116   3.074   2.818 -0.7088 -1.1340 -2.2745
11965TIP3   OH257385   1.440   4.772   2.100 -0.5444  0.3319 -0.4778
11965TIP3    H157386   1.509   4.822   2.056 -2.3752  2.1926 -1.3412
11965TIP3    H257387   1.402   4.718   2.030 -0.6481  0.0987 -0.2411
11966TIP3   OH257388   1.563   6.322   0.409 -0.5916  0.0298 -0.3848
11966TIP3    H157389   1.598   6.306   0.321 -0.6572  0.0228 -0.4094
11966TIP3    H257390   1.600   6.251   0.462 -0.3949  0.1472 -0.3640
11967TIP3   OH257391   5.498   3.979   4.794  0.4039  0.6398 -0.0043
11967TIP3    H157392   5.591   3.963   4.813  0.5218  0.5026 -0.6784
11967TIP3    H257393   5.484   3.941   4.707 -0.4810 -0.0652  0.4391
11968TIP3   OH257394   3.527   3.026  11.959  0.4308  0.2056  0.2798
11968TIP3    H157395   3.519   3.021  12.054  1.0190  0.0569  0.3280
11968TIP3    H257396   3.612   3.069  11.945 -0.3076  1.5190 -0.1785
11969TIP3   OH257397   6.107   2.786   3.348  0.1946  0.2022  0.1594
11969TIP3    H157398   6.102   2.691   3.360  3.4190 -0.1079 -0.3565
11969TIP3    H257399   6.087   2.800   3.256  2.3105 -0.3143 -0.4177
11970TIP3   OH257400   4.727   4.169  14.898 -0.1596 -0.0821  0.4791
11970TIP3    H157401   4.670   4.208  14.964  2.0574 -0.6700  2.8266
11970TIP3    H257402   4.729   4.232  14.826  0.3416  2.3506  2.5761
11971TIP3   OH257403   5.006   0.425   0.116 -1.0932  0.4191  0.5382
11971TIP3    H157404   5.070   0.453   0.182 -1.7437  1.9476  0.5572
11971TIP3    H257405   4.921   0.433   0.160 -1.4664  0.6442 -0.2054
11972TIP3   OH257406   6.089   2.170  17.059  0.1406 -0.6979  0.1431
11972TIP3    H157407   6.016   2.142  17.003 -2.0071 -0.8305  2.8932
11972TIP3    H257408   6.074   2.124  17.142  1.7212  1.5347  1.7062
11973TIP3   OH257409   3.204   6.788  15.041 -0.3306 -0.2278  0.2198
11973TIP3    H157410   3.273   6.853  15.053  1.4992 -2.1880  0.7270
11973TIP3    H257411   3.217   6.755  14.952 -1.3023  0.1525 -0.0675
11974TIP3   OH257412   0.730   2.534   4.540 -0.0566  0.5780 -0.1587
11974TIP3    H157413   0.719   2.603   4.605  2.2681 -0.1212  1.0060
11974TIP3    H257414   0.824   2.516   4.539 -0.4603 -1.6313 -1.4229
11975TIP3   OH257415   1.166   2.280  16.664 -0.0542  0.4780 -0.2339
11975TIP3    H157416   1.095   2.242  16.717  0.4242 -1.6667 -1.0721
11975TIP3    H257417   1.125   2.299  16.580  0.2711 -0.4400 -0.6049
11976TIP3   OH257418   3.645   5.974   4.045  0.6848 -0.0727 -0.3484
11976TIP3    H157419   3.644   5.899   4.104  0.1847 -0.2993 -0.6404
11976TIP3    H257420   3.620   6.048   4.101 -4.1994 -0.9556 -1.1381
11977TIP3   OH257421   0.457   3.253  15.370 -0.1221 -0.2407 -0.1024
11977TIP3    H157422   0.477   3.237  15.462 -0.2367  0.6881  0.0808
11977TIP3    H257423   0.370   3.215  15.357 -1.2123  1.8638  0.7981
11978TIP3   OH257424   4.032   2.586  12.847  0.2210 -0.3728  0.4886
11978TIP3    H157425   3.978   2.641  12.790 -0.1078 -1.1336  0.0458
11978TIP3    H257426   4.014   2.618  12.935 -2.1060 -1.5128  0.4986
11979TIP3   OH257427   6.318   6.806   4.013  0.5269  0.2165 -0.2389
11979TIP3    H157428   6.310   6.773   3.924  0.7009  1.7446 -0.8331
11979TIP3    H257429   6.412   6.802   4.032  0.5333  0.2305 -0.2659
11980TIP3   OH257430   4.320   1.840   0.114  0.6311  0.0919 -0.4218
11980TIP3    H157431   4.241   1.840   0.169  0.2386 -2.8375 -0.8866
11980TIP3    H257432   4.299   1.898   0.041 -0.6083  0.3791  0.1524
11981TIP3   OH257433   4.038   6.576  12.448  0.0821 -0.3060  0.1798
11981TIP3    H157434   4.006   6.665  12.466  0.7995 -0.0116 -0.0075
11981TIP3    H257435   3.975   6.520  12.494  0.0604  0.3235  0.9491
11982TIP3   OH257436   4.775   0.464  13.304  0.4187  0.5262 -0.4549
11982TIP3    H157437   4.810   0.435  13.388 -2.0546  0.1140  0.4694
11982TIP3    H257438   4.832   0.423  13.239  0.2997 -1.9918  0.9588
11983TIP3   OH257439   2.926   3.021   5.707 -0.5169 -0.6736  0.8141
11983TIP3    H157440   2.892   3.109   5.721 -3.3935 -1.0466 -2.9025
11983TIP3    H257441   3.019   3.034   5.690 -0.9750  1.7323 -0.0818
11984TIP3   OH257442   4.060   0.087  15.352 -0.4607  0.1519  0.6838
11984TIP3    H157443   4.057   0.179  15.378 -1.3727  0.7280 -1.3187
11984TIP3    H257444   4.151   0.060  15.366 -0.2162  1.3219  1.3751
11985TIP3   OH257445   0.962   3.559   4.260  0.1741  0.1183 -0.1799
11985TIP3    H157446   1.007   3.474   4.254 -0.3878 -0.3873  2.2206
11985TIP3    H257447   1.010   3.606   4.329 -1.1541  0.7108  0.3519
11986TIP3   OH257448   0.580   0.475   6.204 -0.1028 -0.4098 -0.6161
11986TIP3    H157449   0.645   0.536   6.238  0.5745 -1.4298 -0.0566
11986TIP3    H257450   0.534   0.524   6.136  2.3171 -0.1621 -2.1310
11987TIP3   OH257451   0.628   0.284  13.241 -0.4096 -0.1313 -0.4339
11987TIP3    H157452   0.547   0.241  13.214 -0.1483 -0.5611 -0.5413
11987TIP3    H257453   0.640   0.354  13.177 -0.4933 -0.3087 -0.6456
11988TIP3   OH257454   3.973   4.442  14.584  0.0215  0.2653  0.4833
11988TIP3    H157455   3.931   4.455  14.669  0.2370 -0.6305  0.7276
11988TIP3    H257456   4.024   4.522  14.570 -0.6737  0.7676  0.8081
11989TIP3   OH257457   2.270   3.549  14.078 -0.4209  0.2792 -0.3203
11989TIP3    H157458   2.304   3.516  13.995  0.0717 -2.5175  0.9131
11989TIP3    H257459   2.178   3.523  14.078 -0.4446  0.3625 -0.0533
11990TIP3   OH257460   0.540   3.770  14.786  0.3189  0.5340  0.2495
11990TIP3    H157461   0.573   3.685  14.816 -1.9652 -0.0710  1.1652
11990TIP3    H257462   0.560   3.830  14.858 -1.8253 -0.1509  1.4856
11991TIP3   OH257463   0.739   4.338  12.205 -0.1726 -0.4777  0.8112
11991TIP3    H157464   0.732   4.305  12.295 -2.8040  1.8398  1.5309
11991TIP3    H257465   0.793   4.416  12.212  0.3334 -0.7750  0.2307
11992TIP3   OH257466   3.672   2.434   0.681  0.0743 -0.4049  0.1267
11992TIP3    H157467   3.743   2.407   0.623  1.4390 -0.0394  1.6064
11992TIP3    H257468   3.653   2.357   0.734 -0.6907 -0.5179 -0.2988
11993TIP3   OH257469   1.298   0.531  13.963  0.3487 -0.2676  0.2808
11993TIP3    H157470   1.272   0.559  14.051 -0.1280 -1.0065  0.3731
11993TIP3    H257471   1.256   0.594  13.905 -0.5108 -0.6281  0.5043
11994TIP3   OH257472   3.043   3.679   2.720 -0.5178 -0.0728 -0.7811
11994TIP3    H157473   3.002   3.627   2.789 -0.4245 -0.6363 -1.1519
11994TIP3    H257474   2.976   3.741   2.693 -0.6691 -0.0817 -0.4300
11995TIP3   OH257475   2.835   2.478   2.673  0.3055 -0.2409  0.0463
11995TIP3    H157476   2.811   2.396   2.629 -0.0640  0.6030 -1.3714
11995TIP3    H257477   2.929   2.471   2.687  1.0346  0.6907 -3.6635
11996TIP3   OH257478   4.936   2.811  14.172  0.2025  0.4693 -0.0016
11996TIP3    H157479   4.989   2.739  14.138 -1.6901 -0.0947 -1.8052
11996TIP3    H257480   4.907   2.781  14.258  2.1490  0.4611  0.6685
11997TIP3   OH257481   1.790   0.736   2.572 -0.0778  0.0351 -0.2610
11997TIP3    H157482   1.860   0.741   2.638  0.7494 -0.1488 -1.1129
11997TIP3    H257483   1.720   0.790   2.608  0.2497 -0.3152  0.9176
11998TIP3   OH257484   0.313   3.206  12.758  0.2188  0.1384  0.1244
11998TIP3    H157485   0.376   3.230  12.825  1.1320 -0.2449 -0.5895
11998TIP3    H257486   0.307   3.110  12.765  1.3854 -0.0536 -1.2673
11999TIP3   OH257487   3.965   2.090   1.552 -0.1199  0.2967  0.4781
11999TIP3    H157488   3.874   2.096   1.521 -0.1038  0.5333  0.4813
11999TIP3    H257489   3.978   2.168   1.605  0.4749  0.8909 -0.5293
12000TIP3   OH257490   4.306   1.911  12.415 -0.3602  0.5211 -0.0120
12000TIP3    H157491   4.250   1.844  12.376 -0.9650  0.8934  0.1990
12000TIP3    H257492   4.393   1.871  12.419 -0.3558  0.3594 -1.4484
12001TIP3   OH257493   3.259   3.360   2.153  0.3455  0.2443  0.0819
12001TIP3    H157494   3.339   3.391   2.109  1.7274 -2.5015  0.5333
12001TIP3    H257495   3.212   3.311   2.085  0.3595 -0.3356  0.4814
12002TIP3   OH257496   5.548   3.762   3.758 -0.2764  0.2176  0.2943
12002TIP3    H157497   5.498   3.793   3.833 -1.5780 -0.9341 -0.0662
12002TIP3    H257498   5.573   3.842   3.711 -0.1433  0.8964  1.5126
12003TIP3   OH257499   4.489   2.726  16.791 -0.7353  0.3572  0.2966
12003TIP3    H157500   4.564   2.738  16.848 -2.3768 -0.0694  2.5991
12003TIP3    H257501   4.461   2.815  16.770  0.6261  0.5232 -0.9163
12004TIP3   OH257502   3.782   1.653  16.312  0.3670  0.0165 -0.0873
12004TIP3    H157503   3.763   1.559  16.304  0.1800  0.0397  0.1034
12004TIP3    H257504   3.791   1.668  16.406  1.1410  0.0406 -0.1645
12005TIP3   OH257505   6.802   6.656  16.534  0.3197  0.4565 -0.2844
12005TIP3    H157506   6.802   6.673  16.628  2.0050  0.5422 -0.2872
12005TIP3    H257507   6.878   6.599  16.520  0.0055  0.3423 -1.5784
12006TIP3   OH257508   0.362   4.710   3.262  0.2083 -0.4556  0.4569
12006TIP3    H157509   0.355   4.723   3.168  1.2628 -1.6367  0.1919
12006TIP3    H257510   0.303   4.775   3.300 -1.4979 -1.0717 -1.0621
12007TIP3   OH257511   4.794   0.321  15.009 -0.3334  0.3216  0.3401
12007TIP3    H157512   4.869   0.287  15.058 -0.2851 -0.4665 -0.2611
12007TIP3    H257513   4.833   0.378  14.943 -0.3744  1.1038  0.9794
12008TIP3   OH257514   3.013   5.388  14.661 -0.2681  0.7051 -0.5757
12008TIP3    H157515   2.925   5.354  14.650 -0.3683  1.1628 -1.1914
12008TIP3    H257516   3.015   5.469  14.610  0.3680  0.9384 -0.1996
12009TIP3   OH257517   0.734   6.347   4.055  0.4924  0.2310 -0.0864
12009TIP3    H157518   0.681   6.277   4.092  2.0194  0.3296  2.4400
12009TIP3    H257519   0.798   6.303   4.000 -0.3018 -0.1144 -0.7484
12010TIP3   OH257520   2.194   4.401  14.318  0.5402 -0.0033 -0.1387
12010TIP3    H157521   2.267   4.406  14.381  0.1243 -1.3051  0.4692
12010TIP3    H257522   2.134   4.338  14.357 -0.4988  0.3992 -1.0788
12011TIP3   OH257523   2.039   6.726  14.179  0.0078  0.3836 -0.3477
12011TIP3    H157524   2.074   6.814  14.170  0.3526  0.2622 -0.2085
12011TIP3    H257525   2.101   6.681  14.237  0.8760 -0.5113 -1.9400
12012TIP3   OH257526   5.235   0.117  17.066  0.0702  0.1976  0.5532
12012TIP3    H157527   5.205   0.069  17.143 -0.8543  0.0234  0.0924
12012TIP3    H257528   5.195   0.204  17.075 -0.2437  0.0960  0.1454
12013TIP3   OH257529   1.307   1.427   0.957 -0.6218  0.0089  0.2663
12013TIP3    H157530   1.346   1.480   0.888 -0.7713  0.0991  0.2532
12013TIP3    H257531   1.344   1.339   0.943 -0.4959  0.0733  0.1963
12014TIP3   OH257532   0.369   2.775   5.013 -0.2161  0.3165  0.5013
12014TIP3    H157533   0.459   2.770   5.044 -0.6422 -1.0230  1.6007
12014TIP3    H257534   0.316   2.761   5.092 -1.3403 -1.4912 -0.5272
12015TIP3   OH257535   6.467   6.554   1.567  0.1984  0.1777 -0.2687
12015TIP3    H157536   6.560   6.574   1.562  0.2023  0.9259  1.9326
12015TIP3    H257537   6.461   6.461   1.546  1.3679  0.2587 -0.9940
12016TIP3   OH257538   1.481   6.386   1.372  0.2110 -0.0300  0.2023
12016TIP3    H157539   1.560   6.333   1.358  0.0794  0.2972 -2.0586
12016TIP3    H257540   1.461   6.376   1.465  1.7683 -1.7281  0.3839
12017TIP3   OH257541   2.137   0.338  11.535  0.1783  0.0905  0.5588
12017TIP3    H157542   2.082   0.409  11.569 -1.3368 -1.0262  0.5150
12017TIP3    H257543   2.197   0.319  11.607  1.7523  2.5450 -0.0482
12018TIP3   OH257544   6.448   2.395   0.489 -0.9200  0.0336  0.0471
12018TIP3    H157545   6.458   2.428   0.578  1.0565 -1.3306  0.3756
12018TIP3    H257546   6.481   2.467   0.434 -1.8671  0.7610  0.4131
12019TIP3   OH257547   4.669   4.429   0.121 -0.4010  0.4645 -0.4250
12019TIP3    H157548   4.753   4.451   0.162 -1.2325  1.2528  0.8691
12019TIP3    H257549   4.688   4.430   0.027  1.4535 -1.0916 -0.1052
12020TIP3   OH257550   2.400   4.769  15.790 -0.3816  0.3550  0.4891
12020TIP3    H157551   2.490   4.800  15.779  0.1532 -1.7685 -1.4526
12020TIP3    H257552   2.377   4.793  15.880  1.6049  2.1725  0.5624
12021TIP3   OH257553   2.807   6.785  12.165  0.3639 -0.1311 -0.1965
12021TIP3    H157554   2.796   6.747  12.078 -1.6597 -0.0300 -0.0242
12021TIP3    H257555   2.787   6.713  12.225  1.0333 -0.0128  0.1690
12022TIP3   OH257556   3.425   3.976  12.784  0.5877  0.0119  0.5016
12022TIP3    H157557   3.387   4.011  12.704  0.5823  1.5117  1.1272
12022TIP3    H257558   3.498   3.922  12.755  0.9779  1.0520 -0.4898
12023TIP3   OH257559   5.337   1.962   2.827 -0.4160 -0.2749 -0.4199
12023TIP3    H157560   5.408   1.902   2.850 -1.2133 -1.4867 -1.0868
12023TIP3    H257561   5.258   1.919   2.858 -1.2716 -0.8507 -3.2697
12024TIP3   OH257562   1.422   1.003   5.521 -0.3062  0.2753 -0.0159
12024TIP3    H157563   1.497   1.043   5.566  0.3752 -0.0983 -0.8041
12024TIP3    H257564   1.357   1.074   5.516 -0.6078  0.1658  2.0137
12025TIP3   OH257565   1.100   5.812  16.434 -0.0433 -0.9538  0.4054
12025TIP3    H157566   1.133   5.902  16.439 -0.7045 -0.7776  1.7405
12025TIP3    H257567   1.070   5.792  16.523 -1.1180 -2.0233 -0.1820
12026TIP3   OH257568   2.642   4.081  14.895 -0.1694  0.0141  0.5129
12026TIP3    H157569   2.681   4.152  14.844 -0.2924 -0.6940 -0.5844
12026TIP3    H257570   2.706   4.010  14.892  0.1655  0.2430  2.0156
12027TIP3   OH257571   4.955   4.868   4.115  0.0298 -0.1169 -0.4904
12027TIP3    H157572   4.908   4.951   4.121  1.0598  0.6412 -2.2830
12027TIP3    H257573   4.887   4.801   4.106 -0.7671  0.9041 -2.3671
12028TIP3   OH257574   5.677   0.486   5.293 -0.1099  0.2026 -0.0701
12028TIP3    H157575   5.748   0.548   5.313  1.3762 -1.3962 -0.3020
12028TIP3    H257576   5.715   0.400   5.310 -1.8688 -0.7010 -0.6340
12029TIP3   OH257577   2.102   5.069   6.787  0.4070  0.2747  0.0406
12029TIP3    H157578   2.185   5.028   6.763  0.1518 -0.3284  0.1782
12029TIP3    H257579   2.103   5.154   6.742  0.1844 -0.5982 -1.6489
12030TIP3   OH257580   5.716   1.695   3.178 -0.5189 -0.1172 -0.1244
12030TIP3    H157581   5.797   1.654   3.207 -0.2937  0.4497  0.0465
12030TIP3    H257582   5.692   1.647   3.099  0.7939  0.6898 -1.0357
12031TIP3   OH257583   1.000   4.743   2.022 -0.0150  0.1723 -0.3111
12031TIP3    H157584   0.916   4.714   2.057 -0.8626  0.1208 -2.2943
12031TIP3    H257585   1.038   4.796   2.091 -1.3604 -0.3918  0.8858
12032TIP3   OH257586   5.483   1.887   5.901  0.2901 -0.2065 -0.1088
12032TIP3    H157587   5.462   1.966   5.950  1.5658  1.2320 -1.8435
12032TIP3    H257588   5.556   1.848   5.949 -0.3642 -0.3836  0.7668
12033TIP3   OH257589   2.143   0.299  13.736  0.3846  0.5089  0.4571
12033TIP3    H157590   2.237   0.284  13.727  0.7656  1.9175  1.9144
12033TIP3    H257591   2.136   0.387  13.771 -1.5873  1.4992 -2.2395
12034TIP3   OH257592   6.654   6.805   0.972  0.5077 -0.5533  0.2526
12034TIP3    H157593   6.737   6.818   0.926  1.6445 -0.0612  2.3486
12034TIP3    H257594   6.648   6.711   0.984  0.9904 -0.5586  0.4761
12035TIP3   OH257595   6.583   1.399  11.271 -0.0255  0.3116 -0.7651
12035TIP3    H157596   6.667   1.375  11.309  0.2422 -0.4372 -1.8177
12035TIP3    H257597   6.544   1.316  11.244 -0.6948  0.7427 -1.1438
12036TIP3   OH257598   3.937   5.774   1.861 -0.3450  0.5847  0.6103
12036TIP3    H157599   3.864   5.714   1.876 -1.6732  1.6404 -1.3977
12036TIP3    H257600   3.953   5.815   1.946  0.2082 -2.1577  1.8765
12037TIP3   OH257601   4.500   5.167  11.330  0.0898  0.1885 -0.5012
12037TIP3    H157602   4.465   5.254  11.313 -0.7280  0.0237  0.2785
12037TIP3    H257603   4.533   5.136  11.246  0.2961  1.2135 -0.7956
12038TIP3   OH257604   0.361   6.603   3.428  0.5696 -0.0728  0.2833
12038TIP3    H157605   0.405   6.572   3.349 -1.4676 -2.3488 -0.0167
12038TIP3    H257606   0.400   6.551   3.499  0.4323 -0.0180  0.4000
12039TIP3   OH257607   5.242   0.444   6.043  0.3279 -0.5095  0.3604
12039TIP3    H157608   5.263   0.534   6.066 -1.3511  0.5746 -2.1311
12039TIP3    H257609   5.197   0.410   6.120  0.9874  0.7429  1.3338
12040TIP3   OH257610   1.499   0.186   4.861  0.5712  0.3084  0.3879
12040TIP3    H157611   1.544   0.134   4.794 -0.3396  1.0513 -0.8460
12040TIP3    H257612   1.567   0.238   4.902  1.1042  0.0667 -0.1820
12041TIP3   OH257613   3.074   1.340   3.196  0.4140  0.2013  0.2512
12041TIP3    H157614   3.000   1.330   3.256  1.5657  0.0397  1.6862
12041TIP3    H257615   3.140   1.386   3.248  1.4131  0.1092 -0.9252
12042TIP3   OH257616   2.506   4.388  13.263 -0.2949  0.2972  0.4429
12042TIP3    H157617   2.456   4.351  13.335  0.0278  1.3726  1.2293
12042TIP3    H257618   2.594   4.400  13.298  0.4160 -1.1209 -0.7836
12043TIP3   OH257619   1.815   6.740   0.255 -0.0399  0.3188  0.0604
12043TIP3    H157620   1.896   6.742   0.205  0.1803  0.4526  0.4150
12043TIP3    H257621   1.842   6.714   0.343 -0.2211  1.5536  0.4844
12044TIP3   OH257622   0.946   0.863   6.443  0.0451 -0.0997 -0.1094
12044TIP3    H157623   0.958   0.917   6.366  3.3823  0.1555  0.5155
12044TIP3    H257624   0.888   0.792   6.415  0.3790  0.5695 -2.5433
12045TIP3   OH257625   3.617   5.800   0.205 -0.1705 -0.1367 -0.1040
12045TIP3    H157626   3.535   5.759   0.232  0.1919  0.1701  1.5339
12045TIP3    H257627   3.644   5.752   0.128 -0.5637 -1.9534  0.8763
12046TIP3   OH257628   5.384   0.842   3.913  0.0896 -0.1969  0.1842
12046TIP3    H157629   5.478   0.822   3.914  0.0518 -0.3633  0.6695
12046TIP3    H257630   5.345   0.771   3.964 -0.4006 -0.6405 -0.7903
12047TIP3   OH257631   0.740   2.246   0.714 -0.4624  0.2221 -0.3823
12047TIP3    H157632   0.781   2.160   0.718  0.1735  0.5470 -0.0371
12047TIP3    H257633   0.671   2.236   0.648 -1.2339 -0.9099  0.5875
12048TIP3   OH257634   4.523   6.777  12.689  0.2700 -0.1323  0.4579
12048TIP3    H157635   4.572   6.704  12.728 -1.1673 -0.8169  1.0235
12048TIP3    H257636   4.431   6.755  12.705 -0.3619 -0.3647 -3.2541
12049TIP3   OH257637   2.041   4.020   3.787 -0.4050 -0.1543  0.0609
12049TIP3    H157638   2.028   3.960   3.713  1.5418 -0.8455  0.2440
12049TIP3    H257639   1.958   4.017   3.835 -1.3896 -0.3838 -1.5853
12050TIP3   OH257640   2.334   5.251  14.548  0.7725  0.3298  0.3066
12050TIP3    H157641   2.334   5.231  14.641 -0.9392 -0.0805  0.2336
12050TIP3    H257642   2.361   5.343  14.543  1.5526  0.1529  1.1451
12051TIP3   OH257643   0.676   1.058  13.917 -0.0640 -0.2219  0.6285
12051TIP3    H157644   0.730   1.115  13.972  0.0391  0.5704 -0.2785
12051TIP3    H257645   0.594   1.050  13.965  0.5994 -0.8605  1.6762
12052TIP3   OH257646   1.955   0.233  12.804  0.5584  0.0018 -0.5613
12052TIP3    H157647   1.986   0.302  12.744  1.3516  0.7869  0.7298
12052TIP3    H257648   1.873   0.267  12.839  1.2589  0.5629  0.5401
12053TIP3   OH257649   6.651   4.209  17.093 -0.4677 -0.4654 -0.5245
12053TIP3    H157650   6.692   4.255  17.020 -1.2868  0.6544 -0.2859
12053TIP3    H257651   6.699   4.239  17.171 -1.0253  0.0339 -0.3648
12054TIP3   OH257652   5.408   4.130   5.030 -0.8146 -0.2079 -0.4807
12054TIP3    H157653   5.398   4.209   5.083 -1.4766 -1.3183  1.0870
12054TIP3    H257654   5.484   4.085   5.067 -0.5395 -0.3958 -1.2570
12055TIP3   OH257655   2.213   5.305   5.952  0.3999 -0.1116 -0.4433
12055TIP3    H157656   2.238   5.386   5.996 -1.2516 -1.1009  2.4835
12055TIP3    H257657   2.175   5.332   5.869  0.6735  2.0466  0.1203
12056TIP3   OH257658   5.058   0.186  13.514 -0.2971  0.0887  0.3682
12056TIP3    H157659   5.044   0.192  13.608 -1.4026  1.2122  0.1506
12056TIP3    H257660   5.133   0.242  13.497 -0.7923  0.7754  0.4386
12057TIP3   OH257661   1.198   6.295   3.894 -0.4341  0.2145 -0.5885
12057TIP3    H157662   1.203   6.278   3.800 -0.1284 -1.3154 -0.3015
12057TIP3    H257663   1.253   6.227   3.934  0.6701  1.7577  0.6028
12058TIP3   OH257664   2.454   2.508  16.149  0.0799  0.0750 -0.0605
12058TIP3    H157665   2.407   2.488  16.069 -0.8692  1.6412  0.0820
12058TIP3    H257666   2.426   2.442  16.212 -0.1581 -0.3788 -0.6485
12059TIP3   OH257667   2.163   3.560  11.790  0.0696 -1.0139  0.5129
12059TIP3    H157668   2.120   3.526  11.711  0.3643 -0.2425  0.0169
12059TIP3    H257669   2.237   3.611  11.757 -0.8543  0.8212  1.2052
12060TIP3   OH257670   3.641   4.444  15.357 -0.4837 -0.1603  0.2901
12060TIP3    H157671   3.687   4.505  15.415 -1.6059  0.3170  0.6981
12060TIP3    H257672   3.620   4.369  15.413  1.8792 -1.4375 -0.4848
12061TIP3   OH257673   5.952   3.983   2.909 -0.1647 -0.0297  0.5202
12061TIP3    H157674   5.887   4.013   2.845 -0.3237 -1.0632  0.2026
12061TIP3    H257675   6.014   4.056   2.915 -0.2214  0.1247 -0.7070
12062TIP3   OH257676   1.784   0.482  14.741 -0.1462 -0.6673 -0.8277
12062TIP3    H157677   1.875   0.450  14.743  0.8195  1.8646 -2.4450
12062TIP3    H257678   1.783   0.548  14.672 -3.3044 -0.7799 -0.9673
12063TIP3   OH257679   4.231   0.037   4.633 -0.0079  0.1346 -0.1395
12063TIP3    H157680   4.140   0.027   4.662 -0.0313  0.5467 -0.0657
12063TIP3    H257681   4.241  -0.028   4.564 -0.5765  0.5638 -0.6413
12064TIP3   OH257682   5.034   5.425   1.450 -0.1249 -0.1627 -0.1423
12064TIP3    H157683   4.977   5.457   1.380 -0.8104  1.6906  1.2244
12064TIP3    H257684   5.067   5.504   1.493  1.1568 -1.2494  0.9365
12065TIP3   OH257685   5.118   5.840  11.215  0.6965  0.0289 -0.3708
12065TIP3    H157686   5.173   5.762  11.228 -0.3593 -0.6792 -0.0543
12065TIP3    H257687   5.052   5.812  11.151  0.4189  0.7180 -0.3912
12066TIP3   OH257688   0.691   3.754   1.544  0.3381 -0.3412 -0.1083
12066TIP3    H157689   0.624   3.696   1.508 -0.9652  0.1673  1.4514
12066TIP3    H257690   0.752   3.695   1.589 -0.8206 -0.5488  1.2237
12067TIP3   OH257691   4.788   4.361  11.715  0.1559  0.1507  0.9294
12067TIP3    H157692   4.710   4.375  11.769  0.4517  0.9315  1.1554
12067TIP3    H257693   4.778   4.272  11.681 -1.3394  0.6001  0.1523
12068TIP3   OH257694   6.504   1.942  16.375  0.2426 -0.3570  0.4800
12068TIP3    H157695   6.573   1.991  16.331  0.2984 -1.2265 -0.4315
12068TIP3    H257696   6.424   1.965  16.327  0.0867 -0.2184  0.8114
12069TIP3   OH257697   5.504   0.029  17.004  0.6534  0.2199 -0.3083
12069TIP3    H157698   5.574   0.091  17.022 -0.1157  1.0154 -0.0173
12069TIP3    H257699   5.423   0.079  17.018  0.0295 -0.5262 -1.1833
12070TIP3   OH257700   3.361   0.735  14.605 -0.7817  0.0272  0.2779
12070TIP3    H157701   3.309   0.680  14.546  1.9568 -2.8152  0.4389
12070TIP3    H257702   3.317   0.726  14.690 -1.6447 -0.1223 -0.1755
12071TIP3   OH257703   2.639   2.190  16.111 -0.1949 -0.4077 -0.2154
12071TIP3    H157704   2.725   2.220  16.083 -1.3345  2.2068 -1.1137
12071TIP3    H257705   2.589   2.183  16.029 -0.9182 -1.6164  0.3229
12072TIP3   OH257706   2.520   4.250   3.558  0.2443  0.3598  0.1868
12072TIP3    H157707   2.552   4.259   3.648  0.8969  1.2924 -0.1365
12072TIP3    H257708   2.463   4.173   3.561  1.2865 -0.3980  1.1083
12073TIP3   OH257709   6.625   6.042  15.679  0.3520 -0.0686  0.4040
12073TIP3    H157710   6.538   6.044  15.639 -0.6564 -1.2401  2.4761
12073TIP3    H257711   6.660   5.956  15.656  0.6477  0.0961  0.2366
12074TIP3   OH257712   2.544   3.621   5.683  0.4208 -0.3408  0.2995
12074TIP3    H157713   2.617   3.561   5.670  1.3379  0.9405 -0.5932
12074TIP3    H257714   2.480   3.597   5.616  1.8231  1.2123 -1.6674
12075TIP3   OH257715   1.788   1.503  15.050  0.2298  0.0038 -0.0930
12075TIP3    H157716   1.854   1.462  15.106 -0.6489  2.2917  2.7379
12075TIP3    H257717   1.706   1.494  15.099 -0.9626  0.1152 -2.0369
12076TIP3   OH257718   6.803   6.028  16.452 -0.5444  0.6214  0.3449
12076TIP3    H157719   6.879   6.010  16.397 -1.9563  0.3482 -1.5416
12076TIP3    H257720   6.833   6.097  16.512  1.2909  0.2445 -0.1078
12077TIP3   OH257721   0.499   4.842  12.246  0.0602 -0.3043 -0.7301
12077TIP3    H157722   0.411   4.832  12.209 -0.7583 -0.3770  1.1508
12077TIP3    H257723   0.535   4.754  12.248  0.0508 -0.3188 -1.2172
12078TIP3   OH257724   5.538   6.471  16.427  0.2779  0.2432  0.0175
12078TIP3    H157725   5.610   6.408  16.424 -0.3275 -0.5613  1.5773
12078TIP3    H257726   5.580   6.555  16.445  0.8237 -0.2694  1.2006
12079TIP3   OH257727   3.516   1.133   5.876  0.3337  0.6099  0.1995
12079TIP3    H157728   3.545   1.200   5.813  0.3330  1.2665  0.8928
12079TIP3    H257729   3.491   1.183   5.954  0.4866 -0.2180  0.7794
12080TIP3   OH257730   4.446   4.580   4.132 -0.1486 -0.2083 -0.3771
12080TIP3    H157731   4.423   4.495   4.094 -2.4414 -0.6237  1.8264
12080TIP3    H257732   4.489   4.559   4.214 -1.6259  0.7431  0.6657
12081TIP3   OH257733   1.001   4.935   2.716  0.4695 -0.4492 -0.2169
12081TIP3    H157734   0.982   4.965   2.627  1.6703 -0.5153 -0.5066
12081TIP3    H257735   1.078   4.879   2.706  1.9397  1.2879  1.1676
12082TIP3   OH257736   1.737   1.566   2.101 -0.0399 -0.0788  0.5977
12082TIP3    H157737   1.775   1.640   2.148 -0.7102  0.8947 -0.3625
12082TIP3    H257738   1.801   1.495   2.110  0.1839  0.3307  2.3018
12083TIP3   OH257739   3.941   2.792   0.834  0.1452 -0.4212  0.0753
12083TIP3    H157740   3.874   2.785   0.766 -1.2114 -1.4651  1.4974
12083TIP3    H257741   3.965   2.702   0.854  0.1766 -0.1416  1.3382
12084TIP3   OH257742   2.549   6.243  16.921 -0.1860 -0.3094  0.9142
12084TIP3    H157743   2.457   6.249  16.945 -0.5582 -2.9625  0.2897
12084TIP3    H257744   2.553   6.275  16.831 -0.3046  0.8836  1.3306
12085TIP3   OH257745   4.496   1.462  16.542  0.3611 -0.0045  0.0255
12085TIP3    H157746   4.468   1.436  16.454  0.9589  0.4236 -0.2938
12085TIP3    H257747   4.504   1.557  16.537  0.1721  0.0426  0.6142
12086TIP3   OH257748   4.406   6.241   4.650 -0.2674  0.4838 -0.1088
12086TIP3    H157749   4.316   6.255   4.622 -0.5561  0.0959  0.6003
12086TIP3    H257750   4.401   6.235   4.746  0.2321 -1.4957 -0.1734
12087TIP3   OH257751   3.927   0.526  16.846 -1.0684 -0.1279  0.1641
12087TIP3    H157752   3.921   0.460  16.777  0.6898  1.0212 -1.1352
12087TIP3    H257753   3.837   0.537  16.877 -1.8138 -0.9299 -1.6694
12088TIP3   OH257754   4.479   4.609   2.014  0.0961  0.3997 -0.4386
12088TIP3    H157755   4.405   4.661   1.982 -1.0076 -0.5412  0.4916
12088TIP3    H257756   4.556   4.664   2.000 -0.7055  1.1492 -2.0121
12089TIP3   OH257757   0.663   4.676  10.428 -0.2128  0.1416  0.2837
12089TIP3    H157758   0.568   4.687  10.437 -0.2941 -1.0224  0.8972
12089TIP3    H257759   0.687   4.618  10.501  1.2929  2.1406  1.4158
12090TIP3   OH257760   2.429   6.555  13.642 -0.0323 -0.3719  0.0257
12090TIP3    H157761   2.435   6.637  13.593  0.3800 -1.8267 -2.4201
12090TIP3    H257762   2.414   6.488  13.575  0.3938 -2.4038  1.9139
12091TIP3   OH257763   2.954   1.871  15.909 -0.0477  0.1496 -0.1461
12091TIP3    H157764   2.912   1.831  15.832 -1.6335  0.0357  0.7675
12091TIP3    H257765   2.921   1.822  15.983  2.1404 -0.2787  0.5677
12092TIP3   OH257766   5.288   5.607  11.256 -0.3757  0.1152  0.1780
12092TIP3    H157767   5.279   5.644  11.344  0.1649 -0.5614  0.5212
12092TIP3    H257768   5.376   5.570  11.254  0.4320  2.0210 -1.3783
12093TIP3   OH257769   2.410   3.663   2.067  0.2416 -0.3125  0.1405
12093TIP3    H157770   2.337   3.685   2.009  0.2117  0.4903  0.4796
12093TIP3    H257771   2.420   3.568   2.058 -0.1642 -0.2783 -0.6999
12094TIP3   OH257772   0.378   3.951   3.216 -0.0561  0.1667 -0.3387
12094TIP3    H157773   0.384   4.018   3.149 -1.8280  1.1230  0.4399
12094TIP3    H257774   0.306   3.979   3.272 -0.8328 -2.3904 -0.0061
12095TIP3   OH257775   3.716   2.795  14.238 -0.0123 -0.4299 -0.1022
12095TIP3    H157776   3.783   2.852  14.201  1.2811 -1.0762  1.2143
12095TIP3    H257777   3.639   2.810  14.183  0.2148  2.7836  0.3784
12096TIP3   OH257778   0.281   5.841   5.745 -0.0335 -0.2926  0.3631
12096TIP3    H157779   0.266   5.935   5.756  1.6649  0.0012  0.2166
12096TIP3    H257780   0.252   5.803   5.828 -1.5652  0.2491  0.0961
12097TIP3   OH257781   5.756   2.112  10.424  0.1895 -0.2153 -0.2281
12097TIP3    H157782   5.717   2.061  10.495  1.6059  0.5784  1.1668
12097TIP3    H257783   5.845   2.077  10.416  0.6349  0.9146 -0.3609
12098TIP3   OH257784   4.567   2.531   3.924 -0.2769  0.8824 -0.1459
12098TIP3    H157785   4.557   2.517   4.018  1.2244  0.8680  0.0129
12098TIP3    H257786   4.477   2.524   3.890 -0.7299  0.0580  1.1597
12099TIP3   OH257787   3.509   0.245   3.360  0.0540  0.0652  0.3954
12099TIP3    H157788   3.501   0.150   3.358 -1.6230  0.1989  0.0303
12099TIP3    H257789   3.598   0.263   3.327  0.1795 -1.3395 -0.0418
12100TIP3   OH257790   3.633   3.352   5.789 -0.2093 -0.0616  0.3045
12100TIP3    H157791   3.698   3.380   5.854  1.5969  0.4847 -1.6856
12100TIP3    H257792   3.641   3.256   5.787 -1.3614 -0.2079  1.9743
12101TIP3   OH257793   0.082   1.870  12.328 -0.3465  0.6645  0.2092
12101TIP3    H157794   0.147   1.802  12.343 -0.2229  1.0393  1.5124
12101TIP3    H257795   0.031   1.840  12.253 -0.4633 -0.9893  0.9278
12102TIP3   OH257796   0.510   0.123   3.977  0.0807  0.5534 -0.1655
12102TIP3    H157797   0.504   0.207   3.930  0.1637  0.0509 -1.0725
12102TIP3    H257798   0.471   0.142   4.062  0.9192  1.7611 -0.0365
12103TIP3   OH257799   5.093   2.694  15.197  0.2790  0.7592  0.0801
12103TIP3    H157800   5.154   2.651  15.256  0.1234  0.4445  0.0093
12103TIP3    H257801   5.147   2.755  15.147  0.5674  0.3167 -0.1428
12104TIP3   OH257802   1.958   4.180  12.080 -0.2855 -0.0174 -0.2312
12104TIP3    H157803   2.018   4.245  12.116  0.2544  0.3911 -1.8276
12104TIP3    H257804   1.970   4.187  11.986 -1.3039 -1.4159 -0.4689
12105TIP3   OH257805   1.150   3.337  10.991 -0.4940 -0.0374  0.1088
12105TIP3    H157806   1.146   3.304  10.901  2.1249 -2.8640  0.9509
12105TIP3    H257807   1.226   3.394  10.993  0.4507 -1.3024  0.9100
12106TIP3   OH257808   0.313   2.800  14.987 -0.3570 -0.4061  0.3658
12106TIP3    H157809   0.254   2.766  14.920 -0.5967 -1.9213  1.2958
12106TIP3    H257810   0.271   2.775  15.070  0.8762 -0.2619  1.0473
12107TIP3   OH257811   6.179   2.871  16.718 -0.3912 -0.1328  0.3992
12107TIP3    H157812   6.223   2.877  16.803  1.8309 -3.9552 -0.3742
12107TIP3    H257813   6.112   2.805  16.730  0.6003 -1.4372 -1.0494
12108TIP3   OH257814   1.918   2.991  12.310  0.0139  0.4483  0.1006
12108TIP3    H157815   1.848   2.932  12.336 -0.0717 -0.3057 -1.8292
12108TIP3    H257816   1.878   3.051  12.248  0.7053  1.0030  0.1814
12109TIP3   OH257817   1.557   6.502   5.540 -0.3532  0.2068  0.1607
12109TIP3    H157818   1.507   6.582   5.551 -0.0826  0.5106 -0.8036
12109TIP3    H257819   1.494   6.432   5.553 -1.1291  0.5850 -1.4994
12110TIP3   OH257820   5.888   3.770   4.284  0.7118  0.3607  0.0280
12110TIP3    H157821   5.957   3.835   4.299  0.3895  0.6034  0.4699
12110TIP3    H257822   5.907   3.736   4.196 -0.1670  2.3610 -0.9660
12111TIP3   OH257823   3.038   3.246   6.006  0.1511 -0.0249  0.3325
12111TIP3    H157824   3.033   3.340   6.024 -0.4654 -0.0334  0.2244
12111TIP3    H257825   3.127   3.222   6.030  0.5269  0.7175 -0.2899
12112TIP3   OH257826   0.488   6.066   1.146  0.0030  0.1897 -0.0785
12112TIP3    H157827   0.584   6.069   1.141 -0.1108  2.5725 -1.5937
12112TIP3    H257828   0.463   6.004   1.078  0.4920 -1.3213  1.0889
12113TIP3   OH257829   0.904   2.694  16.311  0.1057  0.2236  0.3698
12113TIP3    H157830   0.848   2.741  16.249 -1.2622  0.5207  1.8089
12113TIP3    H257831   0.927   2.758  16.378  0.1843 -0.5333  1.0813
12114TIP3   OH257832   1.608   4.268   1.148 -0.4904  0.6232 -0.2631
12114TIP3    H157833   1.633   4.281   1.057 -0.1812  1.7020 -0.0270
12114TIP3    H257834   1.527   4.319   1.159 -1.2877 -0.6139 -0.2930
12115TIP3   OH257835   0.735   3.980  12.180 -0.1311  0.0473  0.6319
12115TIP3    H157836   0.667   4.027  12.131  0.5416  0.7371  0.3504
12115TIP3    H257837   0.729   4.015  12.269  1.2601  1.6892  0.1187
12116TIP3   OH257838   0.772   2.911   6.423  0.3231 -0.2674 -0.2053
12116TIP3    H157839   0.857   2.867   6.426  0.3023 -0.2939 -0.0432
12116TIP3    H257840   0.727   2.882   6.502  0.1117 -0.3550 -0.3593
12117TIP3   OH257841   6.457   0.658  15.241  0.1643 -0.5910  0.6243
12117TIP3    H157842   6.382   0.682  15.296  0.0277 -0.4034  0.3573
12117TIP3    H257843   6.467   0.564  15.255 -1.0979 -0.9224 -0.5284
12118TIP3   OH257844   1.214   5.540  13.341 -0.0280  0.6399 -0.1415
12118TIP3    H157845   1.266   5.617  13.316 -1.1889  1.5730  0.2976
12118TIP3    H257846   1.191   5.555  13.433  0.5148 -0.6795  0.2168
12119TIP3   OH257847   3.978   4.105   5.390 -0.0728  0.0237 -0.7873
12119TIP3    H157848   3.997   4.078   5.480  2.1365  0.7609 -1.0023
12119TIP3    H257849   3.945   4.195   5.398  0.4216  0.2004 -0.7451
12120TIP3   OH257850   4.163   5.437   5.049  0.0615  0.2622 -0.4948
12120TIP3    H157851   4.174   5.415   4.956 -0.6491  0.3658 -0.6092
12120TIP3    H257852   4.243   5.406   5.091 -0.0147 -0.6267 -0.9940
12121TIP3   OH257853   5.440   5.264  13.011  0.7258  0.0295  0.2913
12121TIP3    H157854   5.468   5.302  13.095  0.0681  1.8158 -0.2880
12121TIP3    H257855   5.491   5.183  13.004  0.9529 -0.0347  2.3150
12122TIP3   OH257856   2.321   4.912   6.643  0.7734 -0.1083  0.5761
12122TIP3    H157857   2.237   4.889   6.602 -0.7470  4.0223  1.0729
12122TIP3    H257858   2.381   4.923   6.569  0.1156 -0.2592  0.0122
12123TIP3   OH257859   0.768   3.293   1.768 -0.2883 -0.0613 -0.0728
12123TIP3    H157860   0.806   3.314   1.854 -0.3915  1.3005 -0.3613
12123TIP3    H257861   0.679   3.262   1.788 -0.3587  0.3822  0.3015
12124TIP3   OH257862   2.204   2.130  16.633  0.4329  0.1756  0.4071
12124TIP3    H157863   2.190   2.201  16.570 -1.1576  0.6647  1.3023
12124TIP3    H257864   2.244   2.060  16.581 -3.2814 -0.4469 -1.7860
12125TIP3   OH257865   0.084   2.924  17.104 -0.1159 -0.1200  0.1943
12125TIP3    H157866   0.070   3.018  17.096  1.3181  0.1145  0.2672
12125TIP3    H257867   0.065   2.905  17.196 -0.3917  0.1038  0.1842
12126TIP3   OH257868   4.553   2.310  14.134 -0.1175 -0.5568 -0.2057
12126TIP3    H157869   4.550   2.234  14.193 -0.7002  0.0880  0.5968
12126TIP3    H257870   4.604   2.375  14.182 -0.6155 -0.0224 -0.4101
12127TIP3   OH257871   3.077   6.570  14.205 -0.5953  0.1326 -0.4319
12127TIP3    H157872   3.054   6.625  14.130 -0.4876  1.2615  0.3488
12127TIP3    H257873   3.142   6.621  14.253 -0.4208 -0.7271  0.2604
12128TIP3   OH257874   3.926   6.430  15.484  0.1119 -0.1442  0.3846
12128TIP3    H157875   4.004   6.434  15.428 -0.2030  2.1205  0.0673
12128TIP3    H257876   3.854   6.410  15.424 -0.0505  1.1239  0.1490
12129TIP3   OH257877   4.461   0.171   2.175 -0.0981 -0.6290  0.5029
12129TIP3    H157878   4.537   0.200   2.226 -0.9872  0.4633  1.2094
12129TIP3    H257879   4.410   0.250   2.160 -1.0552 -1.3411 -0.0757
12130TIP3   OH257880   5.630   1.160  10.645 -0.0542 -0.0677 -0.3557
12130TIP3    H157881   5.641   1.087  10.585  0.4360 -0.3272  0.0566
12130TIP3    H257882   5.550   1.139  10.693 -0.5259  0.2071 -1.0049
12131TIP3   OH257883   4.374   5.192   1.019 -0.2426 -0.1044  0.1105
12131TIP3    H157884   4.291   5.236   1.001 -1.1941 -0.7254  2.8330
12131TIP3    H257885   4.435   5.264   1.038 -0.5329  0.2644 -0.3234
12132TIP3   OH257886   1.839   6.150   3.500 -0.0315 -0.2923  0.2826
12132TIP3    H157887   1.870   6.132   3.412  2.2331 -1.0333  1.1901
12132TIP3    H257888   1.744   6.141   3.495  0.0244  0.2631 -2.1886
12133TIP3   OH257889   0.556   0.109   4.667 -0.3606 -0.5980  0.1696
12133TIP3    H157890   0.522   0.057   4.739  0.3585 -1.3408 -0.0134
12133TIP3    H257891   0.558   0.048   4.592  2.4375 -0.9326  0.4646
12134TIP3   OH257892   3.419   0.636   6.074 -0.7150  0.2721 -0.2676
12134TIP3    H157893   3.505   0.657   6.110 -1.0018  0.3800  0.3634
12134TIP3    H257894   3.358   0.690   6.124 -0.9336  2.0889 -2.4101
12135TIP3   OH257895   1.032   0.079  15.142  0.2312  0.3359 -0.4124
12135TIP3    H157896   1.098   0.133  15.100 -0.2672  2.4547  1.4115
12135TIP3    H257897   1.037   0.103  15.235 -0.7184 -2.0055  0.2836
12136TIP3   OH257898   2.695   2.925   5.514  0.0818  0.0719 -0.0215
12136TIP3    H157899   2.723   2.836   5.535 -3.5513 -0.8577  1.2461
12136TIP3    H257900   2.768   2.980   5.541  2.8791 -2.5643 -1.8810
12137TIP3   OH257901   2.838   5.415   1.758 -0.2455 -0.5445  0.1594
12137TIP3    H157902   2.855   5.472   1.833  0.9142  1.0246 -1.2549
12137TIP3    H257903   2.913   5.357   1.754  0.3212  0.2070 -0.4992
12138TIP3   OH257904   4.113   5.697   3.365  0.3492  0.3216 -0.7909
12138TIP3    H157905   4.112   5.602   3.375 -0.4129  0.4939  0.8010
12138TIP3    H257906   4.206   5.720   3.369  0.4272 -0.1777  0.5596
12139TIP3   OH257907   5.716   3.158  11.958 -0.4590 -0.3876  0.1308
12139TIP3    H157908   5.713   3.153  11.863  0.8422  1.5088 -0.0234
12139TIP3    H257909   5.788   3.217  11.978  0.0800 -1.7021  2.3450
12140TIP3   OH257910   2.109   4.268   2.825  0.0654  0.2837  0.2836
12140TIP3    H157911   2.139   4.185   2.787  0.2309  0.8927 -0.9650
12140TIP3    H257912   2.117   4.256   2.919  0.8362 -0.8398  0.0859
12141TIP3   OH257913   0.865   3.138  14.573 -0.8189  0.3826 -0.1624
12141TIP3    H157914   0.917   3.085  14.512  0.6785 -0.1235  1.4993
12141TIP3    H257915   0.930   3.188  14.622 -1.9367  0.1478  1.5871
12142TIP3   OH257916   4.449   6.631  12.225 -0.1293  0.3425 -0.0691
12142TIP3    H157917   4.464   6.692  12.153 -2.4582 -1.7602 -2.4644
12142TIP3    H257918   4.536   6.601  12.249  0.8236  2.4464 -0.7769
12143TIP3   OH257919   0.845   3.529   5.946 -0.1554 -0.2318 -0.2900
12143TIP3    H157920   0.830   3.462   5.880  0.6022 -0.4174 -0.2827
12143TIP3    H257921   0.782   3.598   5.926  0.6094  0.0731 -1.6929
12144TIP3   OH257922   5.263   5.115   5.525 -0.2647  0.0765 -0.2677
12144TIP3    H157923   5.206   5.100   5.450  1.0425  1.0426 -1.4926
12144TIP3    H257924   5.289   5.027   5.553 -1.6583 -0.3361 -0.2185
12145TIP3   OH257925   5.997   3.697   5.929 -0.0862 -0.2387  0.3343
12145TIP3    H157926   6.048   3.659   5.857 -0.4409 -0.5116  0.2235
12145TIP3    H257927   6.032   3.655   6.008  1.0170  0.8335  0.4307
12146TIP3   OH257928   4.344   3.728  13.560 -0.2839  0.1215 -0.2339
12146TIP3    H157929   4.252   3.737  13.586 -0.1661 -1.2970  0.7640
12146TIP3    H257930   4.340   3.693  13.470 -0.6942  3.0754 -1.4046
12147TIP3   OH257931   3.487   1.512  11.167  0.0256 -0.1612  0.8029
12147TIP3    H157932   3.505   1.455  11.243  1.7332 -0.8984 -0.1236
12147TIP3    H257933   3.454   1.452  11.100  2.1892 -0.1411 -0.3015
12148TIP3   OH257934   0.152   2.889   2.673 -0.3844 -0.1431 -0.0813
12148TIP3    H157935   0.111   2.914   2.756 -0.2142 -1.4395  0.4006
12148TIP3    H257936   0.089   2.832   2.631 -0.3937  0.3687 -0.7713
12149TIP3   OH257937   3.802   5.723   2.205  0.0633  0.2783  0.2789
12149TIP3    H157938   3.830   5.679   2.125 -1.0667  1.9466 -1.0839
12149TIP3    H257939   3.850   5.679   2.275  0.7257 -1.5232 -1.2601
12150TIP3   OH257940   2.714   2.395   4.884  0.1385 -0.5862  0.1131
12150TIP3    H157941   2.708   2.487   4.910  0.4644 -0.5048 -0.1003
12150TIP3    H257942   2.760   2.352   4.956 -0.2453 -0.6319  0.3327
12151TIP3   OH257943   2.601   3.640  14.550  0.2732  0.5750 -0.5501
12151TIP3    H157944   2.569   3.643  14.640  2.0086  0.1277  0.0987
12151TIP3    H257945   2.586   3.728  14.516  0.1113  0.8988  0.3464
12152TIP3   OH257946   2.233   2.025  12.749  0.7468 -0.9225 -0.1163
12152TIP3    H157947   2.175   2.093  12.783  0.2899 -2.5499  2.4990
12152TIP3    H257948   2.317   2.069  12.737  0.4554  0.1397  1.5400
12153TIP3   OH257949   3.716   0.759  15.041  0.0854 -0.2153 -0.0073
12153TIP3    H157950   3.768   0.805  15.107  1.7763  0.4181 -1.7366
12153TIP3    H257951   3.655   0.705  15.092  0.5331  1.1673  2.0535
12154TIP3   OH257952   5.432   5.928  14.483  0.9343 -0.1841 -0.1633
12154TIP3    H157953   5.453   6.019  14.460  0.0998  0.5516  1.8216
12154TIP3    H257954   5.457   5.877  14.406 -0.9110  2.0053 -2.3047
12155TIP3   OH257955   2.856   4.662  14.090  0.6892  0.3752 -0.2793
12155TIP3    H157956   2.791   4.618  14.145  0.3109  0.8029 -0.3826
12155TIP3    H257957   2.935   4.665  14.143  0.6413 -0.1888 -0.1671
12156TIP3   OH257958   0.287   0.013  15.035 -0.7613  0.3078  0.3146
12156TIP3    H157959   0.340   0.025  15.114 -0.1554  2.0220 -0.3359
12156TIP3    H257960   0.304  -0.078  15.010 -1.4696 -0.4701  2.4963
12157TIP3   OH257961   2.898   0.412  12.243  0.5592 -0.1603  0.0948
12157TIP3    H157962   2.935   0.465  12.173 -0.9023 -0.2802 -0.7851
12157TIP3    H257963   2.891   0.472  12.317 -2.3887  1.3238 -1.2937
12158TIP3   OH257964   1.105   0.199  11.455  0.2100  0.0497 -0.2267
12158TIP3    H157965   1.185   0.150  11.476  0.1243  0.1568  0.3673
12158TIP3    H257966   1.066   0.218  11.540  1.2704  2.8706 -0.2987
12159TIP3   OH257967   4.869   6.061   2.488 -0.0726 -0.5604 -0.4926
12159TIP3    H157968   4.837   6.005   2.417 -0.7885  0.8948 -1.3530
12159TIP3    H257969   4.796   6.065   2.550 -0.3863  0.2199 -0.9142
12160TIP3   OH257970   3.319   2.693   0.715 -0.4962 -0.3187  0.4904
12160TIP3    H157971   3.329   2.742   0.797 -0.9499 -0.0945  0.4118
12160TIP3    H257972   3.306   2.602   0.742 -0.4890 -0.2682  0.6631
12161TIP3   OH257973   3.134   2.690   2.300 -0.1110  0.0040  0.3107
12161TIP3    H157974   3.101   2.638   2.227  2.4901 -2.7557  1.0378
12161TIP3    H257975   3.055   2.715   2.349 -1.7671  0.6357 -2.5125
12162TIP3   OH257976   0.440   6.296  13.275 -0.3261 -0.1421  0.3759
12162TIP3    H157977   0.482   6.291  13.361  0.9107 -0.4990 -0.2345
12162TIP3    H257978   0.469   6.380  13.239  0.6726 -0.8226 -0.4471
12163TIP3   OH257979   4.052   5.767  15.369  0.1399  0.1755  0.8710
12163TIP3    H157980   3.989   5.697  15.383 -0.4078  1.0901  3.3783
12163TIP3    H257981   4.137   5.729  15.392  0.4258 -0.7942 -1.6466
12164TIP3   OH257982   1.477   0.060   3.060 -0.8850  0.5183 -0.5780
12164TIP3    H157983   1.527   0.046   2.980 -0.8171  0.9846 -0.6201
12164TIP3    H257984   1.468   0.155   3.066  1.2128  0.6451  1.2644
12165TIP3   OH257985   2.251   1.560   0.174 -0.3038 -0.2102 -0.1035
12165TIP3    H157986   2.271   1.478   0.128 -1.0615 -0.6949  0.4036
12165TIP3    H257987   2.155   1.558   0.184 -0.5010  1.5409 -1.5825
12166TIP3   OH257988   6.665   5.522   2.849  0.6468 -0.0776 -0.6341
12166TIP3    H157989   6.596   5.500   2.787 -1.5863  0.1878  1.6804
12166TIP3    H257990   6.745   5.491   2.808 -0.9755 -1.4599 -2.8498
12167TIP3   OH257991   4.980   0.788   2.219 -0.2359 -0.3770  0.3700
12167TIP3    H157992   4.959   0.839   2.141  0.2087  1.4642  1.4068
12167TIP3    H257993   5.036   0.847   2.271  2.5493 -2.9267  0.3941
12168TIP3   OH257994   1.621   6.146   4.622  0.0134 -0.0264  0.3201
12168TIP3    H157995   1.607   6.062   4.579 -2.8833  0.0853  0.9216
12168TIP3    H257996   1.648   6.205   4.552  2.9429 -1.6187  0.0346
12169TIP3   OH257997   5.214   2.964   0.009  0.2080  0.4634  0.4466
12169TIP3    H157998   5.197   3.035   0.071  2.9013  0.4691  1.2814
12169TIP3    H257999   5.283   2.912   0.051  0.9037 -0.4984 -1.7983
12170TIP3   OH258000   3.148   0.268   6.979  0.0492  0.4781  0.1500
12170TIP3    H158001   3.142   0.254   6.885 -1.0450 -1.0656  0.4364
12170TIP3    H258002   3.074   0.325   7.000 -0.9672 -0.9330  0.4019
12171TIP3   OH258003   0.415   5.400  10.657  0.0790  0.2335  0.4194
12171TIP3    H158004   0.329   5.414  10.696 -0.3930  1.6317 -1.0379
12171TIP3    H258005   0.403   5.324  10.599  0.1789 -0.4026  1.2329
12172TIP3   OH258006   6.222   5.435   4.407  0.0080 -0.6917  0.6276
12172TIP3    H158007   6.311   5.437   4.370 -0.1971  0.8823  0.1774
12172TIP3    H258008   6.168   5.479   4.341 -1.2833 -2.4773  0.4659
12173TIP3   OH258009   2.560   4.160   4.663  0.0797 -0.5380 -0.3029
12173TIP3    H158010   2.591   4.119   4.744 -0.9966 -1.1766 -0.2040
12173TIP3    H258011   2.499   4.096   4.626 -0.3983  0.2971 -0.9675
12174TIP3   OH258012   3.403   3.637   1.954 -0.1966 -0.8804 -0.6521
12174TIP3    H158013   3.352   3.568   1.913  0.3840 -1.1372 -0.9526
12174TIP3    H258014   3.388   3.714   1.900  0.8512 -1.3030 -1.5784
12175TIP3   OH258015   1.287   5.341  15.731 -0.6117  0.3725 -0.0128
12175TIP3    H158016   1.355   5.368  15.792 -0.3525  1.6320 -0.8363
12175TIP3    H258017   1.249   5.423  15.699 -1.7860 -0.2988 -0.3779
12176TIP3   OH258018   4.380   4.336   3.979 -0.1384 -0.0177 -0.3659
12176TIP3    H158019   4.346   4.280   3.908 -1.6824 -0.3076  0.5768
12176TIP3    H258020   4.341   4.300   4.058 -1.7986  2.8599  0.1936
12177TIP3   OH258021   0.797   1.555   4.507 -0.3565 -0.2663 -0.3771
12177TIP3    H158022   0.701   1.549   4.500 -0.2196 -1.0331 -1.7724
12177TIP3    H258023   0.817   1.646   4.489 -0.8637 -0.0036  0.3734
12178TIP3   OH258024   1.802   3.710   2.859 -0.1548 -0.0130 -0.5369
12178TIP3    H158025   1.714   3.673   2.851 -0.6347  0.8542  0.4675
12178TIP3    H258026   1.787   3.800   2.889  1.1046 -0.1134  0.4572
12179TIP3   OH258027   3.090   2.979  11.440 -0.2047 -0.4066 -0.1882
12179TIP3    H158028   3.136   3.042  11.385  0.5342 -0.6562  0.1358
12179TIP3    H258029   3.141   2.898  11.431 -2.1480 -1.4958 -2.0419
12180TIP3   OH258030   6.460   4.547   1.864 -0.3432 -0.2983 -0.2121
12180TIP3    H158031   6.534   4.488   1.880  0.3514  0.1385 -1.7083
12180TIP3    H258032   6.496   4.615   1.807 -0.9625  1.9720  2.0123
12181TIP3   OH258033   3.417   3.409   1.566 -0.6626 -0.0583  0.0324
12181TIP3    H158034   3.422   3.333   1.507 -1.3758 -0.5865  0.6475
12181TIP3    H258035   3.396   3.482   1.508 -3.5078 -0.9362 -0.1076
12182TIP3   OH258036   0.328   3.229  13.147  0.1339  0.3227 -0.5859
12182TIP3    H158037   0.358   3.268  13.229  1.2473  0.5118 -1.0729
12182TIP3    H258038   0.278   3.152  13.175  2.0845 -0.6928  0.2434
12183TIP3   OH258039   1.756   4.014  15.077  0.5725 -0.4709 -0.4794
12183TIP3    H158040   1.824   4.048  15.135  0.8352 -1.7092 -0.0385
12183TIP3    H258041   1.804   3.969  15.008  0.2270 -0.1673 -0.9223
12184TIP3   OH258042   4.341   6.648   4.170  0.1074  0.3515  0.4484
12184TIP3    H158043   4.348   6.675   4.078 -0.1525  0.9822  0.6094
12184TIP3    H258044   4.275   6.578   4.169  1.3776 -0.8768 -0.0872
12185TIP3   OH258045   6.737   0.311  12.106 -0.0480  0.4349 -0.3517
12185TIP3    H158046   6.712   0.219  12.116 -0.2465  0.5065 -0.1797
12185TIP3    H258047   6.770   0.317  12.016  1.1344 -0.0779  0.0418
12186TIP3   OH258048   3.087   3.557  15.204 -0.3592  0.2380  0.3601
12186TIP3    H158049   3.032   3.633  15.185 -0.7579  0.1624  1.2171
12186TIP3    H258050   3.155   3.591  15.262  0.2216  0.2211 -0.3005
12187TIP3   OH258051   1.086   4.156   2.159  0.2407 -0.0146 -0.2643
12187TIP3    H158052   1.096   4.233   2.104 -1.4388 -1.1637 -2.2823
12187TIP3    H258053   1.092   4.188   2.248  2.9685  1.9168 -1.0888
12188TIP3   OH258054   5.221   0.003  10.544  0.4579 -0.4043 -0.0019
12188TIP3    H158055   5.271  -0.074  10.518  0.2514 -0.1583 -1.1521
12188TIP3    H258056   5.146  -0.033  10.592  0.0696 -0.9680 -1.0100
12189TIP3   OH258057   3.698   1.367  15.972 -0.2033  0.0802 -0.3236
12189TIP3    H158058   3.643   1.297  15.936  0.1976 -0.0677 -0.6503
12189TIP3    H258059   3.763   1.321  16.025 -0.0920  0.2263 -0.3337
12190TIP3   OH258060   2.456   6.817  14.282  0.9065  0.1015  0.0522
12190TIP3    H158061   2.540   6.801  14.325  0.4488  0.3531  1.0588
12190TIP3    H258062   2.421   6.895  14.326  0.0545 -0.1239 -0.2136
12191TIP3   OH258063   3.406   5.105   5.480  0.4130 -0.0445 -0.2025
12191TIP3    H158064   3.359   5.030   5.516  1.5564 -1.2327 -1.1341
12191TIP3    H258065   3.365   5.123   5.396 -0.8676  1.3856  0.6926
12192TIP3   OH258066   1.728   4.745   5.632 -0.5711  0.1238  0.0080
12192TIP3    H158067   1.759   4.656   5.649 -0.4864 -0.1052 -1.2739
12192TIP3    H258068   1.681   4.770   5.712 -0.4117 -0.9889  0.4579
12193TIP3   OH258069   4.619   0.909  10.754 -0.0244 -0.2203 -0.4656
12193TIP3    H158070   4.612   0.853  10.676 -0.9321 -1.2394  0.3314
12193TIP3    H258071   4.623   0.998  10.720  0.2479 -0.7031 -1.7095
12194TIP3   OH258072   1.548   4.532   5.321 -0.7724  0.6254 -0.0345
12194TIP3    H158073   1.467   4.503   5.279 -0.6997 -0.9224  0.8248
12194TIP3    H258074   1.521   4.559   5.409 -0.4227  0.5153  0.1067
12195TIP3   OH258075   1.311   6.396   5.652  0.0802 -0.2068  0.7563
12195TIP3    H158076   1.323   6.335   5.725 -0.2790  0.6967  1.5827
12195TIP3    H258077   1.247   6.459   5.684 -0.7797 -0.3293 -0.6836
12196TIP3   OH258078   2.230   1.076  14.865 -0.3445  0.0147  1.0164
12196TIP3    H158079   2.181   1.024  14.801  0.4904 -0.3190  0.6378
12196TIP3    H258080   2.250   1.158  14.820  0.6056 -0.3848  0.6847
12197TIP3   OH258081   1.186   3.257   0.719  0.2228 -0.4535  0.4278
12197TIP3    H158082   1.157   3.167   0.708 -0.0957 -0.1810 -1.0306
12197TIP3    H258083   1.108   3.305   0.748 -0.1189 -0.2687 -0.7584
12198TIP3   OH258084   0.191   4.224  12.707  0.4206  0.0591  0.0665
12198TIP3    H158085   0.197   4.195  12.798 -1.6783  0.1487  0.2578
12198TIP3    H258086   0.101   4.204  12.681  0.8724  0.4337 -1.8553
12199TIP3   OH258087   3.803   5.669   5.008 -0.2139 -0.5899 -0.4316
12199TIP3    H158088   3.806   5.735   4.939  1.4739 -1.0443 -0.8225
12199TIP3    H258089   3.739   5.703   5.071  0.6542  1.4371 -0.6043
12200TIP3   OH258090   2.960   2.097  14.201  0.2684  0.0410 -0.0949
12200TIP3    H158091   2.952   2.003  14.217  0.8764 -0.0366 -0.2761
12200TIP3    H258092   2.984   2.133  14.286  0.2207  0.0161 -0.0700
12201TIP3   OH258093   1.608   3.493   6.433  0.1713 -0.0147 -0.1586
12201TIP3    H158094   1.666   3.569   6.435  0.5895 -0.2662 -1.9964
12201TIP3    H258095   1.664   3.419   6.457  0.7406 -0.3061 -2.2443
12202TIP3   OH258096   3.702   2.239   5.975  0.1196 -0.0457 -0.4710
12202TIP3    H158097   3.685   2.146   5.990  0.0586  0.0545  0.0976
12202TIP3    H258098   3.676   2.282   6.056  2.4655  0.1788  0.2154
12203TIP3   OH258099   4.103   6.312   5.810  0.0347  0.0584  0.0178
12203TIP3    H158100   4.120   6.218   5.799 -3.7207 -0.6488 -0.5217
12203TIP3    H258101   4.044   6.317   5.886 -0.8822  1.8318 -0.7718
12204TIP3   OH258102   6.741   0.292   3.824  0.2403 -0.1480 -0.3800
12204TIP3    H158103   6.654   0.296   3.784 -0.9147  1.2278  2.1580
12204TIP3    H258104   6.782   0.216   3.783 -2.5393 -1.4401 -0.9374
12205TIP3   OH258105   6.568   5.261  16.171  0.3199  0.6335  0.4270
12205TIP3    H158106   6.598   5.335  16.224  2.4183 -0.7073  1.1346
12205TIP3    H258107   6.543   5.194  16.235  0.6489 -0.1313 -0.2371
12206TIP3   OH258108   1.532   4.299  14.548 -0.4488 -0.0510 -0.0366
12206TIP3    H158109   1.563   4.238  14.481  0.4651 -0.1696  0.4883
12206TIP3    H258110   1.488   4.243  14.613 -0.0425 -0.0971  0.1993
12207TIP3   OH258111   6.163   0.611  13.704 -0.3534  0.3411 -0.3802
12207TIP3    H158112   6.211   0.693  13.707 -1.5307  1.0138  1.2886
12207TIP3    H258113   6.085   0.627  13.758 -0.9375 -1.6553 -0.5770
12208TIP3   OH258114   4.946   3.670   5.301 -0.2949 -0.1790 -1.1087
12208TIP3    H158115   5.034   3.673   5.262  0.9486 -0.5106  1.5187
12208TIP3    H258116   4.911   3.758   5.287  0.4366 -0.0476 -2.2059
12209TIP3   OH258117   3.757   4.590   5.918 -0.5782  0.1139  0.8387
12209TIP3    H158118   3.669   4.616   5.943 -0.4293 -1.1498  2.7494
12209TIP3    H258119   3.765   4.499   5.947  1.1278  0.0092  0.1194
12210TIP3   OH258120   3.488   0.332   4.459 -0.2210  0.0484  0.4075
12210TIP3    H158121   3.577   0.337   4.423 -0.1475 -0.8277  0.4751
12210TIP3    H258122   3.502   0.334   4.554 -0.2487 -0.5542  0.4234
12211TIP3   OH258123   4.152   0.263  16.679 -0.2681 -0.6207 -0.4250
12211TIP3    H158124   4.068   0.301  16.654 -0.7032 -1.2114  0.1352
12211TIP3    H258125   4.193   0.330  16.734  0.1618  0.1744 -1.7018
12212TIP3   OH258126   3.943   4.903  15.517 -0.2336  0.2111  0.5214
12212TIP3    H158127   3.966   4.855  15.437 -3.5780 -1.2998  0.4169
12212TIP3    H258128   4.005   4.871  15.582  0.0860 -1.3737 -0.5318
12213TIP3   OH258129   3.318   6.430  16.127 -0.8126 -0.4264  0.4688
12213TIP3    H158130   3.409   6.456  16.113 -1.2883  0.6594 -0.6989
12213TIP3    H258131   3.310   6.344  16.087  0.2134 -1.4589  2.4083
12214TIP3   OH258132   3.018   2.424   3.923 -0.5889 -0.0597 -0.0266
12214TIP3    H158133   2.999   2.456   4.011 -0.0908 -0.3746  0.1995
12214TIP3    H258134   3.048   2.501   3.875 -0.2284 -0.0213  0.2638
12215TIP3   OH258135   1.199   4.902  15.581 -0.0914  0.5249 -0.7628
12215TIP3    H158136   1.132   4.916  15.648 -0.9188 -0.2507 -1.4200
12215TIP3    H258137   1.220   4.809  15.587  1.3981  0.8835 -0.1381
12216TIP3   OH258138   1.625   3.255  14.507 -0.5369  0.0821 -0.1998
12216TIP3    H158139   1.605   3.334  14.556 -2.3010 -0.2427 -0.3658
12216TIP3    H258140   1.694   3.212  14.557 -2.0785 -0.0732  1.8340
12217TIP3   OH258141   2.694   6.754   0.012  0.0479 -0.6629  0.1596
12217TIP3    H158142   2.710   6.661  -0.004 -1.2422 -0.8237 -0.2659
12217TIP3    H258143   2.656   6.786  -0.069  0.1392  0.1624  0.4362
12218TIP3   OH258144   6.667   5.912  15.258 -0.0373  0.3325 -0.0794
12218TIP3    H158145   6.632   6.000  15.268  2.8352  1.4185  0.9444
12218TIP3    H258146   6.705   5.912  15.170  2.6856  1.1638  1.0587
12219TIP3   OH258147   2.504   4.343  11.300 -0.1164  0.0556 -0.3312
12219TIP3    H158148   2.448   4.265  11.303 -2.5692  1.7952  0.7792
12219TIP3    H258149   2.526   4.353  11.208 -2.5344 -0.0610 -0.9415
12220TIP3   OH258150   2.301   1.187  13.718  0.2146  0.7260  0.0581
12220TIP3    H158151   2.242   1.233  13.658 -0.8976 -0.0086  0.5764
12220TIP3    H258152   2.244   1.155  13.787  1.5621  2.1154  1.8652
12221TIP3   OH258153   0.711   0.476  15.990  0.1895  0.3156  0.4657
12221TIP3    H158154   0.754   0.562  15.988 -1.2414  1.0616  1.0212
12221TIP3    H258155   0.622   0.493  15.960 -0.2566 -0.8940  1.0760
12222TIP3   OH258156   2.587   2.059   3.660 -0.2019 -0.3668 -0.1914
12222TIP3    H158157   2.564   2.152   3.657 -2.0368 -0.7576  1.0313
12222TIP3    H258158   2.660   2.054   3.722 -0.5713  0.1683  0.2877
12223TIP3   OH258159   0.059   2.024   2.533  0.0346 -0.3668 -0.3290
12223TIP3    H158160   0.051   2.106   2.582  1.4572 -0.3366 -0.1347
12223TIP3    H258161   0.080   1.958   2.600 -1.3780 -0.9502 -0.4460
12224TIP3   OH258162   3.596   4.188   0.539  0.3462 -0.3236 -0.5759
12224TIP3    H158163   3.508   4.167   0.509 -0.3355  1.1988  0.3174
12224TIP3    H258164   3.591   4.186   0.634  1.2506 -0.1239 -0.5109
12225TIP3   OH258165   5.834   5.639   2.953 -0.8754  0.2588  0.3584
12225TIP3    H158166   5.913   5.683   2.921 -1.5628  0.6223 -0.8792
12225TIP3    H258167   5.789   5.706   3.004 -0.5286  0.1326  0.8366
12226TIP3   OH258168   1.857   2.130  14.551 -0.0390  0.2446 -0.2145
12226TIP3    H158169   1.818   2.089  14.628 -1.2572  2.2138  0.2496
12226TIP3    H258170   1.844   2.224  14.565 -0.3873  0.6203 -2.8832
12227TIP3   OH258171   4.745   5.820  12.220  0.1201 -0.1462 -0.1012
12227TIP3    H158172   4.660   5.852  12.253  0.2393  0.0423  0.0250
12227TIP3    H258173   4.726   5.733  12.185 -0.2094  0.0599 -0.4381
12228TIP3   OH258174   5.426   5.992   3.628 -0.1857  0.5645  1.2259
12228TIP3    H158175   5.520   5.978   3.633 -0.2304 -0.2183  0.0492
12228TIP3    H258176   5.412   6.079   3.666  0.9011  0.3242  2.2215
12229TIP3   OH258177   0.771   1.934   5.040  0.3083 -0.2106  0.1694
12229TIP3    H158178   0.752   1.864   5.103  0.3966 -0.1966  0.2111
12229TIP3    H258179   0.753   2.014   5.088  1.2519 -0.1734  0.4626
12230TIP3   OH258180   5.837   5.756  11.090  0.7385  0.1473  0.2421
12230TIP3    H158181   5.923   5.750  11.133  0.0749  0.4403  1.6244
12230TIP3    H258182   5.779   5.790  11.158 -0.5338 -0.3042 -0.6199
12231TIP3   OH258183   0.969   4.379  15.715 -0.4508 -0.4894  0.0093
12231TIP3    H158184   0.940   4.470  15.705 -0.9405 -0.4937  1.2634
12231TIP3    H258185   1.011   4.358  15.632 -1.1960  0.5724 -0.6567
12232TIP3   OH258186   1.451   5.684  15.681  0.1263  0.1056 -0.1501
12232TIP3    H158187   1.455   5.649  15.770 -0.5118  0.7060  0.1213
12232TIP3    H258188   1.470   5.778  15.691 -3.2988  0.8521 -0.2028
12233TIP3   OH258189   4.428   3.811  15.354  0.0012 -0.2449 -0.3829
12233TIP3    H158190   4.350   3.866  15.349  0.5980  0.8252  1.4322
12233TIP3    H258191   4.436   3.789  15.447  0.7109 -2.0583 -0.8475
12234TIP3   OH258192   0.269   1.066  13.394  0.6877  0.1602 -0.1154
12234TIP3    H158193   0.314   1.019  13.324 -0.3697 -0.0621 -0.6589
12234TIP3    H258194   0.329   1.062  13.468  2.4479  1.6041 -1.4080
12235TIP3   OH258195   4.994   2.446   3.141  0.1184  0.4492 -0.2335
12235TIP3    H158196   4.961   2.397   3.065  0.4150 -0.7970  0.4280
12235TIP3    H258197   5.087   2.422   3.146 -0.2280 -0.6178  1.3787
12236TIP3   OH258198   0.822   5.819  15.720 -0.0841  0.1039 -0.3039
12236TIP3    H158199   0.911   5.853  15.711  0.8078 -2.2530 -0.6556
12236TIP3    H258200   0.787   5.818  15.631 -0.2406  0.4240 -0.2467
12237TIP3   OH258201   1.539   5.954  15.738  0.3319  0.3431 -0.2158
12237TIP3    H158202   1.563   6.008  15.813  2.6762 -0.8638 -0.0296
12237TIP3    H258203   1.572   6.002  15.662 -0.0160  0.4758 -0.2839
12238TIP3   OH258204   6.423   5.759   1.156 -0.1065  0.3830  0.1835
12238TIP3    H158205   6.366   5.722   1.224 -0.6875  0.6161 -0.1672
12238TIP3    H258206   6.363   5.808   1.099  0.4271  0.4909 -0.2895
12239TIP3   OH258207   6.057   1.935  14.926 -0.4477 -0.2433  0.0538
12239TIP3    H158208   5.967   1.942  14.893 -0.1684  0.8131 -0.4806
12239TIP3    H258209   6.053   1.863  14.989 -1.2124 -1.6469 -1.5431
12240TIP3   OH258210   0.760   4.198  14.577 -0.2658 -0.1207  0.4943
12240TIP3    H158211   0.731   4.252  14.504 -1.0537 -0.5993  0.4443
12240TIP3    H258212   0.712   4.116  14.566  1.6250 -1.1907  0.0208
12241TIP3   OH258213   0.203   1.777  16.925 -0.3537  0.2221  0.1903
12241TIP3    H158214   0.222   1.864  16.959  0.3530 -0.3799  1.3638
12241TIP3    H258215   0.274   1.760  16.863 -1.7146  1.3712 -1.7429
12242TIP3   OH258216   3.507   2.144   3.041 -0.4532  0.2732 -0.4762
12242TIP3    H158217   3.422   2.156   2.999 -1.1768  1.0858  1.1770
12242TIP3    H258218   3.563   2.108   2.972 -1.6071  1.5670 -2.1358
12243TIP3   OH258219   4.958   4.169  16.702  0.0823  0.3493 -0.0064
12243TIP3    H158220   4.960   4.264  16.696 -0.9227  0.2535 -2.6098
12243TIP3    H258221   4.986   4.139  16.615  0.0073 -1.7343  0.6564
12244TIP3   OH258222   2.770   3.387  14.999 -0.2743 -1.0676 -0.4914
12244TIP3    H158223   2.779   3.442  15.076 -0.3267 -1.7973  0.0357
12244TIP3    H258224   2.803   3.442  14.927  0.7335 -0.7472  0.1965
12245TIP3   OH258225   6.472   4.167  16.861  0.1846 -0.0228 -0.6846
12245TIP3    H158226   6.420   4.107  16.807  1.1501  1.3425 -3.2054
12245TIP3    H258227   6.438   4.155  16.949 -1.7204 -2.0310 -1.6352
12246TIP3   OH258228   0.125   0.281  12.745 -0.4447 -0.1382  1.2458
12246TIP3    H158229   0.203   0.259  12.796  0.3556  1.4477  0.7373
12246TIP3    H258230   0.155   0.281  12.654 -0.6989  1.7442  1.1414
12247TIP3   OH258231   3.124   3.854  15.633  0.1308 -0.1014  0.6730
12247TIP3    H158232   3.085   3.936  15.663  0.5606  0.3741 -0.0769
12247TIP3    H258233   3.192   3.880  15.571  1.0933 -0.9713  1.3579
12248TIP3   OH258234   2.803   0.809  14.676 -0.0247 -0.1032  0.1751
12248TIP3    H158235   2.723   0.763  14.703  0.6562 -0.7655  1.0990
12248TIP3    H258236   2.858   0.741  14.637  0.4543  0.1859  0.3474
12249TIP3   OH258237   6.469   3.044  13.819 -0.0464 -0.1876  0.2815
12249TIP3    H158238   6.525   3.051  13.896  0.0467 -0.1125  0.2087
12249TIP3    H258239   6.440   3.134  13.802 -1.2900 -0.4113  1.1230
12250TIP3   OH258240   4.115   4.964   5.218 -0.3279 -0.3368  0.1321
12250TIP3    H158241   4.203   4.974   5.183 -0.4678 -2.1693 -0.7836
12250TIP3    H258242   4.060   4.946   5.142 -1.3730  0.0268  0.7797
12251TIP3   OH258243   3.306   4.373  17.073 -0.1911  0.1695 -0.4676
12251TIP3    H158244   3.267   4.348  16.989  1.1307 -1.5314 -0.6049
12251TIP3    H258245   3.285   4.300  17.132  1.1704  0.0962 -0.0497
12252TIP3   OH258246   6.112   0.040  13.814 -0.2163  0.4891  0.1266
12252TIP3    H158247   6.175   0.007  13.879  0.0580  1.6167  0.4413
12252TIP3    H258248   6.140   0.001  13.731  1.7226  2.0189  0.0163
12253TIP3   OH258249   5.349   2.383   2.159  0.3959 -0.5605  0.4095
12253TIP3    H158250   5.324   2.294   2.183  0.1792 -0.6059  0.0175
12253TIP3    H258251   5.267   2.426   2.135  0.8402 -1.1927 -2.4433
12254TIP3   OH258252   5.988   1.523   1.320 -0.8979  0.1395 -0.6667
12254TIP3    H158253   5.974   1.576   1.242 -0.3786  1.9324  0.4510
12254TIP3    H258254   5.905   1.528   1.367 -0.7548  0.1751 -0.4192
12255TIP3   OH258255   5.359   6.307  14.735  0.1132 -0.4234 -0.2249
12255TIP3    H158256   5.436   6.364  14.728 -0.4748  0.6866  1.7076
12255TIP3    H258257   5.302   6.352  14.797 -1.4003 -2.0179 -0.4129
12256TIP3   OH258258   0.961   6.255   3.086 -0.1617  0.5043 -0.1834
12256TIP3    H158259   0.953   6.166   3.049  2.0681  0.4201 -0.5329
12256TIP3    H258260   0.910   6.310   3.026 -2.2106 -0.6240  0.4637
12257TIP3   OH258261   0.735   2.588  12.049 -0.5940  0.1932  0.4218
12257TIP3    H158262   0.803   2.565  12.113 -0.9111  0.0463  0.7056
12257TIP3    H258263   0.654   2.554  12.087 -0.5361 -1.5184 -0.9089
12258TIP3   OH258264   0.042   6.371  13.797 -0.0699  0.3275  0.1328
12258TIP3    H158265   0.096   6.425  13.738 -1.4861  4.0952  2.1360
12258TIP3    H258266  -0.013   6.320  13.738  0.9227  1.4838 -1.8565
12259TIP3   OH258267   1.940   4.652  13.335  0.4904  0.1094 -0.0156
12259TIP3    H158268   2.002   4.618  13.270  1.6168  0.4526  0.8674
12259TIP3    H258269   1.867   4.590  13.333  1.1269 -0.6310 -0.6325
12260TIP3   OH258270   0.249   1.654  14.040  0.0950 -0.2144  0.0863
12260TIP3    H158271   0.199   1.574  14.022 -0.6217  0.3867 -0.6644
12260TIP3    H258272   0.210   1.689  14.121  0.7846 -0.9079  0.7310
12261TIP3   OH258273   0.724   4.564   6.697  0.5095 -0.0712  0.1911
12261TIP3    H158274   0.717   4.633   6.763  0.5158  0.6514 -0.5561
12261TIP3    H258275   0.635   4.533   6.685  0.5729 -0.5392  0.8848
12262TIP3   OH258276   0.052   5.137  15.485  0.2983  0.5397 -0.7534
12262TIP3    H158277   0.028   5.137  15.393  2.9976 -0.0307 -1.4936
12262TIP3    H258278   0.078   5.228  15.503  0.8922  0.3914 -0.8615
12263TIP3   OH258279   4.181   2.682   3.960 -0.2396 -0.0674 -0.7712
12263TIP3    H158280   4.247   2.663   4.027 -2.6520 -1.2240  1.3690
12263TIP3    H258281   4.187   2.777   3.947  0.7726  0.0646  0.5347
12264TIP3   OH258282   1.371   5.424   5.563 -0.0928 -0.2010  0.5763
12264TIP3    H158283   1.376   5.491   5.495 -0.1255  0.9054  1.6400
12264TIP3    H258284   1.279   5.422   5.588 -0.3708 -1.7542 -0.5245
12265TIP3   OH258285   0.574   2.003   1.246  0.1727 -0.0885 -0.0788
12265TIP3    H158286   0.485   2.024   1.277 -0.1854 -1.1865 -0.3445
12265TIP3    H258287   0.591   2.067   1.178  0.1389  1.0238  0.9344
12266TIP3   OH258288   2.269   0.789   0.390 -0.2915 -0.4814 -0.6537
12266TIP3    H158289   2.310   0.778   0.476  1.7615  0.3095 -1.5014
12266TIP3    H258290   2.202   0.856   0.404 -0.2736 -0.6761  0.4319
12267TIP3   OH258291   5.960   0.474   2.231  0.0566  1.0765  0.4001
12267TIP3    H158292   5.881   0.521   2.257  0.2982  1.2676  0.8015
12267TIP3    H258293   6.017   0.479   2.308 -0.5368 -1.2185  1.0479
12268TIP3   OH258294   0.539   6.599   5.587 -0.3842  0.4627 -0.0018
12268TIP3    H158295   0.546   6.687   5.624  3.9607 -0.2564  1.2897
12268TIP3    H258296   0.557   6.541   5.661 -0.6880 -1.4011 -1.3470
12269TIP3   OH258297   2.961   1.421   4.504  0.2778 -0.1091 -0.2065
12269TIP3    H158298   2.951   1.389   4.594  2.7145 -0.1021  0.1021
12269TIP3    H258299   2.959   1.517   4.512  2.0452 -0.0670  0.0948
12270TIP3   OH258300   4.388   4.432  15.461 -0.1526 -0.0191 -0.1610
12270TIP3    H158301   4.476   4.425  15.497  0.0800 -0.8261 -0.8634
12270TIP3    H258302   4.400   4.425  15.366 -0.9482  0.0889 -0.2748
12271TIP3   OH258303   6.649   0.384  13.490 -0.5929 -0.4586  0.2412
12271TIP3    H158304   6.563   0.405  13.455 -0.1618 -0.8759 -1.1325
12271TIP3    H258305   6.709   0.444  13.445 -0.0171 -1.0247  0.2329
12272TIP3   OH258306   0.719   3.067  10.863 -0.3565  0.3465 -0.1010
12272TIP3    H158307   0.625   3.054  10.851  0.0387 -2.9680 -0.2047
12272TIP3    H258308   0.759   3.003  10.804  1.9495  1.0817  0.6350
12273TIP3   OH258309   1.324   6.174  16.736  0.1248 -0.0966  0.1168
12273TIP3    H158310   1.396   6.216  16.784 -0.0272  0.1070  0.1724
12273TIP3    H258311   1.245   6.214  16.773 -0.0709 -1.2124  0.9173
12274TIP3   OH258312   4.564   2.041  11.057 -0.1846 -0.2859  0.3546
12274TIP3    H158313   4.494   1.991  11.017  1.9972 -1.0565 -2.7063
12274TIP3    H258314   4.538   2.133  11.045 -0.5082 -0.5540 -1.1347
12275TIP3   OH258315   1.491   4.462   1.301 -0.1386  0.1777  0.0597
12275TIP3    H158316   1.511   4.548   1.336 -0.5163  0.2108  0.2006
12275TIP3    H258317   1.433   4.422   1.366  1.9390 -1.1203  1.1513
12276TIP3   OH258318   2.753   5.427   5.850 -0.1746  0.6195  0.0148
12276TIP3    H158319   2.846   5.451   5.854 -0.3976  1.4363  0.4190
12276TIP3    H258320   2.720   5.441   5.938 -1.5282  3.8552 -0.9330
12277TIP3   OH258321   6.473   6.157   3.325  0.7023  0.6268  0.2322
12277TIP3    H158322   6.401   6.216   3.346 -0.2881 -0.9590  1.3671
12277TIP3    H258323   6.551   6.211   3.332 -0.3651  2.3768 -1.0363
12278TIP3   OH258324   1.219   6.336  13.186 -0.1922 -0.3262 -0.3576
12278TIP3    H158325   1.139   6.337  13.238 -1.0823  0.8604 -1.7249
12278TIP3    H258326   1.287   6.309  13.248 -1.6140 -1.2476  0.8329
12279TIP3   OH258327   2.100   3.448   1.639  0.2707 -0.4920  0.0970
12279TIP3    H158328   2.025   3.489   1.597  0.5183  0.3074  0.4203
12279TIP3    H258329   2.144   3.400   1.569 -0.1820 -0.4319 -0.2272
12280TIP3   OH258330   0.918   2.897   2.406  0.2346 -0.2800  0.7186
12280TIP3    H158331   0.905   2.942   2.490 -0.1378 -1.6627  1.4154
12280TIP3    H258332   0.851   2.829   2.404  0.8713 -0.8941 -0.2580
12281TIP3   OH258333   4.442   1.967   6.403 -0.2492 -0.2271  0.0624
12281TIP3    H158334   4.531   1.934   6.411 -0.9866 -1.7375  2.2791
12281TIP3    H258335   4.388   1.889   6.391 -1.4153  0.5924 -0.1402
12282TIP3   OH258336   4.060   3.153  17.255  0.0239 -0.1923 -0.1764
12282TIP3    H158337   4.138   3.122  17.209 -0.2429  0.2530 -0.9254
12282TIP3    H258338   4.087   3.236  17.294  0.0571 -0.2649 -0.0427
12283TIP3   OH258339   1.678   1.601   0.978 -0.3667 -0.1462 -0.4942
12283TIP3    H158340   1.755   1.636   0.933 -0.1329  1.2133  0.9044
12283TIP3    H258341   1.612   1.593   0.910  0.3138  0.8220 -1.2911
12284TIP3   OH258342   6.001   0.204   3.496 -0.1166 -0.3011  0.2600
12284TIP3    H158343   6.070   0.243   3.442 -2.4291  0.2417 -2.3790
12284TIP3    H258344   5.961   0.278   3.541  0.0546 -0.4607  0.6803
12285TIP3   OH258345   4.865   2.021  15.231  0.4560  0.2168 -0.5434
12285TIP3    H158346   4.886   1.976  15.313  1.5216  0.7896 -0.4956
12285TIP3    H258347   4.783   2.067  15.250  0.5436  0.1139  0.1092
12286TIP3   OH258348   5.759   3.990   4.878 -0.1131 -0.4150 -0.5488
12286TIP3    H158349   5.811   3.910   4.887  2.2261  1.1782  0.9195
12286TIP3    H258350   5.793   4.031   4.798 -0.9783 -0.6745 -1.0457
12287TIP3   OH258351   3.789   2.266  16.967 -0.1397 -0.0945 -0.7324
12287TIP3    H158352   3.707   2.217  16.973 -0.1964  0.2363  1.9047
12287TIP3    H258353   3.850   2.204  16.927 -0.8329 -1.5258  0.3438
12288TIP3   OH258354   5.544   5.692  15.070 -0.0849 -0.3064 -0.9608
12288TIP3    H158355   5.570   5.680  15.161 -2.3909  2.2709  0.0880
12288TIP3    H258356   5.534   5.603  15.036  0.3350 -1.3008  1.4459
12289TIP3   OH258357   4.690   2.819   5.518  0.5846 -0.3827 -0.3887
12289TIP3    H158358   4.701   2.831   5.424 -0.0041 -2.6069 -0.7696
12289TIP3    H258359   4.776   2.839   5.555  1.3254 -1.2913 -1.5921
12290TIP3   OH258360   3.185   6.489  14.539 -0.1494 -0.1192 -0.0369
12290TIP3    H158361   3.254   6.422  14.539  1.4228  1.4231  2.1270
12290TIP3    H258362   3.192   6.530  14.625 -3.1679  0.7356 -0.1660
12291TIP3   OH258363   1.708   2.421   4.117 -0.1949  0.1546 -0.4541
12291TIP3    H158364   1.719   2.334   4.079 -0.6730 -0.8896  1.7337
12291TIP3    H258365   1.615   2.427   4.138 -0.7742  2.4070 -3.3472
12292TIP3   OH258366   6.028   0.728  13.370  0.1524 -0.5722  0.2832
12292TIP3    H158367   6.031   0.812  13.416  2.6137 -1.6372  2.1513
12292TIP3    H258368   5.958   0.680  13.414  0.3872 -0.4188  0.8264
12293TIP3   OH258369   0.153   6.500   1.877 -0.1584 -0.1476  0.3749
12293TIP3    H158370   0.183   6.534   1.793  1.4870 -1.3650  0.4579
12293TIP3    H258371   0.224   6.519   1.938 -0.5883 -0.8639  1.1158
12294TIP3   OH258372   2.396   3.276   5.971 -0.5531 -0.9120 -0.3398
12294TIP3    H158373   2.392   3.277   6.067  0.2123 -0.5429 -0.3056
12294TIP3    H258374   2.401   3.368   5.947 -1.1991 -0.9885 -0.7570
12295TIP3   OH258375   4.296   1.798  16.009 -0.6105  0.5213  0.1375
12295TIP3    H158376   4.378   1.791  15.960 -1.3513 -3.4571 -0.6839
12295TIP3    H258377   4.231   1.755  15.954 -2.5232  0.5695  2.2969
12296TIP3   OH258378   3.834   0.983  15.416  0.1527 -0.2039  0.1162
12296TIP3    H158379   3.907   0.979  15.478 -0.2434  1.6585  0.7310
12296TIP3    H258380   3.771   0.919  15.448  0.0045  0.6574  1.5727
12297TIP3   OH258381   3.656   4.421  16.339  0.2415 -0.3944  0.4545
12297TIP3    H158382   3.645   4.471  16.420  1.1743  0.5686  0.0008
12297TIP3    H258383   3.596   4.461  16.277  1.9915  1.0877 -0.3178
12298TIP3   OH258384   0.012   6.208   2.597 -0.3598 -0.0782 -0.3381
12298TIP3    H158385   0.032   6.283   2.541  0.3250 -0.2540 -0.3405
12298TIP3    H258386  -0.083   6.202   2.597 -0.3794  0.1751 -1.1565
12299TIP3   OH258387   1.501   5.665  14.048 -0.5734 -0.3613  0.0414
12299TIP3    H158388   1.546   5.648  13.966 -1.0050 -0.8829 -0.0914
12299TIP3    H258389   1.539   5.602  14.110 -0.6832 -0.3859  0.0849
12300TIP3   OH258390   2.868   0.823  11.832 -0.2661 -0.7195 -0.1451
12300TIP3    H158391   2.902   0.799  11.745  0.1761  0.5815 -0.3286
12300TIP3    H258392   2.794   0.763  11.844  0.1728 -1.4823 -1.0565
12301TIP3   OH258393   3.310   0.266   4.005 -0.1482 -0.3914  0.3657
12301TIP3    H158394   3.391   0.216   4.001  2.0306  2.7640  2.4435
12301TIP3    H258395   3.305   0.311   3.921  1.6605  1.3528  1.1433
12302TIP3   OH258396   0.125   4.061   5.339 -0.4788 -0.1227 -0.6710
12302TIP3    H158397   0.113   4.139   5.393 -1.2947  0.7659 -2.0885
12302TIP3    H258398   0.044   4.055   5.288  0.2878 -0.9041 -1.8207
12303TIP3   OH258399   4.099   4.507   2.686  0.0515 -0.2643 -0.1220
12303TIP3    H158400   4.077   4.584   2.740  1.9260  1.2558 -1.4561
12303TIP3    H258401   4.015   4.472   2.658 -0.8315  1.6754  0.0324
12304TIP3   OH258402   3.362   2.969  16.321 -0.4708 -0.1834 -0.1792
12304TIP3    H158403   3.333   3.001  16.235  0.1835 -1.0895 -0.7518
12304TIP3    H258404   3.369   2.874  16.310  0.4984 -0.2149  0.6084
12305TIP3   OH258405   5.087   1.157   5.408 -0.2037  0.2375 -0.1049
12305TIP3    H158406   5.157   1.172   5.472 -0.7284 -2.6027  1.1886
12305TIP3    H258407   5.128   1.105   5.339 -0.2016  1.4421 -1.0235
12306TIP3   OH258408   1.585   6.270  15.628 -0.1581 -0.2501 -0.2662
12306TIP3    H158409   1.542   6.280  15.713  0.2067 -0.9866  0.0056
12306TIP3    H258410   1.514   6.249  15.567 -0.3018 -0.5792  0.0159
12307TIP3   OH258411   3.103   5.700   4.219  0.4879  0.9431  0.4747
12307TIP3    H158412   3.065   5.786   4.199  0.7079  0.8376 -0.4030
12307TIP3    H258413   3.038   5.637   4.188  0.6463  0.7788  0.4775
12308TIP3   OH258414   1.298   4.026   0.345 -0.7021 -0.0927  0.0502
12308TIP3    H158415   1.292   3.976   0.426  2.0584 -1.0573 -0.2745
12308TIP3    H258416   1.255   4.109   0.364 -1.2819 -0.8297  2.0711
12309TIP3   OH258417   2.740   4.590  15.325 -0.5790 -0.0042  0.4083
12309TIP3    H158418   2.830   4.558  15.316 -0.7402 -0.2684 -0.3057
12309TIP3    H258419   2.687   4.511  15.334 -0.8824  0.0813 -0.5196
12310TIP3   OH258420   2.315   5.195   2.910 -0.8169  0.0587  0.0531
12310TIP3    H158421   2.358   5.278   2.928  0.8747 -1.3514  2.9375
12310TIP3    H258422   2.222   5.212   2.928 -0.3094  1.0149  1.8862
12311TIP3   OH258423   4.683   3.405  14.773  0.2052  0.0855  0.1523
12311TIP3    H158424   4.587   3.402  14.767  0.2384  0.7493 -0.8309
12311TIP3    H258425   4.704   3.498  14.781  0.8249  0.0400 -0.8165
12312TIP3   OH258426   3.256   4.049  12.583  0.0887  0.2068  0.0319
12312TIP3    H158427   3.220   4.120  12.636 -2.2614  0.4230 -1.8049
12312TIP3    H258428   3.198   4.043  12.507  1.8183 -1.8962 -1.1829
12313TIP3   OH258429   4.510   0.137   1.028 -0.5083 -0.0290 -0.0879
12313TIP3    H158430   4.516   0.232   1.029  1.0277 -0.0360 -3.1333
12313TIP3    H258431   4.421   0.118   1.060  0.0196  2.2452  2.9256
12314TIP3   OH258432   4.821   6.293   0.082 -0.5385 -0.1462 -0.3019
12314TIP3    H158433   4.817   6.296  -0.013  0.8385  1.1990 -0.3289
12314TIP3    H258434   4.820   6.384   0.110 -0.8159 -0.5219  0.9645
12315TIP3   OH258435   4.958   0.525  16.785 -0.4437  0.5727  0.1979
12315TIP3    H158436   4.949   0.591  16.853  2.1226  0.7558  0.3912
12315TIP3    H258437   5.046   0.539  16.749 -0.6915 -1.3452 -1.2263
12316TIP3   OH258438   5.102   4.922   2.702  0.1627  0.0231 -0.5969
12316TIP3    H158439   5.089   5.013   2.729  3.3072  0.4665 -0.3636
12316TIP3    H258440   5.097   4.925   2.607 -0.0534  0.3987 -0.5757
12317TIP3   OH258441   2.647   0.610  16.865  0.1618 -0.9012 -0.3711
12317TIP3    H158442   2.555   0.589  16.852 -0.1242  0.8475 -1.3480
12317TIP3    H258443   2.692   0.525  16.867 -1.8549 -1.9994  3.5010
12318TIP3   OH258444   4.129   5.710  16.639 -0.1121 -0.3579  0.4407
12318TIP3    H158445   4.041   5.673  16.644 -0.1633 -0.6100 -1.9867
12318TIP3    H258446   4.179   5.649  16.585  0.9137  1.0002 -0.1954
12319TIP3   OH258447   3.545   4.714   4.376  0.2653 -0.4363 -0.3881
12319TIP3    H158448   3.549   4.718   4.280  2.4573 -3.0457 -0.4787
12319TIP3    H258449   3.632   4.742   4.405 -0.2328 -0.1124  0.8177
12320TIP3   OH258450   4.836   3.014  16.998 -0.1810 -0.1374  0.8246
12320TIP3    H158451   4.927   2.987  16.994 -0.1701 -0.0006 -0.0121
12320TIP3    H258452   4.826   3.054  17.084  0.6223  0.1007  0.8092
12321TIP3   OH258453   5.981   2.755   4.288 -0.7325 -0.4207 -0.1456
12321TIP3    H158454   5.981   2.833   4.234  1.3504  2.4441  3.7337
12321TIP3    H258455   5.899   2.759   4.337 -1.5609 -1.8042 -1.3657
12322TIP3   OH258456   2.895   2.470  15.319 -0.3910  0.0179 -0.0874
12322TIP3    H158457   2.920   2.472  15.226  1.8346  2.5683  0.5004
12322TIP3    H258458   2.838   2.546  15.330 -1.3473 -0.7683  0.4800
12323TIP3   OH258459   6.271   2.398   4.543 -0.2419  0.0594 -0.0705
12323TIP3    H158460   6.268   2.452   4.465  0.0251 -0.7028 -0.6196
12323TIP3    H258461   6.359   2.413   4.579 -0.2997  0.2703 -0.0189
12324TIP3   OH258462   6.255   5.746  14.975 -0.0043  0.4779  0.0588
12324TIP3    H158463   6.305   5.823  14.947 -0.1270  0.7242  0.5133
12324TIP3    H258464   6.202   5.724  14.899  2.3014 -1.0457 -1.1606
12325TIP3   OH258465   1.255   4.123   0.721  0.1662 -0.6002  0.6345
12325TIP3    H158466   1.261   4.037   0.679 -0.7968 -0.0156 -0.7459
12325TIP3    H258467   1.320   4.176   0.676  0.4721 -0.4863  1.2075
12326TIP3   OH258468   1.658   0.121   5.085  0.0586  0.0097 -0.3867
12326TIP3    H158469   1.614   0.148   5.166  0.1924 -1.2656  0.1295
12326TIP3    H258470   1.710   0.197   5.059 -1.9842  1.3540 -0.6922
12327TIP3   OH258471   0.614   5.435  14.139  0.3991 -0.1253 -0.7054
12327TIP3    H158472   0.613   5.501  14.070  1.2506  0.7248  0.0793
12327TIP3    H258473   0.522   5.417  14.156  0.1002  2.0549  0.1956
12328TIP3   OH258474   4.190   4.722  13.067  0.0600  0.3668  0.0797
12328TIP3    H158475   4.206   4.628  13.065 -0.0347  0.3529 -0.0703
12328TIP3    H258476   4.261   4.758  13.120  0.5575  0.2983 -0.5428
12329TIP3   OH258477   1.275   0.842  16.805 -0.2366 -0.0067 -0.6117
12329TIP3    H158478   1.281   0.909  16.737  0.5682  1.2706  0.6857
12329TIP3    H258479   1.220   0.881  16.873  1.3710 -0.1144  0.7722
12330TIP3   OH258480   1.724   6.732  12.907  0.1811  0.1804 -0.0310
12330TIP3    H158481   1.778   6.749  12.830  0.9393 -1.0473  0.2160
12330TIP3    H258482   1.774   6.769  12.980  0.6767 -0.9059  0.1910
12331TIP3   OH258483   2.298   5.495  15.935 -0.0746  0.3673 -0.0868
12331TIP3    H158484   2.212   5.481  15.897  0.3405 -0.3654 -0.7774
12331TIP3    H258485   2.306   5.428  16.003 -1.0208  2.0005  1.6754
12332TIP3   OH258486   0.312   4.576   2.368 -0.7941  0.2624 -0.0463
12332TIP3    H158487   0.263   4.598   2.447 -1.0769  0.3829 -0.2513
12332TIP3    H258488   0.246   4.580   2.298 -0.1560  2.0963 -0.5672
12333TIP3   OH258489   1.405   4.038   1.428  0.0503 -0.1893 -0.3602
12333TIP3    H158490   1.343   4.110   1.417  0.9858  0.6251 -0.3715
12333TIP3    H258491   1.441   4.024   1.340 -0.0576 -0.6062 -0.3398
12334TIP3   OH258492   1.631   3.134  16.512  0.4670 -0.0617 -0.2926
12334TIP3    H158493   1.558   3.192  16.534  0.3326 -0.0362 -0.8188
12334TIP3    H258494   1.671   3.114  16.597  0.0830  0.2276 -0.0414
12335TIP3   OH258495   4.130   2.888  15.787  0.2098 -0.7271 -0.0566
12335TIP3    H158496   4.195   2.912  15.721 -0.0321 -0.1527 -0.0895
12335TIP3    H258497   4.068   2.962  15.787  0.0980 -0.8216  0.6613
12336TIP3   OH258498   0.938   4.672   3.891 -0.6588  0.3936  0.0412
12336TIP3    H158499   0.907   4.740   3.950 -0.3081 -0.5756  1.3652
12336TIP3    H258500   0.861   4.617   3.875  0.1176 -1.5336  2.6638
12337TIP3   OH258501   5.177   2.154  14.977  0.3048  0.3406  0.2114
12337TIP3    H158502   5.236   2.215  15.021  2.2048 -0.8301 -0.7037
12337TIP3    H258503   5.174   2.077  15.034  1.8651 -0.7157 -1.0902
12338TIP3   OH258504   5.845   2.739   3.640  0.4109  0.2406  0.1617
12338TIP3    H158505   5.844   2.761   3.733 -0.4026 -0.1418  0.2424
12338TIP3    H258506   5.918   2.790   3.604  1.2122 -0.1945  1.1540
12339TIP3   OH258507   3.547   5.254   4.920 -0.4562 -0.1696 -0.3171
12339TIP3    H158508   3.509   5.209   4.843  0.4177 -0.9568 -0.3000
12339TIP3    H258509   3.474   5.303   4.957 -0.9813 -0.0721 -1.4444
12340TIP3   OH258510   1.734   1.668   5.282 -0.2214  0.0265 -0.3656
12340TIP3    H158511   1.733   1.748   5.230  0.3112 -0.1001 -0.5753
12340TIP3    H258512   1.823   1.635   5.274  0.5487  1.2208  2.5029
12341TIP3   OH258513   6.285   3.335  14.642  1.0625 -0.5963  0.6217
12341TIP3    H158514   6.248   3.422  14.653  0.6828 -0.6122 -0.4342
12341TIP3    H258515   6.377   3.344  14.667  1.8882  0.9163 -2.6557
12342TIP3   OH258516   4.298   5.279   3.677  0.5083  0.5279 -0.2559
12342TIP3    H158517   4.366   5.333   3.636  1.9534 -1.1698 -0.1338
12342TIP3    H258518   4.322   5.189   3.655 -1.0289 -0.1690  0.8217
12343TIP3   OH258519   1.884   0.975  17.179 -0.0216  0.3230  0.2299
12343TIP3    H158520   1.978   0.959  17.179  0.0198  0.4008 -2.4209
12343TIP3    H258521   1.845   0.891  17.158 -0.3958  0.8475 -1.2428
12344TIP3   OH258522   0.747   4.705  13.428  0.1604 -0.7312  0.4021
12344TIP3    H158523   0.779   4.639  13.489 -1.5440  0.1844  2.3174
12344TIP3    H258524   0.826   4.753  13.402  1.1732 -2.4202  0.2605
12345TIP3   OH258525   6.460   5.632  16.221  0.6605 -0.0223  0.3682
12345TIP3    H158526   6.376   5.673  16.203  0.8531  0.7121  1.1349
12345TIP3    H258527   6.499   5.619  16.135  0.0050  0.1445  0.0450
12346TIP3   OH258528   4.454   1.276   2.946  0.5965 -0.3472  0.0173
12346TIP3    H158529   4.484   1.194   2.907 -1.3560 -1.0612 -0.0461
12346TIP3    H258530   4.528   1.306   2.999  1.3255 -2.1761  0.0713
12347TIP3   OH258531   1.702   5.200  17.214  0.3282 -0.6953  0.4247
12347TIP3    H158532   1.670   5.113  17.189  1.6322 -0.9682 -0.3354
12347TIP3    H258533   1.710   5.196  17.309  0.0956 -1.3103  0.4191
12348TIP3   OH258534   3.558   5.707  13.309 -0.1696  0.0904 -0.0281
12348TIP3    H158535   3.475   5.676  13.344  0.2203 -1.6708 -0.6020
12348TIP3    H258536   3.614   5.716  13.386 -0.2003 -0.9698  0.1331
12349TIP3   OH258537   0.794   3.981  10.732 -0.2842 -0.3823  0.2866
12349TIP3    H158538   0.763   3.920  10.665 -2.3348 -1.0953  1.8332
12349TIP3    H258539   0.782   4.068  10.694 -0.3591 -0.8247 -0.7070
12350TIP3   OH258540   0.261   5.224   3.224 -0.0148 -0.7023  0.6500
12350TIP3    H158541   0.191   5.225   3.289 -1.5405  2.0828 -0.8962
12350TIP3    H258542   0.216   5.237   3.140  2.4087  3.3058 -0.2010
12351TIP3   OH258543   6.660   4.039   4.005  0.5007  0.4385 -0.5374
12351TIP3    H158544   6.648   4.123   3.960  0.4170  0.8750  0.3048
12351TIP3    H258545   6.577   3.992   3.990  0.1321  0.9424 -0.0703
12352TIP3   OH258546   3.848   1.908   3.275 -0.0365  0.0714 -0.0598
12352TIP3    H158547   3.872   1.862   3.195 -0.5097 -3.4102  1.7025
12352TIP3    H258548   3.754   1.923   3.267  0.1549  0.9665 -0.7264
12353TIP3   OH258549   5.484   4.882  15.702  0.0825 -0.3066 -0.1918
12353TIP3    H158550   5.416   4.878  15.769 -0.2149 -1.2424 -0.5402
12353TIP3    H258551   5.551   4.821  15.732  1.6182  1.9543  1.0590
12354TIP3   OH258552   6.379   5.457  11.027  0.2244  0.0679 -0.5648
12354TIP3    H158553   6.346   5.451  10.937  0.1405  2.9826 -0.7641
12354TIP3    H258554   6.302   5.442  11.082 -0.1537  0.3994 -0.9990
12355TIP3   OH258555   5.008   5.783   1.325  0.2833 -0.0076 -0.8515
12355TIP3    H158556   4.955   5.859   1.348 -1.3532 -1.2839 -0.3597
12355TIP3    H258557   5.098   5.812   1.340 -0.3397  1.7050 -0.2988
12356TIP3   OH258558   4.350   1.670  13.004  0.5061  0.6334 -0.3863
12356TIP3    H158559   4.304   1.722  13.071 -1.9311  0.0097 -1.5241
12356TIP3    H258560   4.341   1.579  13.034  1.7542  0.5597 -0.1981
12357TIP3   OH258561   3.994   2.739   0.245  0.1411 -0.5596  0.2241
12357TIP3    H158562   3.929   2.681   0.287  2.7378 -1.4631  3.1821
12357TIP3    H258563   3.957   2.827   0.255 -1.5046 -1.2129  0.1457
12358TIP3   OH258564   4.142   1.904   0.284 -0.0115 -0.5246 -0.4642
12358TIP3    H158565   4.100   1.925   0.368 -0.2736 -0.1567 -0.6856
12358TIP3    H258566   4.170   1.988   0.249 -0.3680 -0.6208 -0.9896
12359TIP3   OH258567   5.842   6.449  14.478 -0.0931  0.2753 -0.1126
12359TIP3    H158568   5.890   6.509  14.421  1.1382  0.8363  1.4572
12359TIP3    H258569   5.781   6.404  14.420  0.8513  1.1010 -1.7914
12360TIP3   OH258570   0.967   1.681  12.421  0.0752 -0.3284 -0.3372
12360TIP3    H158571   0.880   1.718  12.438  0.0542 -0.2615 -0.5875
12360TIP3    H258572   0.996   1.649  12.506  0.6474  1.4618  0.1746
12361TIP3   OH258573   5.764   6.662  16.407  0.1960  0.0305  0.0292
12361TIP3    H158574   5.736   6.684  16.319  0.4795  1.8427  0.3703
12361TIP3    H258575   5.849   6.619  16.395 -0.1646 -0.5139 -0.6213
12362TIP3   OH258576   1.251   6.322   0.265  0.5766  0.0091  0.3984
12362TIP3    H158577   1.228   6.235   0.298  1.5980 -0.5966 -0.4417
12362TIP3    H258578   1.332   6.308   0.216  0.1446  1.2256 -0.7061
12363TIP3   OH258579   4.574   3.973   1.375  0.2722  0.0279 -0.3962
12363TIP3    H158580   4.540   3.988   1.463 -2.0265  0.3735 -1.3139
12363TIP3    H258581   4.655   4.024   1.372  0.3001  0.1210  1.4646
12364TIP3   OH258582   0.766   1.290   5.757 -0.5509  0.6428  0.9113
12364TIP3    H158583   0.792   1.321   5.844  0.0983 -1.7928  1.6480
12364TIP3    H258584   0.728   1.203   5.773  0.4982 -0.2827 -1.3238
12365TIP3   OH258585   4.778   2.086  11.782 -0.1727 -0.0981 -0.1856
12365TIP3    H158586   4.809   2.079  11.691 -1.2995  2.3344 -0.8095
12365TIP3    H258587   4.805   2.174  11.809  1.5815 -1.4021  2.4187
12366TIP3   OH258588   5.003   1.831   5.025 -0.4365 -0.5973 -0.6265
12366TIP3    H158589   5.032   1.856   4.937 -1.3733 -0.2875 -0.8490
12366TIP3    H258590   5.021   1.908   5.079  1.6982 -1.3805 -0.1911
12367TIP3   OH258591   5.652   6.027  13.933  0.0892 -0.1914  0.5917
12367TIP3    H158592   5.699   5.945  13.920 -1.2989 -0.7850 -0.8584
12367TIP3    H258593   5.636   6.031  14.027  1.4104 -0.8691  0.8580
12368TIP3   OH258594   0.711   1.691   3.628  0.0712  1.0063 -0.9929
12368TIP3    H158595   0.714   1.615   3.569 -2.5303  0.2844 -0.2806
12368TIP3    H258596   0.638   1.743   3.595  0.6717  2.2551 -0.3542
12369TIP3   OH258597   2.013   4.628   1.195  0.2539  0.9213  0.0993
12369TIP3    H158598   1.950   4.560   1.219  0.7091  0.8710  1.1357
12369TIP3    H258599   2.093   4.581   1.174 -0.4444  0.8602 -2.6927
12370TIP3   OH258600   2.819   2.959   6.223 -0.1044 -0.5589  0.3012
12370TIP3    H158601   2.734   3.003   6.227 -0.5731 -1.5067  1.0804
12370TIP3    H258602   2.835   2.930   6.312  0.1003 -2.1439 -0.2422
12371TIP3   OH258603   5.083   6.753  12.483  0.3630 -0.5431 -1.1873
12371TIP3    H158604   4.993   6.723  12.497  0.7367 -1.0707  0.1964
12371TIP3    H258605   5.079   6.848  12.498  0.5932 -0.9767  2.0643
12372TIP3   OH258606   6.225   5.574   2.223 -0.1530  0.3379 -0.0523
12372TIP3    H158607   6.293   5.611   2.278 -0.1847  1.1626 -0.5504
12372TIP3    H258608   6.146   5.577   2.277  0.5752 -2.5082  1.2694
12373TIP3   OH258609   3.625   5.657   0.754  0.1759 -0.0061  0.1849
12373TIP3    H158610   3.685   5.726   0.725  1.4067 -0.3204  1.9730
12373TIP3    H258611   3.635   5.588   0.689 -0.3370  1.0726 -1.0715
12374TIP3   OH258612   0.756   5.235  15.962  0.8543  0.5927 -0.0886
12374TIP3    H158613   0.792   5.195  16.041 -0.3135 -1.8370 -0.7314
12374TIP3    H258614   0.833   5.263  15.912  1.6379  0.7290  1.1736
12375TIP3   OH258615   4.702   3.882  14.495 -0.3614 -0.1195 -0.3951
12375TIP3    H158616   4.637   3.924  14.550  2.0043 -0.2108  2.5889
12375TIP3    H258617   4.659   3.870  14.410 -3.8459  0.6457  1.2258
12376TIP3   OH258618   2.906   3.508  14.792 -0.0186  0.4107 -0.1180
12376TIP3    H158619   2.921   3.554  14.709  1.8402 -0.3539 -0.2423
12376TIP3    H258620   2.989   3.517  14.839 -1.5188  2.0766  2.3081
12377TIP3   OH258621   4.744   1.652   0.614 -0.0591  0.2756 -0.4602
12377TIP3    H158622   4.724   1.726   0.556 -1.2366  0.4297  0.1094
12377TIP3    H258623   4.703   1.576   0.572 -1.4015  0.4842  0.4112
12378TIP3   OH258624   6.514   5.236   2.764  0.2868  0.5955  0.4707
12378TIP3    H158625   6.443   5.261   2.823 -0.8759 -1.7180  0.1062
12378TIP3    H258626   6.513   5.303   2.695 -3.5142 -0.9622 -1.1276
12379TIP3   OH258627   6.261   5.830  12.767  0.0642  0.5149 -0.4079
12379TIP3    H158628   6.208   5.886  12.823 -0.7527  2.2056 -2.7967
12379TIP3    H258629   6.230   5.741  12.784 -3.4127  1.4562 -1.6273
12380TIP3   OH258630   5.673   6.152   4.356  0.3926 -0.0896 -0.3879
12380TIP3    H158631   5.611   6.117   4.293 -1.1484  1.2374  0.3287
12380TIP3    H258632   5.676   6.246   4.337 -0.6478  0.4600  1.9151
12381TIP3   OH258633   4.238   5.317   6.316  0.1568  0.0606  0.2612
12381TIP3    H158634   4.191   5.256   6.259  0.0638  0.7713 -0.4386
12381TIP3    H258635   4.328   5.284   6.319 -0.0435 -0.4689  0.4060
12382TIP3   OH258636   3.982   1.153   5.923 -0.1101  0.8165 -0.2027
12382TIP3    H158637   3.921   1.101   5.976  0.3470 -0.0212 -0.5005
12382TIP3    H258638   4.032   1.089   5.874  1.8404  1.4472  0.9204
12383TIP3   OH258639   2.626   0.117  14.071 -0.0710  0.3955 -0.1464
12383TIP3    H158640   2.539   0.153  14.092 -0.0184  0.3558  0.1433
12383TIP3    H258641   2.684   0.193  14.071  0.5626 -0.0033  3.2186
12384TIP3   OH258642   6.547   2.277  15.762 -0.0978 -0.0388 -0.3476
12384TIP3    H158643   6.472   2.321  15.722 -1.1587 -0.6936  0.9059
12384TIP3    H258644   6.589   2.345  15.815  1.4420  0.8964 -2.6906
12385TIP3   OH258645   5.580   6.611  10.817  0.3421 -0.1919 -0.2552
12385TIP3    H158646   5.674   6.603  10.799  0.3861 -2.3978  0.8336
12385TIP3    H258647   5.542   6.531  10.780 -1.4210  1.6198 -2.5128
12386TIP3   OH258648   5.335   2.820  13.361  0.0674  0.2383 -0.4331
12386TIP3    H158649   5.294   2.765  13.294  0.9793 -2.0384  0.8239
12386TIP3    H258650   5.304   2.783  13.444  2.4556  0.2121  0.4765
12387TIP3   OH258651   1.184   1.130  15.670 -0.5724 -0.1829  0.1917
12387TIP3    H158652   1.214   1.183  15.743  0.6316 -0.7967  0.1634
12387TIP3    H258653   1.261   1.120  15.614 -1.1139 -0.8814 -0.4521
12388TIP3   OH258654   3.766   1.652  13.841 -0.6019  0.9441 -0.1186
12388TIP3    H158655   3.706   1.608  13.781 -0.7420  0.5747  0.2961
12388TIP3    H258656   3.798   1.583  13.899 -0.5703  1.3280  0.3210
12389TIP3   OH258657   6.536   5.355   3.293  0.4622 -0.3619 -0.3137
12389TIP3    H158658   6.450   5.398   3.291  0.0263 -1.2778 -1.6063
12389TIP3    H258659   6.587   5.407   3.355 -0.7595  0.6882 -0.1683
12390TIP3   OH258660   6.321   2.611  11.781  0.5899  0.4813 -0.0970
12390TIP3    H158661   6.262   2.611  11.857 -0.5164  1.0280 -0.9465
12390TIP3    H258662   6.402   2.573  11.814  0.2789  1.1440  1.4895
12391TIP3   OH258663   5.629   2.886   5.440  0.1013 -0.4559  0.5028
12391TIP3    H158664   5.550   2.832   5.448 -0.4276 -0.0254 -1.5201
12391TIP3    H258665   5.616   2.956   5.505 -2.1843  0.7746 -1.1727
12392TIP3   OH258666   0.677   5.477   3.125 -0.1007  0.3040  0.1091
12392TIP3    H158667   0.589   5.450   3.096 -0.0673 -1.0216  1.1976
12392TIP3    H258668   0.662   5.521   3.208  0.5751 -3.0037  2.0473
12393TIP3   OH258669   0.442   3.402  15.910  0.3834 -0.0734  0.2362
12393TIP3    H158670   0.406   3.317  15.883 -1.4408  1.0568 -1.0667
12393TIP3    H258671   0.524   3.410  15.860 -0.6996 -0.0005 -1.5951
12394TIP3   OH258672   0.380   0.061  11.337 -0.2306 -0.1481 -0.3103
12394TIP3    H158673   0.437   0.111  11.279 -1.1216  3.4673  1.7621
12394TIP3    H258674   0.292   0.074  11.300 -0.6678  1.3021  1.1374
12395TIP3   OH258675   5.928   2.278   0.910  0.0058  0.8521 -0.0454
12395TIP3    H158676   5.944   2.312   0.998 -0.6284  3.2899 -0.8193
12395TIP3    H258677   5.842   2.312   0.887  0.2727  0.4351 -1.6853
12396TIP3   OH258678   6.445   0.005  17.212  0.1708 -0.0198 -0.3594
12396TIP3    H158679   6.373   0.041  17.263  0.2237 -0.9681  0.3993
12396TIP3    H258680   6.447   0.058  17.132  0.1056  1.4918  0.6298
12397TIP3   OH258681   3.347   1.552   2.276 -0.5184 -0.2254  0.3767
12397TIP3    H158682   3.405   1.627   2.280  0.9116 -1.2506 -0.6819
12397TIP3    H258683   3.378   1.495   2.347 -0.5287 -0.5596  0.1121
12398TIP3   OH258684   3.516   1.696   1.948 -0.3883  0.5972 -0.0865
12398TIP3    H158685   3.552   1.709   1.860  0.4088 -0.7895  0.0198
12398TIP3    H258686   3.507   1.602   1.957 -0.8885  0.7511  1.1600
12399TIP3   OH258687   6.711   4.305  15.988 -0.3087 -0.3353 -0.1571
12399TIP3    H158688   6.665   4.320  16.070  2.7285  0.1206  1.5412
12399TIP3    H258689   6.646   4.322  15.920 -2.3160  1.2870  2.1007
12400TIP3   OH258690   0.809   3.105   5.416 -0.4444  0.0867  0.3460
12400TIP3    H158691   0.720   3.137   5.430 -0.4113 -0.1273  1.0591
12400TIP3    H258692   0.863   3.160   5.473  0.2603  2.1636 -2.1846
12401TIP3   OH258693   3.339   1.882   3.107 -0.0991  0.5295 -0.3453
12401TIP3    H158694   3.292   1.949   3.157  1.3570  0.7082  0.8029
12401TIP3    H258695   3.346   1.919   3.019 -0.5099  1.2999 -0.0633
12402TIP3   OH258696   2.537   2.147  17.184 -0.3912 -0.2331  0.3560
12402TIP3    H158697   2.589   2.070  17.161 -1.7452 -1.2315  0.5636
12402TIP3    H258698   2.505   2.181  17.100  1.9604  1.4170  0.0621
12403TIP3   OH258699   5.820   2.095   2.040  0.0896  0.2505  0.5292
12403TIP3    H158700   5.760   2.075   2.112 -0.3443  0.7467  0.3017
12403TIP3    H258701   5.804   2.187   2.020 -0.5452 -0.1621 -0.9097
12404TIP3   OH258702   4.347   5.686   0.299  0.1418 -0.2494 -0.1301
12404TIP3    H158703   4.430   5.724   0.329 -0.1784 -0.3489  0.9076
12404TIP3    H258704   4.280   5.728   0.353 -0.3949 -0.8466 -0.3156
12405TIP3   OH258705   0.244   1.649  16.382  0.1951  0.0482 -0.4337
12405TIP3    H158706   0.323   1.685  16.421  0.2030 -0.6169  0.1730
12405TIP3    H258707   0.183   1.723  16.378  0.6022  0.3917 -0.2411
12406TIP3   OH258708   1.820   2.236  13.258 -0.0668 -0.6153 -0.0960
12406TIP3    H158709   1.831   2.328  13.280 -0.1952 -1.2355  2.8896
12406TIP3    H258710   1.763   2.235  13.182 -1.4293  1.7102  0.8645
12407TIP3   OH258711   4.745   1.566   3.332  0.0532 -0.1215  0.3216
12407TIP3    H158712   4.794   1.565   3.415 -0.1583  2.5773  0.5075
12407TIP3    H258713   4.653   1.571   3.359 -0.1203 -0.9600 -0.0887
12408TIP3   OH258714   4.151   2.940   3.874  0.3791 -0.1182 -0.0171
12408TIP3    H158715   4.189   3.008   3.817 -1.3904 -0.2296 -1.3650
12408TIP3    H258716   4.057   2.958   3.873  0.1101 -1.4092  1.2045
12409TIP3   OH258717   1.423   6.224  12.033 -0.0308 -0.2466  0.1188
12409TIP3    H158718   1.346   6.255  12.081 -0.6365  2.6045 -2.5101
12409TIP3    H258719   1.498   6.255  12.085 -0.6666  0.6395  0.5329
12410TIP3   OH258720   2.985   6.509  13.469 -0.0036  0.0307 -0.4086
12410TIP3    H158721   3.006   6.440  13.406 -0.3095  1.6443 -2.3165
12410TIP3    H258722   3.054   6.503  13.535  1.7860 -0.0905 -2.2164
12411TIP3   OH258723   3.901   3.059  15.565 -0.2512 -0.0012 -0.0140
12411TIP3    H158724   3.941   3.076  15.650  1.7402  0.4064 -1.0015
12411TIP3    H258725   3.809   3.080  15.577  0.3603  1.8993  1.5318
12412TIP3   OH258726   2.154   0.657  16.055 -0.2476 -0.4453  0.3593
12412TIP3    H158727   2.200   0.586  16.100  0.2945 -0.6018 -0.4331
12412TIP3    H258728   2.187   0.737  16.095  2.6505 -0.4096 -1.9136
12413TIP3   OH258729   3.691   5.854   3.598 -0.5261 -0.3655  0.0445
12413TIP3    H158730   3.767   5.845   3.541 -0.2290 -1.4912  0.5954
12413TIP3    H258731   3.714   5.924   3.659 -0.1448 -0.3635 -0.1059
12414TIP3   OH258732   5.719   2.497   5.425 -1.0421 -0.2161 -1.1604
12414TIP3    H158733   5.724   2.564   5.357  2.6798  0.0663 -0.6990
12414TIP3    H258734   5.785   2.433   5.401 -1.5500 -1.5003  0.7448
12415TIP3   OH258735   3.218   4.357  14.368  0.2085  0.3406 -0.0417
12415TIP3    H158736   3.287   4.338  14.431  1.4223  1.1806 -1.0991
12415TIP3    H258737   3.262   4.356  14.283 -1.5983 -1.9472 -1.0345
12416TIP3   OH258738   2.000   0.457   0.862 -0.0178 -0.5674  0.3107
12416TIP3    H158739   1.917   0.409   0.871 -0.8659  0.8636  0.3151
12416TIP3    H258740   1.982   0.542   0.903  0.5894  0.7709 -2.1364
12417TIP3   OH258741   2.617   5.713  14.974 -0.0757 -0.5137  0.2066
12417TIP3    H158742   2.659   5.745  15.054  0.0382  0.2694 -0.1582
12417TIP3    H258743   2.599   5.792  14.924 -0.7088 -0.9589 -0.2695
12418TIP3   OH258744   5.415   6.717  14.761  0.3497  0.2444 -0.1985
12418TIP3    H158745   5.331   6.750  14.728  0.1715  0.2542  0.2622
12418TIP3    H258746   5.476   6.789  14.747  0.3273  0.1663 -0.7212
12419TIP3   OH258747   0.911   2.449   4.807  0.1860 -0.5711 -0.1774
12419TIP3    H158748   1.006   2.438   4.795  0.0401 -2.0073 -0.1460
12419TIP3    H258749   0.891   2.534   4.768  1.5807 -0.0101  0.3078
12420TIP3   OH258750   1.726   6.146  13.895 -0.0258 -0.1654  0.2195
12420TIP3    H158751   1.817   6.122  13.876 -0.0882 -0.4186  0.2486
12420TIP3    H258752   1.720   6.145  13.990  0.1796  0.7243  0.2536
12421TIP3   OH258753   6.357   0.898  16.244 -0.1569  0.3003 -0.2282
12421TIP3    H158754   6.383   0.819  16.291  1.0624  0.6174 -0.3742
12421TIP3    H258755   6.273   0.875  16.203  1.3512 -1.7114 -2.2544
12422TIP3   OH258756   6.246   3.997   0.469 -0.7604  0.2943  0.2374
12422TIP3    H158757   6.201   4.065   0.520  2.7464  2.2259  0.9268
12422TIP3    H258758   6.238   3.918   0.523 -0.5876  1.3705  1.8866
12423TIP3   OH258759   4.784   0.088  16.915 -0.2946 -0.1107 -0.0216
12423TIP3    H158760   4.853   0.095  16.849 -1.2701  0.0654 -1.0385
12423TIP3    H258761   4.814   0.018  16.973  1.5894  1.1795  0.6146
12424TIP3   OH258762   2.355   4.672  11.120  0.0669 -0.2537  0.0352
12424TIP3    H158763   2.347   4.734  11.047 -0.9146  0.0355  0.3767
12424TIP3    H258764   2.284   4.696  11.180 -0.9500 -2.3443 -0.2856
12425TIP3   OH258765   4.689   0.206  16.629  0.4582 -0.5704  0.1864
12425TIP3    H158766   4.772   0.222  16.674 -0.1767 -1.4579  1.7186
12425TIP3    H258767   4.678   0.111  16.631  0.6221 -0.6630 -2.2537
12426TIP3   OH258768   0.646   1.662  13.142 -0.1384 -0.3633  0.1709
12426TIP3    H158769   0.606   1.664  13.055 -0.3828 -0.0471  0.2904
12426TIP3    H258770   0.680   1.751  13.156  0.1686 -0.4952  0.2727
12427TIP3   OH258771   1.631   4.118   5.678  1.0321 -0.4639 -0.5175
12427TIP3    H158772   1.658   4.089   5.765 -0.3427 -0.4177 -0.0628
12427TIP3    H258773   1.712   4.146   5.636  1.7858 -1.0210  0.5462
12428TIP3   OH258774   2.574   1.477   2.193 -0.1835 -0.2825  0.2254
12428TIP3    H158775   2.593   1.430   2.274  1.2283  2.0409  1.2775
12428TIP3    H258776   2.479   1.466   2.181 -0.6669  0.5019  2.9522
12429TIP3   OH258777   5.338   5.658  11.767  0.3254  0.3208  0.2972
12429TIP3    H158778   5.302   5.576  11.734  0.1768  0.3258  0.4470
12429TIP3    H258779   5.271   5.723  11.749  0.3819  0.3840  0.3122
12430TIP3   OH258780   4.700   4.959  11.975  0.1164  0.2422  0.1212
12430TIP3    H158781   4.628   4.973  12.036  1.1737 -0.5228  1.5899
12430TIP3    H258782   4.721   4.866  11.983 -1.7265 -0.6194 -3.7155
12431TIP3   OH258783   5.318   3.288  11.699 -0.1036  0.9775  0.0596
12431TIP3    H158784   5.371   3.212  11.723  0.1324  0.1286 -2.9008
12431TIP3    H258785   5.229   3.267  11.729  0.0096 -0.3669 -0.5527
12432TIP3   OH258786   1.853   6.236   3.972 -0.2233 -0.0320  0.2010
12432TIP3    H158787   1.862   6.172   3.901  0.6155  0.8586 -0.5127
12432TIP3    H258788   1.940   6.275   3.981 -0.6909  0.9303  0.6950
12433TIP3   OH258789   2.083   1.579  11.370 -0.1595  0.5328  0.0682
12433TIP3    H158790   2.162   1.549  11.325  0.1126  0.7516  0.3938
12433TIP3    H258791   2.011   1.539  11.321  0.1830 -0.3309  0.2447
12434TIP3   OH258792   6.132   4.646  15.849 -0.0895 -0.1144 -0.0390
12434TIP3    H158793   6.222   4.631  15.820  0.1743 -0.4727  0.9499
12434TIP3    H258794   6.107   4.564  15.892 -1.1883 -0.3312 -1.0569
12435TIP3   OH258795   1.607   1.219   1.471  0.0650  0.3591  0.3053
12435TIP3    H158796   1.615   1.295   1.528 -0.3777 -0.0007  0.8578
12435TIP3    H258797   1.589   1.146   1.531 -0.3916 -0.0256 -0.2935
12436TIP3   OH258798   5.975   6.513   6.413  0.1907  0.6151 -0.0601
12436TIP3    H158799   5.925   6.521   6.332 -0.6948  0.1202  0.4261
12436TIP3    H258800   5.911   6.526   6.483  0.6354 -0.5195  0.5852
12437TIP3   OH258801   2.473   4.809  14.052  0.0809 -0.1483 -0.2275
12437TIP3    H158802   2.510   4.897  14.041 -0.2299  0.1616  1.1108
12437TIP3    H258803   2.418   4.796  13.974 -0.4296  1.1258 -0.0876
12438TIP3   OH258804   3.074   6.815   6.434  0.1500 -0.3051 -0.2761
12438TIP3    H158805   3.159   6.857   6.451  0.2098  0.2538 -1.8415
12438TIP3    H258806   3.035   6.803   6.520  1.4887  0.1510  0.4032
12439TIP3   OH258807   4.365   4.837  16.420 -0.3092 -0.6845  0.2368
12439TIP3    H158808   4.382   4.828  16.326 -0.8589 -2.6606  0.3029
12439TIP3    H258809   4.397   4.756  16.458 -0.1439  0.0841  1.7695
12440TIP3   OH258810   5.737   2.491  13.252 -0.0960  0.5216 -0.0859
12440TIP3    H158811   5.646   2.516  13.237  0.3836  1.5005 -1.5689
12440TIP3    H258812   5.764   2.449  13.170  0.7850  0.2340  0.3448
12441TIP3   OH258813   3.393   3.490  12.809 -0.3991  0.4148 -0.1928
12441TIP3    H158814   3.438   3.406  12.823 -0.2227  0.6866  0.8903
12441TIP3    H258815   3.340   3.502  12.888  0.4156  1.8504  0.1426
12442TIP3   OH258816   3.401   1.399   1.888  0.2807 -0.0424 -0.5759
12442TIP3    H158817   3.379   1.325   1.944 -0.8486 -0.2470 -1.2793
12442TIP3    H258818   3.342   1.469   1.916 -0.7281 -0.3325 -1.8945
12443TIP3   OH258819   4.299   3.252  16.160  0.0734  0.2927  0.2120
12443TIP3    H158820   4.252   3.284  16.237 -0.4352  1.1519 -0.4494
12443TIP3    H258821   4.382   3.218  16.195 -0.0138  0.9761  1.0980
12444TIP3   OH258822   2.343   4.431   6.462  0.0485 -0.1500 -0.6878
12444TIP3    H158823   2.396   4.396   6.533 -1.1022  0.6077  0.5717
12444TIP3    H258824   2.252   4.414   6.489 -0.4947  2.4781 -0.7099
12445TIP3   OH258825   0.195   1.593  13.120  0.1285 -0.3021  0.2564
12445TIP3    H158826   0.244   1.512  13.133 -2.1312 -1.7831 -0.2159
12445TIP3    H258827   0.153   1.610  13.205  1.5379  1.0693  0.7203
12446TIP3   OH258828   5.062   1.587   0.386  0.0941 -0.3430 -0.5387
12446TIP3    H158829   5.054   1.682   0.383 -0.0088 -0.3177  0.4362
12446TIP3    H258830   5.039   1.558   0.297  0.9256  0.5886 -1.0557
12447TIP3   OH258831   2.711   6.458   0.442 -0.0371  0.4868  0.1978
12447TIP3    H158832   2.750   6.390   0.387 -0.1464  1.3629 -0.9801
12447TIP3    H258833   2.619   6.432   0.449  0.2352 -0.3014  1.0283
12448TIP3   OH258834   2.097   1.513   1.382 -0.6609  0.9538  0.5339
12448TIP3    H158835   2.114   1.432   1.430  0.5197  0.2141 -1.1067
12448TIP3    H258836   2.156   1.577   1.421  1.5771 -0.0893 -1.0959
12449TIP3   OH258837   4.729   6.540   0.991  0.1853 -0.0680  0.2392
12449TIP3    H158838   4.642   6.578   0.993  0.7764  1.2791  0.8721
12449TIP3    H258839   4.781   6.594   1.051  0.5279 -3.1520  2.8447
12450TIP3   OH258840   3.736   4.811   3.329 -0.0665  0.0154  0.4526
12450TIP3    H158841   3.821   4.767   3.333 -1.4143 -2.7363  0.3628
12450TIP3    H258842   3.744   4.872   3.256  1.7628 -0.3467  0.3262
12451TIP3   OH258843   5.871   1.202   5.415 -0.2593 -0.2192  0.3646
12451TIP3    H158844   5.848   1.272   5.476  0.0815 -1.2086  1.6298
12451TIP3    H258845   5.953   1.232   5.375  0.8683 -0.7354  2.2594
12452TIP3   OH258846   3.223   4.576  13.090 -0.6481  0.7770 -0.2459
12452TIP3    H158847   3.174   4.494  13.091  2.6260 -1.2904 -0.6255
12452TIP3    H258848   3.245   4.589  12.998  2.1868 -0.0981  0.2404
12453TIP3   OH258849   1.317   5.542  10.423 -0.6855  0.1488 -0.2681
12453TIP3    H158850   1.355   5.466  10.466 -0.4958  0.0387 -0.6268
12453TIP3    H258851   1.238   5.561  10.473  1.1285  1.9384  2.0240
12454TIP3   OH258852   3.069   2.658   1.761 -0.6425 -0.0232  0.8313
12454TIP3    H158853   3.036   2.583   1.810  3.2857 -2.5420 -0.0841
12454TIP3    H258854   3.041   2.643   1.671 -1.3888  0.5660  0.9648
12455TIP3   OH258855   1.317   2.164   1.682 -0.5123  0.2613  0.0678
12455TIP3    H158856   1.344   2.160   1.774  0.3680  0.8862 -0.1619
12455TIP3    H258857   1.391   2.130   1.633 -0.5315  1.0156 -0.4934
12456TIP3   OH258858   6.794   1.954  13.404  0.0611  0.2089  0.2456
12456TIP3    H158859   6.740   1.925  13.477  0.5136 -1.6282 -0.1349
12456TIP3    H258860   6.732   1.992  13.342 -0.2422  2.4947  1.8828
12457TIP3   OH258861   0.242   3.834  12.864  0.5415 -0.5047  0.2337
12457TIP3    H158862   0.226   3.812  12.772  1.1042 -0.4245  0.1160
12457TIP3    H258863   0.213   3.925  12.872  0.8715 -0.3797  0.0335
12458TIP3   OH258864   4.733   4.199   2.936  0.5768 -0.8026 -0.2571
12458TIP3    H158865   4.717   4.286   2.898 -0.4045 -0.9773 -0.2343
12458TIP3    H258866   4.651   4.152   2.924  1.1022 -1.7208 -0.2282
12459TIP3   OH258867   1.362   0.913  14.283 -0.0355  0.1913 -0.5150
12459TIP3    H158868   1.423   0.936  14.213  0.2913 -1.1927 -0.6919
12459TIP3    H258869   1.358   0.817  14.281 -1.5711  0.2353  0.0403
12460TIP3   OH258870   6.388   0.133  11.967  0.4253  0.1983 -0.3268
12460TIP3    H158871   6.353   0.079  11.896 -1.8729  0.6741  0.3950
12460TIP3    H258872   6.348   0.219  11.955 -1.3209 -0.1456  2.4414
12461TIP3   OH258873   4.058   5.379  13.636  0.1107 -0.1515 -0.1210
12461TIP3    H158874   4.060   5.334  13.551 -1.6118  0.5637 -0.5613
12461TIP3    H258875   4.057   5.472  13.614  0.2351  0.0518  0.7024
12462TIP3   OH258876   2.185   5.270   6.618 -0.3503  0.3074 -1.0198
12462TIP3    H158877   2.278   5.293   6.613 -0.5394  0.8497 -2.2562
12462TIP3    H258878   2.146   5.312   6.541 -1.7712  0.7722 -0.0653
12463TIP3   OH258879   4.576   0.067   4.409 -0.6485  0.3338 -0.2979
12463TIP3    H158880   4.599   0.149   4.367  1.7676  0.3045  0.8709
12463TIP3    H258881   4.655   0.042   4.458 -1.4452 -2.4885 -0.3547
12464TIP3   OH258882   4.926   1.564   3.962  0.5121 -0.3920  0.6508
12464TIP3    H158883   4.872   1.486   3.946 -0.2906  0.2893  0.0193
12464TIP3    H258884   5.012   1.529   3.984  0.4245 -1.4448 -0.6351
12465TIP3   OH258885   0.712   3.306   1.107  0.2125  0.2603  0.3229
12465TIP3    H158886   0.782   3.244   1.090  0.5324  0.7899 -0.3390
12465TIP3    H258887   0.635   3.267   1.066 -0.2143 -0.9961  2.2690
12466TIP3   OH258888   4.447   5.948   2.954  0.2707 -0.2292 -0.4780
12466TIP3    H158889   4.377   5.883   2.942 -1.5475  1.4262  0.7844
12466TIP3    H258890   4.403   6.032   2.940  2.0241  0.8406  0.3662
12467TIP3   OH258891   6.367   1.121   5.578  0.3616  0.1640  0.0584
12467TIP3    H158892   6.290   1.108   5.633  0.2606 -1.2347 -0.4060
12467TIP3    H258893   6.438   1.138   5.639  0.3024 -1.5940  0.6491
12468TIP3   OH258894   0.097   3.387  11.287  0.0622 -0.7904 -0.1569
12468TIP3    H158895   0.188   3.415  11.285 -0.7718  2.2414  1.2580
12468TIP3    H258896   0.078   3.375  11.380 -1.1417 -0.8080 -0.3975
12469TIP3   OH258897   6.154   3.360   3.431  0.6350 -0.0761 -0.0473
12469TIP3    H158898   6.066   3.393   3.444  1.1900  1.6605 -0.5400
12469TIP3    H258899   6.147   3.300   3.357 -0.6562 -2.2593  1.7799
12470TIP3   OH258900   3.325   4.969   2.193  0.1596 -0.3537 -0.0846
12470TIP3    H158901   3.415   4.942   2.210 -0.2907 -1.6665  0.2764
12470TIP3    H258902   3.330   5.064   2.178  1.9236 -0.7628 -2.4148
12471TIP3   OH258903   4.187   2.387   4.287 -0.2067  0.3174 -0.2838
12471TIP3    H158904   4.224   2.406   4.200 -0.2278  1.2320 -0.0996
12471TIP3    H258905   4.223   2.456   4.343  0.3117 -0.6364  0.5727
12472TIP3   OH258906   3.924   6.004   4.208 -0.2015  1.0313 -0.1410
12472TIP3    H158907   3.930   5.942   4.136  0.5699 -0.7790  1.4194
12472TIP3    H258908   4.015   6.026   4.229 -0.4354  1.9487 -0.0684
12473TIP3   OH258909   5.783   4.915  11.322 -0.4306 -0.5118 -0.2141
12473TIP3    H158910   5.754   4.828  11.295 -0.7184 -0.0195 -1.5629
12473TIP3    H258911   5.876   4.905  11.340 -0.6403 -1.2789  0.4617
12474TIP3   OH258912   5.909   1.517  13.396 -0.0307 -0.1592  0.1010
12474TIP3    H158913   5.876   1.517  13.306  1.2595 -0.0713 -0.3779
12474TIP3    H258914   5.892   1.427  13.427  1.9094 -0.9732 -1.1288
12475TIP3   OH258915   2.588   6.324  12.195  0.2311  0.4282 -0.0641
12475TIP3    H158916   2.522   6.298  12.130  0.3194 -1.3412  0.5162
12475TIP3    H258917   2.670   6.326  12.146  0.2627 -0.6692 -0.0771
12476TIP3   OH258918   1.626   0.221   5.335 -0.6492  0.0902  0.2554
12476TIP3    H158919   1.609   0.164   5.410  0.6249 -0.1914  0.3401
12476TIP3    H258920   1.657   0.303   5.373  0.6269 -0.2730  0.0299
12477TIP3   OH258921   2.900   1.411   5.315  0.6089  0.3795  0.1352
12477TIP3    H158922   2.816   1.420   5.359  0.5284  0.9667 -0.1269
12477TIP3    H258923   2.936   1.500   5.314  2.4283 -0.2870  2.5690
12478TIP3   OH258924   5.448   4.294   3.678  0.5834  0.3169  0.2019
12478TIP3    H158925   5.353   4.283   3.673  0.5415  0.8678 -0.4147
12478TIP3    H258926   5.476   4.236   3.748  0.0960 -1.7638 -1.2746
12479TIP3   OH258927   5.329   2.961  12.242 -0.7235  0.0180  0.6490
12479TIP3    H158928   5.364   2.989  12.158 -1.2745  0.1594  0.4680
12479TIP3    H258929   5.400   2.980  12.304 -0.4453  0.2248  0.2715
12480TIP3   OH258930   4.718   0.570   2.845 -0.1519  0.0858 -0.0559
12480TIP3    H158931   4.764   0.544   2.765  1.3662 -1.5196  1.2711
12480TIP3    H258932   4.731   0.665   2.851  3.6544 -0.3804  0.5967
12481TIP3   OH258933   4.476   5.093  14.990  0.4011 -0.2553 -0.0374
12481TIP3    H158934   4.472   5.151  15.066  0.1590  0.0936 -0.3123
12481TIP3    H258935   4.533   5.139  14.928  1.8407 -1.2456  0.5263
12482TIP3   OH258936   2.330   2.634  13.701  0.2194  0.3073 -0.1290
12482TIP3    H158937   2.385   2.566  13.662  0.1316 -0.0199  0.3204
12482TIP3    H258938   2.241   2.606  13.682  0.2046  1.4041 -1.8324
12483TIP3   OH258939   3.561   4.612   5.060  0.0792  0.1716  0.0801
12483TIP3    H158940   3.519   4.593   4.976 -0.6149 -1.0548  0.6892
12483TIP3    H258941   3.654   4.617   5.039  0.0921 -1.8841 -0.4916
12484TIP3   OH258942   1.718   2.185  15.448 -0.0875  0.8383  0.6208
12484TIP3    H158943   1.786   2.118  15.443 -1.5183 -0.4609 -2.1034
12484TIP3    H258944   1.645   2.142  15.493 -0.5815  0.9198 -0.0945
12485TIP3   OH258945   4.853   5.773  15.663  0.1445  0.0062  0.1370
12485TIP3    H158946   4.787   5.752  15.597  0.5738  0.4895 -0.4517
12485TIP3    H258947   4.936   5.749  15.623  0.4515  0.7805  0.3018
12486TIP3   OH258948   2.150   1.142  16.881 -0.1446 -0.6632 -0.7163
12486TIP3    H158949   2.192   1.135  16.795 -1.6481 -1.3703 -1.4137
12486TIP3    H258950   2.084   1.211  16.870 -0.6752 -1.0945 -0.2875
12487TIP3   OH258951   3.065   2.139  13.713 -0.5329  0.9705  0.1788
12487TIP3    H158952   3.108   2.056  13.694 -2.3728  0.2158 -0.7607
12487TIP3    H258953   2.991   2.116  13.768 -0.4841  2.1216  0.7409
12488TIP3   OH258954   4.302   5.631   0.650 -0.9034 -0.3305 -0.1053
12488TIP3    H158955   4.283   5.537   0.658  0.2887 -0.7888 -2.2954
12488TIP3    H258956   4.216   5.672   0.642 -1.4093 -1.3201  0.1863
12489TIP3   OH258957   5.863   1.148   2.658 -0.2102  0.0044  0.0301
12489TIP3    H158958   5.912   1.095   2.596 -1.5426 -0.1702 -0.8881
12489TIP3    H258959   5.922   1.221   2.680  2.1920 -2.5173  2.3705
12490TIP3   OH258960   5.233   2.068  13.846  0.0829 -0.4888  0.4874
12490TIP3    H158961   5.213   2.004  13.777  0.2777 -1.0459  0.9454
12490TIP3    H258962   5.309   2.032  13.890  0.0003 -0.0920  0.9488
12491TIP3   OH258963   2.321   0.916  16.474 -0.2921  0.1466 -0.2257
12491TIP3    H158964   2.249   0.955  16.523 -0.3157 -2.4694  1.9438
12491TIP3    H258965   2.400   0.940  16.523  0.0085  0.3722 -0.8172
12492TIP3   OH258966   5.230   4.895   4.008  0.1363  0.0209 -0.0227
12492TIP3    H158967   5.226   4.827   3.941 -0.8794 -0.0730  0.1258
12492TIP3    H258968   5.143   4.894   4.048  0.3736  0.8599  0.5182
12493TIP3   OH258969   2.067   1.188  15.058  0.3334  0.6047  0.1347
12493TIP3    H158970   2.094   1.149  14.975  0.0829  0.7126  0.0017
12493TIP3    H258971   2.139   1.247  15.082  0.5096  0.3975  0.1102
12494TIP3   OH258972   1.067   1.752   4.658  0.2951  0.1547 -0.2699
12494TIP3    H158973   1.142   1.810   4.646  0.9722 -0.7598 -0.5304
12494TIP3    H258974   1.031   1.742   4.570 -0.7635  1.4105  0.0049
12495TIP3   OH258975   4.682   6.001   0.855  0.2153  0.0158 -0.2191
12495TIP3    H158976   4.611   6.052   0.817 -0.2947 -0.7487 -0.2836
12495TIP3    H258977   4.661   5.995   0.948 -1.2386 -2.5506 -0.6916
12496TIP3   OH258978   1.354   6.116  12.336 -0.1344 -0.0603 -0.4760
12496TIP3    H158979   1.313   6.079  12.414  0.0019  1.0533  0.1270
12496TIP3    H258980   1.417   6.179  12.369 -0.3184  0.6752 -1.4985
12497TIP3   OH258981   3.315   2.044   3.518 -0.2970 -0.8767  0.4547
12497TIP3    H158982   3.311   1.951   3.493  0.6811 -1.5790  2.7552
12497TIP3    H258983   3.391   2.078   3.469 -1.0941 -1.0797 -0.9650
12498TIP3   OH258984   4.760   3.308   3.950  0.2825  0.0855 -0.0468
12498TIP3    H158985   4.671   3.276   3.966  0.8303 -0.8113  1.2256
12498TIP3    H258986   4.764   3.317   3.855 -1.5111  1.1344 -0.0502
12499TIP3   OH258987   5.523   6.140  13.243  0.2366 -0.2627  0.1285
12499TIP3    H158988   5.503   6.202  13.312 -1.4469 -2.7906  2.0070
12499TIP3    H258989   5.481   6.059  13.271  0.9332 -1.7983 -3.0641
12500TIP3   OH258990   0.633   0.417   3.795  0.3715  0.2490 -0.2367
12500TIP3    H158991   0.714   0.450   3.755  1.2250 -1.3295  0.1506
12500TIP3    H258992   0.634   0.455   3.883  1.9330 -1.6636  0.6077
12501TIP3   OH258993   3.780   1.115  13.767 -0.3233 -0.1805  0.1688
12501TIP3    H158994   3.745   1.184  13.823  0.2113 -0.6530  1.1028
12501TIP3    H258995   3.869   1.143  13.747  0.8271 -1.8289  2.7231
12502TIP3   OH258996   0.904   2.547   2.691  0.2021  0.8337 -0.2486
12502TIP3    H158997   0.847   2.583   2.759  2.3588  1.2918  1.3355
12502TIP3    H258998   0.940   2.467   2.730  0.8456  0.6824 -1.1460
12503TIP3   OH258999   2.260   3.814  16.484  0.6595 -0.2719  0.4545
12503TIP3    H159000   2.333   3.776  16.436  1.0217  1.0681 -0.0933
12503TIP3    H259001   2.185   3.757  16.463  0.4825  1.0938 -2.9290
12504TIP3   OH259002   1.897   1.813   3.085 -0.1004 -0.1410  0.8010
12504TIP3    H159003   1.971   1.831   3.142 -0.1106  0.2600  0.6925
12504TIP3    H259004   1.879   1.897   3.041  0.4291 -0.6448 -0.3985
12505TIP3   OH259005   3.624   0.976   4.995 -0.5854  0.0905  0.0113
12505TIP3    H159006   3.640   0.994   5.088  1.0709  1.4949 -0.5211
12505TIP3    H259007   3.664   1.050   4.949 -0.3844 -1.1751 -1.8889
12506TIP3   OH259008   0.131   4.116  16.175  0.5873 -0.3597 -0.1001
12506TIP3    H159009   0.143   4.021  16.165  1.1546 -0.3217  0.2036
12506TIP3    H259010   0.161   4.153  16.092 -0.0270 -0.4735 -0.3800
12507TIP3   OH259011   0.221   2.885   3.547  0.2871 -0.1621 -0.5121
12507TIP3    H159012   0.166   2.928   3.481  0.7068  1.1319 -0.0388
12507TIP3    H259013   0.252   2.806   3.504  0.6692  0.7387 -1.9362
12508TIP3   OH259014   6.302   4.066  13.888  0.2205 -0.4511  0.1988
12508TIP3    H159015   6.379   4.031  13.934  1.5384  1.3337 -0.5897
12508TIP3    H259016   6.309   4.161  13.899 -0.9395 -0.1734 -1.3590
12509TIP3   OH259017   3.839   4.119   0.833  0.5577 -0.2408 -0.1864
12509TIP3    H159018   3.757   4.069   0.834  0.9469 -0.8683  0.3590
12509TIP3    H259019   3.859   4.131   0.740  0.3529 -0.9116 -0.3170
12510TIP3   OH259020   3.414   5.500  12.385 -0.0135  0.1329 -0.4843
12510TIP3    H159021   3.358   5.572  12.353  1.5503  2.2019  1.3055
12510TIP3    H259022   3.497   5.512  12.339  0.3637 -0.3213  0.0778
12511TIP3   OH259023   0.261   4.280  11.998  0.3136  0.1401 -0.0886
12511TIP3    H159024   0.219   4.322  11.923 -0.5547  0.1031  0.3745
12511TIP3    H259025   0.191   4.268  12.062  1.1197  0.4971  0.8776
12512TIP3   OH259026   6.733   6.226  13.568  0.1637  0.1961  0.4583
12512TIP3    H159027   6.682   6.291  13.520 -0.1809 -0.0173  0.5324
12512TIP3    H259028   6.790   6.186  13.502 -0.8726 -0.6559  0.0596
12513TIP3   OH259029   4.116   0.897   5.828 -0.1630  0.2493 -0.0274
12513TIP3    H159030   4.089   0.817   5.872 -2.2618  0.9090 -0.0826
12513TIP3    H259031   4.212   0.896   5.834 -0.2738 -0.9794  2.2389
12514TIP3   OH259032   1.632   5.516  17.288 -0.0558  0.2026  0.0979
12514TIP3    H159033   1.712   5.467  17.304 -0.5036 -0.4275  0.4212
12514TIP3    H259034   1.586   5.465  17.221  0.7737  1.6542 -1.6405
12515TIP3   OH259035   6.117   3.339   5.294  0.0678 -0.0755  0.0648
12515TIP3    H159036   6.055   3.292   5.239  1.0142 -0.2994 -0.8073
12515TIP3    H259037   6.151   3.409   5.239  0.2990  0.3005  0.6706
12516TIP3   OH259038   0.959   5.158   1.038 -0.0646  0.2885  0.3684
12516TIP3    H159039   0.896   5.216   1.079 -1.0403  0.4392 -1.2800
12516TIP3    H259040   0.967   5.191   0.948  0.5818 -1.1470 -0.1181
12517TIP3   OH259041   5.268   5.417  15.576 -0.2315  0.5410 -0.0669
12517TIP3    H159042   5.248   5.325  15.559  0.5668  0.2518  0.5240
12517TIP3    H259043   5.344   5.435  15.520 -1.6269  1.4147 -1.7143
12518TIP3   OH259044   5.221   6.635  12.225  1.0167  0.8386 -1.0478
12518TIP3    H159045   5.231   6.555  12.173  0.7253 -0.7122  1.1700
12518TIP3    H259046   5.127   6.651  12.227  0.6602 -1.0552  1.6601
12519TIP3   OH259047   5.218   0.197  11.807  0.3349  0.7985  0.0180
12519TIP3    H159048   5.227   0.263  11.739  0.7684 -0.1885 -0.8927
12519TIP3    H259049   5.124   0.194  11.825  0.4383  2.5818  1.0147
12520TIP3   OH259050   0.058   4.715   3.143 -0.1006 -0.3680  0.8494
12520TIP3    H159051   0.018   4.792   3.183  0.4785 -0.2949  1.2937
12520TIP3    H259052   0.137   4.749   3.100 -0.8654 -0.3930 -0.6147
12521TIP3   OH259053   3.085   0.729  14.703  0.5586  0.3067 -0.1613
12521TIP3    H159054   3.099   0.813  14.659 -1.5844  0.3322 -0.8413
12521TIP3    H259055   3.114   0.743  14.793 -1.1923  2.2433  0.1216
12522TIP3   OH259056   0.872   0.765  16.468 -0.4173  0.4815 -0.1125
12522TIP3    H159057   0.800   0.789  16.525 -0.7221  0.8268 -0.6452
12522TIP3    H259058   0.837   0.695  16.413 -0.4139  0.7870 -0.5088
12523TIP3   OH259059   3.009   6.370   2.434 -0.2789 -0.1969  0.0864
12523TIP3    H159060   2.926   6.353   2.389 -0.5132 -1.5455  1.0152
12523TIP3    H259061   3.064   6.295   2.413  0.7550  0.7459 -0.6067
12524TIP3   OH259062   5.040   6.102  11.254 -0.3728  0.5904  0.1915
12524TIP3    H159063   5.041   6.008  11.274 -0.8993 -0.1076 -2.8837
12524TIP3    H259064   5.132   6.129  11.262 -0.0583 -0.4134  0.0509
12525TIP3   OH259065   1.286   2.012   5.041 -0.0308 -0.0072  0.0044
12525TIP3    H159066   1.272   1.964   5.123  1.0598  4.3582  2.9688
12525TIP3    H259067   1.207   2.065   5.031  0.6593  0.8799 -0.7406
12526TIP3   OH259068   2.430   2.588   1.438  0.0137 -0.3132  0.0672
12526TIP3    H159069   2.480   2.669   1.444  0.5193 -0.7032  1.3378
12526TIP3    H259070   2.417   2.573   1.345  1.4720  0.2842 -0.2239
12527TIP3   OH259071   0.110   3.503  14.546  0.4099  0.1427 -0.3719
12527TIP3    H159072   0.140   3.537  14.462 -0.1638 -1.4230 -1.2296
12527TIP3    H259073   0.190   3.471  14.589  0.5177 -0.3185 -0.9145
12528TIP3   OH259074   1.024   1.412  13.929  0.3156  0.0723 -0.3731
12528TIP3    H159075   1.052   1.320  13.927  0.1874 -0.0290  1.4416
12528TIP3    H259076   0.933   1.410  13.901 -0.3413 -0.6392  1.7554
12529TIP3   OH259077   0.977   5.449   6.283 -0.5501  0.1579 -0.6025
12529TIP3    H159078   0.920   5.461   6.207 -1.2915  0.3477 -0.0292
12529TIP3    H259079   0.969   5.356   6.305  0.7703 -0.1985 -1.6119
12530TIP3   OH259080   6.803   5.988   5.766 -0.6661  0.3189  0.3357
12530TIP3    H159081   6.740   5.920   5.791 -0.9434  0.6175  0.4440
12530TIP3    H259082   6.811   5.979   5.671 -0.2842 -0.2304  0.4197
12531TIP3   OH259083   6.141   0.835   4.221 -0.0746 -0.1985  0.7077
12531TIP3    H159084   6.204   0.898   4.186  0.6897 -0.9804  0.6906
12531TIP3    H259085   6.140   0.763   4.159 -0.8530 -0.2765  0.7993
12532TIP3   OH259086   6.762   2.601  11.365 -0.2107 -0.4499  0.5235
12532TIP3    H159087   6.848   2.635  11.387 -0.4804 -0.2616  1.3175
12532TIP3    H259088   6.776   2.509  11.342  0.4147 -0.0161 -0.8771
12533TIP3   OH259089   1.843   6.756   1.191  0.1451 -0.4054 -0.1540
12533TIP3    H159090   1.788   6.816   1.242  1.5847  1.0713 -0.3061
12533TIP3    H259091   1.825   6.779   1.100  2.1830  1.1967 -0.1865
12534TIP3   OH259092   2.320   3.252  13.424  0.0791  0.7377 -0.0998
12534TIP3    H159093   2.335   3.284  13.335  0.3437  2.8024  0.6471
12534TIP3    H259094   2.225   3.242  13.431 -0.2350  3.5473  0.3136
12535TIP3   OH259095   5.875   0.618  13.120 -0.5004  0.8617  0.7915
12535TIP3    H159096   5.899   0.625  13.213  1.4875 -0.0247  0.3745
12535TIP3    H259097   5.940   0.671  13.075  0.4089 -1.1752 -0.3412
12536TIP3   OH259098   4.403   1.753   2.913 -0.2100  0.0788  0.0734
12536TIP3    H159099   4.466   1.778   2.845  2.4242  0.1242  2.4320
12536TIP3    H259100   4.385   1.660   2.896 -0.0763  0.2577 -1.0625
12537TIP3   OH259101   5.986   5.858   2.827 -0.1397 -0.6996  0.4012
12537TIP3    H159102   6.000   5.925   2.894  1.4521 -0.1741 -0.4369
12537TIP3    H259103   5.904   5.882   2.785  0.0405  0.2974  0.6049
12538TIP3   OH259104   1.919   0.168   5.300 -0.0872 -0.0450 -0.1880
12538TIP3    H159105   1.828   0.190   5.318 -0.1039 -1.3157  1.2901
12538TIP3    H259106   1.969   0.224   5.359  0.0513 -0.3544 -0.0158
12539TIP3   OH259107   1.702   4.246   3.307 -0.1405 -0.1413 -0.3838
12539TIP3    H159108   1.629   4.306   3.294 -1.1842 -1.0777  0.9709
12539TIP3    H259109   1.672   4.186   3.376  1.8458 -0.6257  0.1028
12540TIP3   OH259110   6.532   5.393  16.863 -0.2942 -0.3738  0.1014
12540TIP3    H159111   6.533   5.362  16.953 -1.0480 -0.6504  0.0206
12540TIP3    H259112   6.491   5.479  16.867 -0.6104 -0.5141 -0.0070
12541TIP3   OH259113   6.298   4.781  16.342 -0.2520  0.3324  0.0524
12541TIP3    H159114   6.297   4.725  16.264  1.7735  1.0392 -0.5183
12541TIP3    H259115   6.239   4.853  16.320 -0.4603  0.0199 -0.4375
12542TIP3   OH259116   2.357   1.362  16.056 -0.2217  0.2875 -0.0845
12542TIP3    H159117   2.372   1.434  15.995  1.0441  1.2277  1.2824
12542TIP3    H259118   2.342   1.405  16.140  2.9168 -1.0438  1.2669
12543TIP3   OH259119   4.138   1.609   1.279  0.6225  0.0831 -0.2362
12543TIP3    H159120   4.064   1.559   1.244 -0.7982  0.9017  1.4948
12543TIP3    H259121   4.171   1.555   1.351 -0.5776  1.3481  1.2919
12544TIP3   OH259122   3.989   3.029  13.376 -0.2871 -0.2944 -0.3312
12544TIP3    H159123   3.962   2.995  13.461  1.0384  0.6460  0.4853
12544TIP3    H259124   3.910   3.068  13.340 -1.1630 -1.8114 -0.0870
12545TIP3   OH259125   1.620   4.270  11.565 -0.0383  0.1211 -0.0739
12545TIP3    H159126   1.576   4.207  11.508 -2.1066  0.3181  1.2426
12545TIP3    H259127   1.689   4.308  11.510  0.2403 -2.1359 -1.3571
12546TIP3   OH259128   0.763   5.245  16.638 -0.4728 -0.2167 -0.2261
12546TIP3    H159129   0.807   5.203  16.712 -0.1416  0.8929  0.2120
12546TIP3    H259130   0.688   5.188  16.621  0.3924 -1.4212 -0.1549
12547TIP3   OH259131   1.426   5.017   3.670 -0.1355 -0.1287  0.0803
12547TIP3    H159132   1.349   4.991   3.721 -0.2816  2.0454  0.9883
12547TIP3    H259133   1.417   5.111   3.659  3.2003  0.4208  1.5611
12548TIP3   OH259134   0.426   4.898  10.611  0.1471  0.0468 -0.2536
12548TIP3    H159135   0.417   4.849  10.529  1.4477 -0.3050 -0.2041
12548TIP3    H259136   0.484   4.843  10.664 -0.2773  0.5249  0.6994
12549TIP3   OH259137   5.178   2.758   5.906 -0.0238 -0.1838 -0.0755
12549TIP3    H159138   5.089   2.794   5.911  0.0258 -0.1374  0.5190
12549TIP3    H259139   5.234   2.830   5.933  0.2077 -0.1782 -0.5622
12550TIP3   OH259140   2.885   3.140  10.764  0.1621 -0.0310  0.3269
12550TIP3    H159141   2.826   3.134  10.839 -0.2718 -2.4610 -0.1903
12550TIP3    H259142   2.965   3.178  10.800 -0.0600 -1.1218  2.0083
12551TIP3   OH259143   5.496   1.500  11.251  0.0986 -0.8456 -0.3456
12551TIP3    H159144   5.432   1.554  11.297 -1.4161 -0.9564 -2.2403
12551TIP3    H259145   5.460   1.411  11.254  2.4699 -1.7979  2.5661
12552TIP3   OH259146   3.782   4.658   1.422  0.0131  0.2756 -0.4386
12552TIP3    H159147   3.752   4.585   1.476 -0.1047 -0.5703 -1.6270
12552TIP3    H259148   3.877   4.658   1.430 -0.0507  0.6343  0.3683
12553TIP3   OH259149   1.072   4.368   5.359  0.5517 -0.2349 -0.3211
12553TIP3    H159150   1.010   4.307   5.320  1.3950 -0.5402 -1.2184
12553TIP3    H259151   1.020   4.420   5.420 -0.5809 -0.4842 -1.0527
12554TIP3   OH259152   0.183   6.300  17.250  0.5180 -0.1496  0.3933
12554TIP3    H159153   0.192   6.367  17.182  1.0652 -0.3251  0.2902
12554TIP3    H259154   0.270   6.263  17.259  0.1761 -0.9749  0.3255
12555TIP3   OH259155   4.614   6.185   0.584  0.1851 -0.3262  0.2287
12555TIP3    H159156   4.692   6.130   0.579  0.2093 -0.1289 -1.8297
12555TIP3    H259157   4.605   6.223   0.496  0.6987  3.7320  1.8074
12556TIP3   OH259158   0.085   2.382   0.448  0.3503 -0.1926 -0.2014
12556TIP3    H159159  -0.010   2.373   0.453  0.0912  2.0498 -0.5822
12556TIP3    H259160   0.116   2.348   0.532 -1.1083  2.3426  1.4491
12557TIP3   OH259161   0.262   1.216  11.350  0.0876  0.4260  0.1755
12557TIP3    H159162   0.228   1.192  11.263  0.9231  0.5525 -0.1976
12557TIP3    H259163   0.186   1.249  11.397 -0.3336  0.5777 -0.5937
12558TIP3   OH259164   0.330   6.210   2.375  0.1469  0.1756  0.8311
12558TIP3    H159165   0.270   6.138   2.391 -0.1313  0.6066  1.7204
12558TIP3    H259166   0.373   6.187   2.292 -1.4489  0.0241  0.0398
12559TIP3   OH259167   3.202   3.365  13.658 -0.0680  0.3262 -0.0033
12559TIP3    H159168   3.262   3.433  13.687  0.7858 -0.3240 -0.2410
12559TIP3    H259169   3.256   3.304  13.608 -0.8468 -0.4699  0.1050
12560TIP3   OH259170   2.718   4.403  11.550  0.0524 -0.5618 -0.2203
12560TIP3    H159171   2.673   4.486  11.536 -0.3974 -0.6891  0.4503
12560TIP3    H259172   2.690   4.374  11.637  0.8369 -1.0145 -0.1055
12561TIP3   OH259173   0.476   3.304   4.869 -0.0813  0.0738  0.2215
12561TIP3    H159174   0.385   3.320   4.894 -0.0429  0.6448 -0.0185
12561TIP3    H259175   0.526   3.314   4.950 -0.3461 -1.2426  0.5707
12562TIP3   OH259176   6.442   3.820   3.691 -0.1434  0.6007 -0.1603
12562TIP3    H159177   6.503   3.775   3.633  0.5753  2.7182 -1.0988
12562TIP3    H259178   6.476   3.909   3.698 -2.6295  1.5927  0.0151
12563TIP3   OH259179   2.302   0.507  13.241  0.2601 -0.1723 -0.1770
12563TIP3    H159180   2.336   0.424  13.274  1.3347  0.6385  0.8032
12563TIP3    H259181   2.218   0.519  13.286 -0.5913 -1.4278 -1.4216
12564TIP3   OH259182   6.237   2.848  13.955 -0.0159  0.0472 -0.5766
12564TIP3    H159183   6.217   2.806  13.872 -0.3120  1.7759 -1.4201
12564TIP3    H259184   6.331   2.865  13.952  0.2702 -1.3819  0.1655
12565TIP3   OH259185   3.522   4.127   3.975  0.6884 -0.0652  0.0000
12565TIP3    H159186   3.615   4.110   3.986  0.6112 -0.7427 -0.3799
12565TIP3    H259187   3.508   4.213   4.017  1.3168 -0.3442  0.7994
12566TIP3   OH259188   0.387   4.322   0.538 -0.1679  0.1607 -0.2386
12566TIP3    H159189   0.395   4.249   0.599 -1.1224  0.1724 -0.1029
12566TIP3    H259190   0.429   4.291   0.458 -1.9423 -1.1183 -0.7023
12567TIP3   OH259191   5.924   5.149  11.693  0.1396  0.2331 -0.8192
12567TIP3    H159192   6.006   5.104  11.712 -0.5971 -1.7090 -2.1033
12567TIP3    H259193   5.902   5.195  11.775  0.2611 -2.7942  0.9871
12568TIP3   OH259194   1.357   6.313   3.239 -0.1377  0.3931  0.8120
12568TIP3    H159195   1.270   6.345   3.262  0.0898  0.5516  1.4573
12568TIP3    H259196   1.360   6.317   3.144 -0.6962  0.7591  0.8112
12569TIP3   OH259197   2.123   5.654   0.023  0.0883 -0.0775 -0.5388
12569TIP3    H159198   2.045   5.707   0.043  0.2472  0.6921 -1.8740
12569TIP3    H259199   2.153   5.623   0.108 -0.9955  0.5915  0.1121
12570TIP3   OH259200   6.530   1.864   1.790 -0.4013  0.3265  0.0001
12570TIP3    H159201   6.454   1.808   1.775  1.0589 -1.1465 -2.1377
12570TIP3    H259202   6.544   1.860   1.885 -1.3980 -1.5157  0.0961
12571TIP3   OH259203   1.251   0.087   5.746 -0.2809  0.2477 -0.1136
12571TIP3    H159204   1.343   0.064   5.734 -0.5424  0.1066 -1.9994
12571TIP3    H259205   1.236   0.078   5.840  1.6942  0.5250  0.2464
12572TIP3   OH259206   1.994   3.472  15.285 -0.2641  0.0308 -0.7260
12572TIP3    H159207   2.016   3.490  15.376 -1.6637  1.1882 -0.5939
12572TIP3    H259208   2.059   3.521  15.234 -0.6901  1.0044 -0.3415
12573TIP3   OH259209   3.955   5.314   5.535 -0.1813  0.2174  0.1803
12573TIP3    H159210   3.990   5.226   5.551 -1.8613 -0.7869 -1.5428
12573TIP3    H259211   4.032   5.365   5.509  0.4223 -1.4071 -1.3788
12574TIP3   OH259212   0.468   4.525  14.339  0.0800 -0.0107  0.1474
12574TIP3    H159213   0.454   4.495  14.250  0.0236  0.1870  0.0882
12574TIP3    H259214   0.465   4.446  14.392 -0.2208 -0.0922  0.0125
12575TIP3   OH259215   2.643   4.317  14.354 -0.7009  0.2924 -0.3783
12575TIP3    H159216   2.646   4.333  14.260 -1.4475 -0.0029 -0.4553
12575TIP3    H259217   2.735   4.304  14.380 -0.4932  0.4371 -1.0511
12576TIP3   OH259218   0.785   5.892  12.178  0.2814 -0.0069 -0.5411
12576TIP3    H159219   0.875   5.903  12.209  0.9828 -3.5169 -1.0535
12576TIP3    H259220   0.740   5.848  12.250 -1.1666  2.0717 -0.1347
12577TIP3   OH259221   4.745   1.474   4.584 -0.0888 -0.3562 -0.1079
12577TIP3    H159222   4.658   1.492   4.617 -0.4940 -0.1892 -1.2329
12577TIP3    H259223   4.804   1.520   4.644 -0.8858  1.1221 -0.4381
12578TIP3   OH259224   4.023   0.341  15.676 -0.1532 -0.1491 -0.2178
12578TIP3    H159225   4.089   0.277  15.704  0.2190  0.5189  0.4421
12578TIP3    H259226   4.069   0.395  15.612 -0.1255  0.1556  0.0553
12579TIP3   OH259227   4.314   1.063  14.232  0.1322  0.7368  0.0269
12579TIP3    H159228   4.347   0.988  14.281 -0.2594  0.3532 -0.2901
12579TIP3    H259229   4.283   1.124  14.299 -0.4442  0.1940  0.2615
12580TIP3   OH259230   0.412   5.395   0.174  0.0654  0.1278  0.1998
12580TIP3    H159231   0.499   5.368   0.202  0.3138 -0.5629 -1.1904
12580TIP3    H259232   0.399   5.481   0.213  1.1061 -0.0459  0.9417
12581TIP3   OH259233   0.318   5.310   2.268 -0.0801 -0.4491  0.5623
12581TIP3    H159234   0.357   5.272   2.347  0.0165  0.1376  0.7970
12581TIP3    H259235   0.240   5.355   2.299 -0.7991 -1.3615  0.1353
12582TIP3   OH259236   2.752   4.631  11.924 -0.5331 -0.1925  0.2102
12582TIP3    H159237   2.808   4.683  11.866  0.1977  0.2627  1.2941
12582TIP3    H259238   2.813   4.593  11.987 -1.3850 -0.1660  1.0516
12583TIP3   OH259239   4.748   6.184  10.714  0.4762 -0.1174 -0.0460
12583TIP3    H159240   4.720   6.269  10.679 -1.9579 -0.1438  1.7371
12583TIP3    H259241   4.685   6.121  10.678 -0.3439 -0.5364  2.0958
12584TIP3   OH259242   1.940   0.855  12.692  0.0578 -0.0350  0.5994
12584TIP3    H159243   2.015   0.808  12.655 -1.6732 -1.8950 -0.6392
12584TIP3    H259244   1.969   0.880  12.779  3.5757  2.8222 -1.2386
12585TIP3   OH259245   2.850   3.949   1.552  0.2477  0.1279 -0.1188
12585TIP3    H159246   2.878   4.023   1.606 -1.5067  0.6206  0.1327
12585TIP3    H259247   2.927   3.929   1.499  1.3587  0.9097  1.1465
12586TIP3   OH259248   1.503   6.526  11.979  0.2444 -0.1575 -0.4034
12586TIP3    H159249   1.409   6.543  11.974 -0.2109 -2.3086  0.1545
12586TIP3    H259250   1.515   6.481  12.062  2.0872  1.8149  0.4492
12587TIP3   OH259251   4.591   0.521   4.670  0.4785  0.1377 -0.0993
12587TIP3    H159252   4.510   0.470   4.658 -0.2211  1.3623 -0.6184
12587TIP3    H259253   4.569   0.586   4.737  1.0130  0.5150 -0.2848
12588TIP3   OH259254   5.419   0.183   0.142 -0.2932  0.3480  0.0787
12588TIP3    H159255   5.378   0.182   0.229 -2.8588 -1.2878 -1.1265
12588TIP3    H259256   5.473   0.105   0.140 -0.2059  0.4041  0.2087
12589TIP3   OH259257   4.804   3.910   2.239  0.2455 -0.2575 -0.1466
12589TIP3    H159258   4.819   3.968   2.313 -0.0488  1.8956 -1.7018
12589TIP3    H259259   4.891   3.878   2.215  0.3819 -0.6673  0.8763
12590TIP3   OH259260   6.025   5.589  13.559 -0.2086  0.2917  0.3624
12590TIP3    H159261   6.115   5.577  13.529 -0.8361  1.3307 -2.0398
12590TIP3    H259262   5.978   5.511  13.527 -0.7857  1.1897 -1.0317
12591TIP3   OH259263   4.911   6.739   5.131  0.0934  0.3517 -0.0337
12591TIP3    H159264   4.875   6.757   5.218  1.9292  0.8972  0.6337
12591TIP3    H259265   4.853   6.787   5.071 -2.7872 -2.1495  0.6038
12592TIP3   OH259266   6.041   1.863  12.445  0.2318  0.2919 -0.7999
12592TIP3    H159267   5.982   1.879  12.371 -0.4699 -0.0355 -0.3199
12592TIP3    H259268   6.058   1.950  12.482 -1.8048  0.1780  0.4627
12593TIP3   OH259269   3.470   3.147   4.526 -1.0147 -0.3479 -0.6181
12593TIP3    H159270   3.396   3.088   4.510 -0.8159 -1.1883  1.3727
12593TIP3    H259271   3.497   3.175   4.439 -2.2321 -1.8273 -1.5110
12594TIP3   OH259272   2.626   0.921   0.230 -0.5986 -0.1048 -0.4039
12594TIP3    H159273   2.586   0.987   0.287 -1.5160 -0.8708 -0.1446
12594TIP3    H259274   2.553   0.888   0.178 -0.3281 -1.6202  0.1689
12595TIP3   OH259275   1.166   2.701  13.839  0.6518 -0.2940  0.5056
12595TIP3    H159276   1.200   2.790  13.844 -0.1642 -0.0538  2.1568
12595TIP3    H259277   1.072   2.710  13.849  0.4056 -1.2290 -0.8412
12596TIP3   OH259278   5.638   1.234   2.511 -0.2078 -0.7134 -0.3015
12596TIP3    H159279   5.708   1.197   2.566  0.6618  0.1596 -0.8110
12596TIP3    H259280   5.566   1.249   2.572  0.3888 -0.7143  0.4180
12597TIP3   OH259281   4.322   1.649  14.808  0.3756 -0.5368  0.0190
12597TIP3    H159282   4.407   1.608  14.796  1.2744  0.8834  1.2560
12597TIP3    H259283   4.337   1.742  14.789 -0.1387  0.2595  3.1752
12598TIP3   OH259284   6.533   6.073   0.954  0.8813  0.1515 -0.1184
12598TIP3    H159285   6.624   6.077   0.982  0.3704  0.5291  1.6192
12598TIP3    H259286   6.510   5.980   0.958  1.3379 -0.0040 -1.0807
12599TIP3   OH259287   3.079   3.795   3.463  0.0410 -0.5033  0.7795
12599TIP3    H159288   3.150   3.847   3.501  0.4883  0.3784 -1.2411
12599TIP3    H259289   2.999   3.835   3.496  0.4272  0.0771  1.0181
12600TIP3   OH259290   2.275   3.165   3.716 -0.1500  0.1325 -0.3117
12600TIP3    H159291   2.254   3.258   3.717 -0.5361  0.0984 -2.8241
12600TIP3    H259292   2.345   3.156   3.651  1.8314 -0.9836  1.8617
12601TIP3   OH259293   2.521   4.166   3.263 -0.1849  0.5022  0.1495
12601TIP3    H159294   2.500   4.242   3.208 -0.5864 -1.0208 -1.8788
12601TIP3    H259295   2.587   4.198   3.325 -2.6780  3.3099  1.4412
12602TIP3   OH259296   0.586   4.655  16.055  0.0359 -0.0130  0.0119
12602TIP3    H159297   0.588   4.716  16.128 -0.7322 -0.4255  0.3852
12602TIP3    H259298   0.640   4.696  15.988  2.8897 -0.8245  1.7336
12603TIP3   OH259299   3.971   0.601  12.412  0.0224  0.3826  0.7540
12603TIP3    H159300   3.902   0.579  12.349  1.3800 -3.6982  0.5441
12603TIP3    H259301   4.027   0.662  12.365 -1.4936  0.9628 -0.3498
12604TIP3   OH259302   0.579   6.238   5.485  0.1110  0.4355  0.4941
12604TIP3    H159303   0.485   6.255   5.479 -0.0766 -0.0577  1.8290
12604TIP3    H259304   0.595   6.220   5.578  1.1566 -1.5018 -0.0105
12605TIP3   OH259305   2.065   3.770   5.834 -0.3458  0.3183  0.1361
12605TIP3    H159306   2.124   3.709   5.877 -3.6259 -1.5398  2.2816
12605TIP3    H259307   2.006   3.715   5.783 -1.5894  1.8835 -0.1563
12606TIP3   OH259308   4.173   1.329   3.018  0.6604  0.2234  0.2911
12606TIP3    H159309   4.252   1.280   2.997 -0.3662 -1.8281  1.0808
12606TIP3    H259310   4.108   1.299   2.954  0.1644  0.9733  0.4325
12607TIP3   OH259311   0.544   3.975  12.753 -0.1831 -1.0929  0.3198
12607TIP3    H159312   0.463   3.925  12.743 -0.3945 -0.6537 -0.2128
12607TIP3    H259313   0.609   3.926  12.702 -0.6377 -0.2768 -1.0821
12608TIP3   OH259314   4.020   4.703  13.303 -0.0457 -0.6329 -0.1001
12608TIP3    H159315   3.953   4.692  13.235  0.1967  1.6445 -0.7298
12608TIP3    H259316   4.094   4.651  13.273 -0.9517 -1.9210 -0.1612
12609TIP3   OH259317   1.146   2.380  12.058  0.3670  0.3990 -0.4957
12609TIP3    H159318   1.183   2.292  12.053  0.3729  0.4178 -0.7637
12609TIP3    H259319   1.206   2.434  12.007  1.9004  1.0654  1.9155
12610TIP3   OH259320   4.043   6.720  15.537  0.1491 -0.2868 -0.2438
12610TIP3    H159321   4.105   6.655  15.503  0.6776 -0.2020  0.5689
12610TIP3    H259322   4.031   6.781  15.464  1.2417 -0.1447 -0.3182
12611TIP3   OH259323   6.424   3.249   4.015  0.3388  0.8468  0.1428
12611TIP3    H159324   6.392   3.158   4.012 -0.4810  1.1670 -0.9893
12611TIP3    H259325   6.357   3.299   3.969 -0.6475  2.4789  3.2150
12612TIP3   OH259326   5.541   3.507   5.098  0.1915  0.0759 -0.3270
12612TIP3    H159327   5.609   3.445   5.071  1.4251  0.5701  1.5918
12612TIP3    H259328   5.540   3.573   5.029  1.4364 -0.1087 -0.5302
12613TIP3   OH259329   2.313   3.617  13.286  0.5068  0.5409  0.1030
12613TIP3    H159330   2.232   3.657  13.317  0.1539  1.2898 -1.7257
12613TIP3    H259331   2.337   3.668  13.208  0.7733 -1.9077 -1.4777
12614TIP3   OH259332   4.675   6.688   4.776 -0.5719  0.2263 -0.4342
12614TIP3    H159333   4.618   6.621   4.740  1.3464 -2.7417  1.8505
12614TIP3    H259334   4.620   6.734   4.841 -1.2885 -0.4749 -0.5424
12615TIP3   OH259335   4.424   5.193   2.510 -0.5351  0.3768  0.0214
12615TIP3    H159336   4.475   5.156   2.438  0.3756  0.4515  0.6191
12615TIP3    H259337   4.360   5.250   2.467  0.4626  0.9846 -0.7041
12616TIP3   OH259338   2.749   1.406  10.693  0.1565  0.2371  0.4602
12616TIP3    H159339   2.779   1.325  10.652 -1.5703 -0.4410  0.5178
12616TIP3    H259340   2.781   1.475  10.635  0.8799 -0.5180 -0.0577
12617TIP3   OH259341   4.988   6.019   4.360  0.8355  0.3819 -0.3924
12617TIP3    H159342   5.026   6.068   4.433 -0.5660  2.1025 -0.8045
12617TIP3    H259343   4.959   6.086   4.298 -1.2080 -0.9455 -0.9264
12618TIP3   OH259344   3.417   6.771  12.358 -0.1940 -0.0298 -0.7730
12618TIP3    H159345   3.352   6.703  12.374 -0.4121 -0.1206 -2.0170
12618TIP3    H259346   3.378   6.828  12.292 -1.2217  2.9785  2.2545
12619TIP3   OH259347   1.235   4.980  11.117 -0.5885 -0.2136  0.4055
12619TIP3    H159348   1.261   5.065  11.081 -1.0185 -1.0941 -2.0608
12619TIP3    H259349   1.154   4.958  11.072  0.0553 -2.3899  0.2217
12620TIP3   OH259350   0.400   4.351   2.048 -0.0337 -0.4190  0.5824
12620TIP3    H159351   0.358   4.268   2.026  2.0458 -1.3522  0.0180
12620TIP3    H259352   0.444   4.335   2.131  0.5685  0.0227  0.3593
12621TIP3   OH259353   5.396   2.374  16.751  0.8690  0.0165  0.0416
12621TIP3    H159354   5.312   2.336  16.726  1.3067 -2.6551  2.3137
12621TIP3    H259355   5.377   2.423  16.832  1.1636  0.9006 -0.4213
12622TIP3   OH259356   6.014   6.707  12.351  0.2797  0.4775  0.1619
12622TIP3    H159357   6.022   6.732  12.259 -3.8238  2.1672  0.1715
12622TIP3    H259358   6.001   6.612  12.348  4.2021 -0.1245 -0.6440
12623TIP3   OH259359   1.395   2.581  14.265 -0.1856  0.3465  0.2520
12623TIP3    H159360   1.473   2.589  14.210 -0.4123  1.1825  0.0370
12623TIP3    H259361   1.323   2.569  14.204 -0.2333 -0.4011  0.4498
12624TIP3   OH259362   4.233   0.886   4.282 -0.0063  0.1869 -0.3130
12624TIP3    H159363   4.245   0.840   4.199 -1.7357 -0.3747 -0.2875
12624TIP3    H259364   4.207   0.817   4.343  1.6656  0.5320  0.8027
12625TIP3   OH259365   6.691   6.799  13.924  0.3379 -0.1155  0.2296
12625TIP3    H159366   6.645   6.821  14.005 -0.5411 -0.5412 -0.1532
12625TIP3    H259367   6.738   6.879  13.901 -0.0570  0.2612  0.7294
12626TIP3   OH259368   0.474   0.334   1.813  0.1523  0.0482  0.3660
12626TIP3    H159369   0.382   0.329   1.786  0.0901  1.0745  0.3438
12626TIP3    H259370   0.519   0.272   1.756 -0.3109  0.5855 -0.6019
12627TIP3   OH259371   0.188   3.217  16.001  0.9255  0.4690  0.4359
12627TIP3    H159372   0.145   3.301  16.017 -0.6237  0.3522 -2.6425
12627TIP3    H259373   0.141   3.155  16.057 -0.2306  1.0560  0.1303
12628TIP3   OH259374   1.217   4.912  12.137 -0.4304 -0.3562  0.0791
12628TIP3    H159375   1.239   4.820  12.156 -0.5120 -0.2295  0.7860
12628TIP3    H259376   1.138   4.929  12.187 -1.3849 -0.3928 -1.3865
12629TIP3   OH259377   2.011   2.225  13.704  0.3007  0.4405 -0.7346
12629TIP3    H159378   2.050   2.171  13.772  0.1683  1.0954 -0.1302
12629TIP3    H259379   1.941   2.171  13.668  0.4020  0.0721 -0.3850
12630TIP3   OH259380   6.281   3.731  14.119  0.1818 -0.1206  0.2941
12630TIP3    H159381   6.220   3.671  14.076  0.0519 -2.1166  3.1719
12630TIP3    H259382   6.246   3.818  14.101 -2.0490 -1.1133 -0.2568
12631TIP3   OH259383   4.605   3.947  16.165 -0.4352 -0.1413 -0.2685
12631TIP3    H159384   4.645   4.021  16.210 -1.4924  0.2186  0.0983
12631TIP3    H259385   4.679   3.899  16.127  0.2286  1.2586 -0.7608
12632TIP3   OH259386   5.482   4.957   0.034 -0.3493 -0.3514  0.1018
12632TIP3    H159387   5.413   4.928   0.095 -1.2504  0.7155 -0.3917
12632TIP3    H259388   5.443   4.947  -0.053 -0.3645  1.4836 -0.1211
12633TIP3   OH259389   5.349   5.447  14.140  0.3840 -0.5822  0.3023
12633TIP3    H159390   5.345   5.352  14.150 -0.4107 -0.5387  0.3652
12633TIP3    H259391   5.331   5.482  14.227 -1.2785 -0.3345 -0.1286
12634TIP3   OH259392   1.340   3.151   6.335 -0.0048 -0.0451  0.2778
12634TIP3    H159393   1.433   3.132   6.324  0.7216  2.9134  0.7577
12634TIP3    H259394   1.296   3.102   6.265  2.2157  0.9015 -1.8397
12635TIP3   OH259395   2.780   3.994   2.401 -0.1647 -0.2409 -0.5111
12635TIP3    H159396   2.823   3.975   2.318  1.6006  1.6906 -0.0740
12635TIP3    H259397   2.693   4.026   2.377 -0.3991 -1.5953 -1.5146
12636TIP3   OH259398   6.394   5.287   3.913 -0.1177 -0.0418  0.0675
12636TIP3    H159399   6.386   5.381   3.931  0.5225 -0.4116  2.5454
12636TIP3    H259400   6.305   5.253   3.923 -0.0072 -0.0085  1.2290
12637TIP3   OH259401   5.287   4.276  16.425  0.4948  0.1299 -0.0948
12637TIP3    H159402   5.244   4.202  16.466 -0.2972  1.2622  1.1656
12637TIP3    H259403   5.315   4.331  16.498  1.7016  0.7308 -0.9852
12638TIP3   OH259404   4.013   2.254   0.944 -0.7404  1.1052  0.2748
12638TIP3    H159405   4.038   2.167   0.974  0.7726  1.8180  1.1706
12638TIP3    H259406   3.917   2.252   0.941 -0.6817 -1.0389 -1.1985
12639TIP3   OH259407   6.304   5.297   3.652 -0.0343 -0.1008  0.4505
12639TIP3    H159408   6.265   5.384   3.649 -1.5837 -0.6738  2.3597
12639TIP3    H259409   6.373   5.304   3.718 -0.4334 -0.4147  0.9038
12640TIP3   OH259410   1.933   3.913   5.055 -0.0950  0.2513 -0.7002
12640TIP3    H159411   1.997   3.919   4.984  0.9832  0.7180  0.3038
12640TIP3    H259412   1.927   4.002   5.090  1.2939 -0.4536  1.4486
12641TIP3   OH259413   2.385   1.913   1.688 -0.3198  0.8187 -0.0473
12641TIP3    H159414   2.383   1.820   1.711 -1.1594  1.3917  2.3975
12641TIP3    H259415   2.471   1.927   1.649  0.0866 -0.8209  0.2387
12642TIP3   OH259416   6.171   6.458   1.103  0.3152 -0.6914  0.1038
12642TIP3    H159417   6.251   6.465   1.155 -0.9653 -3.1600  2.5364
12642TIP3    H259418   6.181   6.377   1.053  0.8627  0.8786 -2.4260
12643TIP3   OH259419   4.364   3.738  11.885  0.2874 -0.4147 -0.0140
12643TIP3    H159420   4.344   3.647  11.862  1.8822 -0.4230 -1.4632
12643TIP3    H259421   4.328   3.749  11.973 -1.0486 -2.0648 -0.3308
12644TIP3   OH259422   4.945   4.827  10.692  0.3677  0.4543  0.2376
12644TIP3    H159423   4.978   4.770  10.761 -0.2086  0.7116  0.7286
12644TIP3    H259424   4.999   4.805  10.616  1.0217  0.1828  0.7647
12645TIP3   OH259425   0.924   2.171   1.332  0.0416 -0.4066  0.1041
12645TIP3    H159426   0.983   2.195   1.261 -1.9072 -1.4136 -1.8735
12645TIP3    H259427   0.916   2.076   1.327 -0.4366 -0.4603  1.4287
12646TIP3   OH259428   6.541   4.558   5.077  0.4848 -0.5115  0.1547
12646TIP3    H159429   6.470   4.531   5.018  1.2392 -2.7913  0.2212
12646TIP3    H259430   6.542   4.490   5.145  1.9434  0.1566  0.8249
12647TIP3   OH259431   2.373   3.924  13.441 -0.0808  0.0217  0.0717
12647TIP3    H159432   2.389   3.832  13.459 -2.4200 -0.4665 -0.0846
12647TIP3    H259433   2.377   3.967  13.526 -1.3836 -0.6581  0.4948
12648TIP3   OH259434   6.367   2.930  16.170  0.0244  0.8274 -0.0837
12648TIP3    H159435   6.421   3.001  16.205 -1.9167  1.6626  1.3219
12648TIP3    H259436   6.340   2.880  16.247  2.6929 -2.4580 -1.2030
12649TIP3   OH259437   4.835   3.285  12.238  0.0218 -0.2630 -0.1017
12649TIP3    H159438   4.780   3.359  12.212 -1.6902 -1.5932 -0.3454
12649TIP3    H259439   4.848   3.297  12.332 -2.1469 -0.8464  0.3094
12650TIP3   OH259440   3.105   2.168   5.290 -0.1362  0.2896  0.1775
12650TIP3    H159441   3.029   2.214   5.253 -1.0902  0.8055  2.6688
12650TIP3    H259442   3.115   2.091   5.233 -2.0595  0.6107 -0.6676
12651TIP3   OH259443   5.191   2.217   3.949  0.2452 -0.0076 -0.3762
12651TIP3    H159444   5.196   2.188   3.858 -1.5721 -1.0992 -0.1528
12651TIP3    H259445   5.198   2.312   3.944 -0.2737 -0.0229 -1.7014
12652TIP3   OH259446   6.214   4.593   3.506 -0.3626 -0.1615  0.3367
12652TIP3    H159447   6.252   4.669   3.549 -1.1788  0.8612 -0.7202
12652TIP3    H259448   6.287   4.532   3.495  0.7413  1.3085 -0.6628
12653TIP3   OH259449   3.542   1.126   2.956  0.0742 -0.5686 -0.2876
12653TIP3    H159450   3.619   1.071   2.969  0.1169 -0.7727 -1.4237
12653TIP3    H259451   3.470   1.064   2.945 -0.0855 -0.3818 -0.2945
12654TIP3   OH259452   0.770   5.148  11.354  0.4023 -0.0663 -0.2211
12654TIP3    H159453   0.848   5.194  11.385  1.2316 -0.6980 -1.3479
12654TIP3    H259454   0.753   5.185  11.268 -0.7653  0.3241  0.1747
12655TIP3   OH259455   3.219   4.902   5.561 -0.4625  0.3356  0.0415
12655TIP3    H159456   3.129   4.912   5.594 -0.8596  0.9202 -1.1597
12655TIP3    H259457   3.209   4.900   5.466  0.7607 -0.0713 -0.0845
12656TIP3   OH259458   3.841   1.180   1.366  0.1020  0.3944  0.3043
12656TIP3    H159459   3.814   1.134   1.445  0.7205  1.8277  1.3683
12656TIP3    H259460   3.793   1.263   1.368 -0.1497  0.3037 -1.0189
12657TIP3   OH259461   3.312   3.958   1.439 -0.6341  0.7897  0.6564
12657TIP3    H159462   3.322   4.030   1.501 -1.3029  0.4488  1.1640
12657TIP3    H259463   3.218   3.940   1.439 -0.6885  1.0090 -0.7023
12658TIP3   OH259464   2.998   5.141   3.669 -0.4955 -0.3932  0.0428
12658TIP3    H159465   3.072   5.109   3.721 -0.3108 -0.7497 -0.4305
12658TIP3    H259466   2.944   5.064   3.654 -0.8601 -0.1712  0.2239
12659TIP3   OH259467   3.035   4.408  16.098  0.9550 -0.6442  1.0430
12659TIP3    H159468   3.037   4.471  16.169  0.3986 -0.8332  1.2254
12659TIP3    H259469   3.006   4.326  16.139 -0.5054 -0.4643  0.3757
12660TIP3   OH259470   0.002   0.500  13.314  0.2703 -0.2900  0.2876
12660TIP3    H159471   0.049   0.582  13.301  0.1391 -0.1932  0.4368
12660TIP3    H259472  -0.025   0.474  13.226 -1.0066  0.5951  0.4176
12661TIP3   OH259473   1.787   5.317  15.062  0.3193 -0.4913 -0.6343
12661TIP3    H159474   1.836   5.389  15.021 -1.0307  0.3916 -0.7374
12661TIP3    H259475   1.845   5.284  15.130  1.0348  0.5984 -0.7014
12662TIP3   OH259476   4.996   0.529  13.951  0.1848  1.0326  0.2991
12662TIP3    H159477   5.023   0.522  14.042  0.8441  3.2139  0.3088
12662TIP3    H259478   4.993   0.623  13.934  2.1067  0.6505 -2.5313
12663TIP3   OH259479   1.578   2.280   3.223  0.1147  0.1185  0.3347
12663TIP3    H159480   1.523   2.202   3.222 -1.1839  0.9556  3.0038
12663TIP3    H259481   1.516   2.353   3.232  1.4546  1.3207 -0.0461
12664TIP3   OH259482   1.923   6.579  11.777  0.1553  0.1673  0.4425
12664TIP3    H159483   1.868   6.519  11.828 -0.3593  0.7429  0.5802
12664TIP3    H259484   1.861   6.623  11.718  0.3959  1.1493  0.9149
12665TIP3   OH259485   5.163   4.238  11.286 -0.1530  0.0596 -0.9527
12665TIP3    H159486   5.095   4.173  11.266 -0.0627 -0.1028 -0.7306
12665TIP3    H259487   5.173   4.287  11.204 -0.9119  0.4304 -0.8317
12666TIP3   OH259488   6.355   5.830  11.628 -0.5610 -0.5432 -0.1841
12666TIP3    H159489   6.373   5.740  11.657 -2.8158 -1.0780 -0.3785
12666TIP3    H259490   6.266   5.827  11.594 -0.7492  1.8350  0.0274
12667TIP3   OH259491   3.580   3.738  12.762  0.6827 -0.3515 -0.4463
12667TIP3    H159492   3.526   3.670  12.803  0.4117  0.2344  0.1900
12667TIP3    H259493   3.582   3.715  12.669 -2.2783  0.6672 -0.8368
12668TIP3   OH259494   4.431   5.595   3.226 -0.0769  0.0820  0.4688
12668TIP3    H159495   4.525   5.607   3.224 -0.0228  0.1991  2.5430
12668TIP3    H259496   4.411   5.573   3.317 -2.0030 -0.3109 -0.0106
12669TIP3   OH259497   2.476   2.579   2.249 -0.0393 -1.0062  0.1024
12669TIP3    H159498   2.383   2.571   2.272 -0.8118  3.1607 -1.2117
12669TIP3    H259499   2.520   2.599   2.331 -1.1157  2.3152 -0.0868
12670TIP3   OH259500   4.379   4.303   2.119 -0.2245 -0.1169 -0.1850
12670TIP3    H159501   4.430   4.383   2.112  1.0778 -0.8059  1.0381
12670TIP3    H259502   4.387   4.262   2.033 -1.1362  1.1914 -0.9009
12671TIP3   OH259503   3.521   0.741  12.768 -0.5289 -0.2835 -0.0516
12671TIP3    H159504   3.461   0.746  12.694 -0.0170 -0.5357 -0.4905
12671TIP3    H259505   3.484   0.674  12.825 -1.5605  0.7533  0.4999
12672TIP3   OH259506   0.576   5.204  15.334  0.3033  0.0325  0.0401
12672TIP3    H159507   0.620   5.134  15.285 -0.1363 -0.6821  0.6641
12672TIP3    H259508   0.526   5.159  15.402  0.1616  0.9632  0.5682
12673TIP3   OH259509   3.041   3.981  16.621  0.1622 -0.0939 -0.3382
12673TIP3    H159510   2.946   3.991  16.623  0.1091  0.0169 -2.4671
12673TIP3    H259511   3.056   3.892  16.652 -0.4847  0.6029  2.0372
12674TIP3   OH259512   1.667   2.727  12.906 -0.2728 -0.7382  0.2959
12674TIP3    H159513   1.639   2.635  12.908  0.7567 -1.0376  0.6967
12674TIP3    H259514   1.756   2.724  12.870 -0.5885  0.1927 -0.5857
12675TIP3   OH259515   0.487   4.574   4.312  0.1203  0.4059 -0.6653
12675TIP3    H159516   0.412   4.625   4.343  0.1866  0.5874 -0.8031
12675TIP3    H259517   0.464   4.484   4.332  0.5988  0.5929  0.8368
12676TIP3   OH259518   3.424   6.303   5.159  0.4438 -0.5590  0.1509
12676TIP3    H159519   3.360   6.374   5.156  1.3681  0.3970  2.3980
12676TIP3    H259520   3.376   6.226   5.128 -0.3036  1.1867 -3.3398
12677TIP3   OH259521   2.142   2.869  11.700 -0.5562  0.8434 -0.0009
12677TIP3    H159522   2.153   2.963  11.683  1.8239  0.7491  0.7728
12677TIP3    H259523   2.182   2.856  11.786 -0.3022 -0.9939 -0.3868
12678TIP3   OH259524   4.888   6.548   4.892  0.6250  0.3542 -0.5429
12678TIP3    H159525   4.850   6.465   4.920  0.0667  1.4183  1.9734
12678TIP3    H259526   4.819   6.591   4.842 -0.5625  1.0662  1.6507
12679TIP3   OH259527   1.340   4.603   2.578 -0.0447  0.3761  0.2857
12679TIP3    H159528   1.408   4.574   2.638 -0.0864  3.0294  1.6862
12679TIP3    H259529   1.389   4.642   2.505 -0.0136  1.8991  1.0944
12680TIP3   OH259530   1.457   4.950  13.613  0.0563 -0.7200  0.0225
12680TIP3    H159531   1.372   4.907  13.627 -0.3960  0.0537 -0.3351
12680TIP3    H259532   1.476   4.992  13.697 -1.2910  1.5003 -0.7142
12681TIP3   OH259533   6.770   3.307  14.080  0.4637 -0.2537  0.0870
12681TIP3    H159534   6.693   3.258  14.050 -1.3492  2.1072  0.7259
12681TIP3    H259535   6.813   3.248  14.142 -1.4406 -1.2170  0.5295
12682TIP3   OH259536   3.687   4.628   2.458 -0.1689 -0.4262 -0.1540
12682TIP3    H159537   3.780   4.633   2.482 -0.3652 -1.2787  0.7816
12682TIP3    H259538   3.685   4.566   2.385  0.3733  1.8721 -2.2139
12683TIP3   OH259539   0.789   4.750  10.967  0.3990  0.2360  0.3671
12683TIP3    H159540   0.707   4.756  10.919  0.3595 -4.0442 -0.2998
12683TIP3    H259541   0.763   4.724  11.056  0.9778 -0.6343  0.2894
12684TIP3   OH259542   1.001   0.902   4.138  0.3516  0.3063 -0.3920
12684TIP3    H159543   0.947   0.908   4.060  1.0005 -0.5963 -0.9090
12684TIP3    H259544   1.052   0.823   4.127  0.1127 -0.0914  1.1710
12685TIP3   OH259545   6.281   6.238   2.935 -0.0343  0.0474  0.1181
12685TIP3    H159546   6.317   6.318   2.973  1.6484 -0.8514  0.4319
12685TIP3    H259547   6.356   6.182   2.920 -1.3970 -2.5194  2.3021
12686TIP3   OH259548   0.046   2.496   4.593 -0.3957 -0.2341  0.0519
12686TIP3    H159549   0.001   2.480   4.676  0.9379  1.8209  1.2223
12686TIP3    H259550   0.119   2.435   4.593  0.5779  0.8836  1.2120
12687TIP3   OH259551   2.547   2.572  15.263 -0.0745 -0.8480  0.0405
12687TIP3    H159552   2.501   2.656  15.255 -0.5850 -1.0854  0.5010
12687TIP3    H259553   2.572   2.550  15.174 -0.3242 -0.4235 -0.1378
12688TIP3   OH259554   1.583   3.811  15.429  0.3987  0.2405  0.2381
12688TIP3    H159555   1.543   3.867  15.496 -0.0410 -1.4017  1.3790
12688TIP3    H259556   1.516   3.803  15.361 -0.0938 -0.0904  0.7584
12689TIP3   OH259557   1.931   5.943  15.122 -0.7760 -0.2722 -0.1903
12689TIP3    H159558   1.951   5.938  15.028 -1.3851  0.3431 -0.3514
12689TIP3    H259559   1.957   5.858  15.157 -0.1173 -0.3395 -0.8357
12690TIP3   OH259560   5.869   1.386  11.143  0.3768 -0.6502  0.0361
12690TIP3    H159561   5.846   1.302  11.104 -2.6722  0.9593 -1.7929
12690TIP3    H259562   5.915   1.433  11.073  0.7248 -0.2166  0.5545
12691TIP3   OH259563   0.069   3.927   1.803 -0.2816 -0.8165  0.4158
12691TIP3    H159564   0.024   3.856   1.757  0.2452 -0.7945 -0.1424
12691TIP3    H259565   0.122   3.970   1.736 -1.6285  0.9669  0.4661
12692TIP3   OH259566   5.631   3.715  17.000 -0.1078  0.0182  0.0374
12692TIP3    H159567   5.724   3.696  16.992  0.2232  1.3807  0.5010
12692TIP3    H259568   5.588   3.630  16.993  1.2540 -0.7920  1.4015
12693TIP3   OH259569   3.617   3.711   5.146  0.1730 -0.4049 -0.3255
12693TIP3    H159570   3.672   3.645   5.187  0.7181  1.3316  1.8714
12693TIP3    H259571   3.530   3.671   5.141  0.7452 -1.6926 -0.1575
12694TIP3   OH259572   3.315   4.738  10.663 -0.0933 -0.2135 -0.1923
12694TIP3    H159573   3.249   4.670  10.679  1.2738 -1.6276 -0.3972
12694TIP3    H259574   3.325   4.783  10.747  0.9506 -2.0717  0.7113
12695TIP3   OH259575   2.235   3.945   5.949 -0.2995 -0.3422 -0.4138
12695TIP3    H159576   2.257   3.901   6.031  0.8811  0.0556 -0.5102
12695TIP3    H259577   2.174   3.885   5.906 -0.5330 -0.7901  0.5177
12696TIP3   OH259578   1.719   1.331  14.168 -0.3447 -0.8643 -0.2749
12696TIP3    H159579   1.720   1.265  14.099  1.8357 -1.2064  0.0394
12696TIP3    H259580   1.746   1.283  14.247 -0.2190  0.0833  0.2673
12697TIP3   OH259581   3.723   3.352   0.270 -0.0882  0.3769 -0.5156
12697TIP3    H159582   3.739   3.392   0.355  0.3909  0.1642 -0.5041
12697TIP3    H259583   3.668   3.415   0.223  0.6923  1.0645 -0.5071
12698TIP3   OH259584   6.788   3.888   5.581 -0.0853 -0.3825 -0.7776
12698TIP3    H159585   6.841   3.967   5.571 -0.4001 -0.2483 -1.3675
12698TIP3    H259586   6.837   3.835   5.644 -0.1886  0.5571  0.1189
12699TIP3   OH259587   4.992   3.170  14.234  0.1039  0.3683  0.0376
12699TIP3    H159588   5.024   3.129  14.154 -0.7846  1.3133 -0.8125
12699TIP3    H259589   5.027   3.260  14.230  0.8305  0.1545  1.1730
12700TIP3   OH259590   2.670   0.341  12.860 -0.2515 -0.3904  0.2466
12700TIP3    H159591   2.712   0.256  12.869  1.5745  0.4727  0.0528
12700TIP3    H259592   2.708   0.379  12.781 -2.8728 -0.4022 -1.0577
12701TIP3   OH259593   0.537   2.772   1.461 -0.3999  0.1780  0.2813
12701TIP3    H159594   0.603   2.768   1.531  1.5561  1.2706 -1.4329
12701TIP3    H259595   0.505   2.682   1.453  0.0318 -0.1441  1.9274
12702TIP3   OH259596   0.071   4.439   1.845  0.4888 -0.1746 -0.1270
12702TIP3    H159597   0.099   4.522   1.807  0.1994 -0.1647 -0.3215
12702TIP3    H259598   0.098   4.443   1.936  1.3208 -0.2602 -0.3676
12703TIP3   OH259599   5.717   4.149   5.612  0.3217 -0.3970 -0.5319
12703TIP3    H159600   5.719   4.226   5.555  1.2581 -0.1174 -0.1385
12703TIP3    H259601   5.627   4.117   5.606 -0.1184  0.8144 -0.5807
12704TIP3   OH259602   1.377   1.233  11.634  0.5091  0.1591  0.0188
12704TIP3    H159603   1.363   1.312  11.687  1.3930  0.3197  0.0141
12704TIP3    H259604   1.342   1.255  11.548  1.7526  0.9298 -0.2935
12705TIP3   OH259605   1.169   0.112  16.689 -0.3151 -0.0034 -0.0573
12705TIP3    H159606   1.152   0.202  16.716 -1.4673 -0.0769 -0.4990
12705TIP3    H259607   1.160   0.113  16.594  1.4061 -0.2330 -0.2426
12706TIP3   OH259608   6.739   1.746   5.683 -0.1398  0.6738 -0.3666
12706TIP3    H159609   6.645   1.746   5.665 -0.6434 -0.8928  2.0363
12706TIP3    H259610   6.753   1.825   5.735 -0.1926  0.8109 -0.5641
12707TIP3   OH259611   0.618   6.357  15.444 -0.8030 -0.2319 -0.1962
12707TIP3    H159612   0.534   6.351  15.490 -0.9583  0.3909 -0.4018
12707TIP3    H259613   0.683   6.364  15.514 -1.1221  1.7632 -0.0694
12708TIP3   OH259614   4.217   4.943  14.919  0.1833 -0.3272  0.0427
12708TIP3    H159615   4.244   4.951  14.828 -2.6144 -1.8646 -0.9923
12708TIP3    H259616   4.229   5.031  14.956  0.5209  0.5303 -2.0546
12709TIP3   OH259617   5.433   1.952   4.745 -0.8025 -0.3973  0.0490
12709TIP3    H159618   5.352   1.904   4.731 -1.4001  0.8576 -0.8846
12709TIP3    H259619   5.407   2.031   4.792  0.0395 -0.5365  0.7582
12710TIP3   OH259620   0.572   5.620   5.062 -0.8410 -0.4417 -0.4079
12710TIP3    H159621   0.612   5.553   5.005 -1.3108 -1.5375  0.5401
12710TIP3    H259622   0.487   5.584   5.086 -0.0092 -0.6971  2.2590
12711TIP3   OH259623   6.004   5.256  15.478  0.6824  0.4285 -0.5774
12711TIP3    H159624   6.063   5.209  15.537 -0.8531 -2.1821 -1.0161
12711TIP3    H259625   6.061   5.299  15.415  2.1706 -0.1812  0.3288
12712TIP3   OH259626   4.181   3.115   2.245  0.2246  0.5896 -0.0752
12712TIP3    H159627   4.180   3.020   2.258  0.2164  0.6792  0.5818
12712TIP3    H259628   4.196   3.126   2.151 -3.1059 -0.1360 -0.7848
12713TIP3   OH259629   1.648   1.306  15.645 -0.0460 -0.0723  0.1968
12713TIP3    H159630   1.553   1.293  15.635  0.2073 -0.0122 -2.3886
12713TIP3    H259631   1.687   1.224  15.616  0.7347  0.0557  0.8766
12714TIP3   OH259632   6.582   2.943  15.956  0.2171 -0.1212  0.4837
12714TIP3    H159633   6.595   3.035  15.935  1.8143 -0.5894 -0.6562
12714TIP3    H259634   6.487   2.931  15.954  0.0756  1.1576 -0.8157
12715TIP3   OH259635   2.446   3.094   0.126 -0.1981 -0.5432  0.3865
12715TIP3    H159636   2.475   3.159   0.190  0.5307  2.2110 -2.5666
12715TIP3    H259637   2.408   3.147   0.055 -0.8834 -3.4528 -1.4862
12716TIP3   OH259638   3.317   1.480   0.370 -0.0616  0.3143  0.2043
12716TIP3    H159639   3.413   1.482   0.373 -0.0650  5.0251  0.0734
12716TIP3    H259640   3.290   1.484   0.462 -0.1820 -0.0629  0.1896
12717TIP3   OH259641   4.547   2.253  16.073 -0.2044 -0.0008  0.3236
12717TIP3    H159642   4.483   2.189  16.044 -1.5131  0.9862  0.9693
12717TIP3    H259643   4.509   2.338  16.050  1.6446  0.5601 -0.8177
12718TIP3   OH259644   5.567   2.310  10.416 -0.2051  0.0135 -0.8901
12718TIP3    H159645   5.610   2.389  10.384  0.7946  0.5768  1.7372
12718TIP3    H259646   5.633   2.241  10.405 -0.2024  0.0163 -0.8906
12719TIP3   OH259647   6.620   2.086  13.186  0.2276 -0.1389  0.3272
12719TIP3    H159648   6.654   2.162  13.233 -1.0469 -1.2752  3.2186
12719TIP3    H259649   6.560   2.123  13.121  1.7469  1.4569 -0.2041
12720TIP3   OH259650   1.828   1.213   3.051  0.1336 -0.4152  0.4961
12720TIP3    H159651   1.901   1.152   3.063  0.9191 -0.1182 -2.3970
12720TIP3    H259652   1.763   1.163   3.002 -0.4792  0.1460  0.7334
12721TIP3   OH259653   3.155   2.072   3.195 -0.3205  0.6906  0.2134
12721TIP3    H159654   3.188   2.161   3.206  0.0196  0.6618 -0.5312
12721TIP3    H259655   3.086   2.063   3.260 -1.5877  2.1108 -0.9163
12722TIP3   OH259656   2.292   5.426  14.916  0.4119  0.1597 -0.2523
12722TIP3    H159657   2.242   5.394  14.990  1.7802 -1.8470 -0.1613
12722TIP3    H259658   2.312   5.517  14.937 -0.0666 -0.1117  1.3779
12723TIP3   OH259659   1.891   4.320   0.591 -0.3501 -0.2390  0.0732
12723TIP3    H159660   1.917   4.335   0.681  0.4468 -0.1822 -0.1679
12723TIP3    H259661   1.841   4.398   0.567  0.2582  0.1800  0.1597
12724TIP3   OH259662   4.166   2.397  12.249 -0.7746 -0.0102 -0.3691
12724TIP3    H159663   4.138   2.308  12.272  1.9722 -0.8345  0.0995
12724TIP3    H259664   4.213   2.386  12.166 -2.6815  1.4754 -1.6915
12725TIP3   OH259665   3.655   5.854   5.197 -0.0289 -0.5824  0.2232
12725TIP3    H159666   3.682   5.837   5.288  1.9721  2.1004  0.2041
12725TIP3    H259667   3.714   5.924   5.168 -2.7275  0.8052 -2.1173
12726TIP3   OH259668   6.733   4.244   4.734  0.5686 -0.3670 -0.4338
12726TIP3    H159669   6.765   4.191   4.660  0.4326  0.1524 -0.8666
12726TIP3    H259670   6.798   4.314   4.742  0.1846 -0.0060 -0.5239
12727TIP3   OH259671   6.054   6.443   5.178  0.3884 -0.7648  0.2690
12727TIP3    H159672   6.148   6.436   5.165  0.5523 -0.2640  1.1737
12727TIP3    H259673   6.027   6.355   5.204  0.0412 -1.8254 -3.3357
12728TIP3   OH259674   6.762   5.709  12.843  0.2949  0.4590 -0.0683
12728TIP3    H159675   6.693   5.773  12.822  1.1384  1.5622  0.4982
12728TIP3    H259676   6.842   5.761  12.848  0.9753 -0.6388  0.5067
12729TIP3   OH259677   6.122   2.132  11.414  0.0236  0.8993  0.0928
12729TIP3    H159678   6.098   2.167  11.500 -1.1008  0.0706  0.1410
12729TIP3    H259679   6.149   2.042  11.432  1.6212  1.3068 -0.1910
12730TIP3   OH259680   5.844   0.547  13.464 -0.1587  0.6071 -0.0519
12730TIP3    H159681   5.751   0.571  13.474  0.2056  1.6105  1.1110
12730TIP3    H259682   5.842   0.455  13.439 -1.4280  0.0027  2.1335
12731TIP3   OH259683   3.204   6.704  14.804 -0.0338 -0.0806  0.0761
12731TIP3    H159684   3.198   6.761  14.727  2.3255  0.4033  0.1996
12731TIP3    H259685   3.291   6.663  14.797 -0.9313 -2.2162  0.9938
12732TIP3   OH259686   3.189   2.700  14.646 -0.1029 -0.5742  0.1098
12732TIP3    H159687   3.248   2.704  14.722 -1.0582  0.3911  0.8074
12732TIP3    H259688   3.139   2.620  14.659 -2.0374  0.8612  1.8488
12733TIP3   OH259689   3.635   4.429   1.538 -0.3498  0.4378 -0.1666
12733TIP3    H159690   3.559   4.383   1.504  0.4872  0.0292 -1.5052
12733TIP3    H259691   3.600   4.511   1.573 -1.5092 -0.1331  0.0260
12734TIP3   OH259692   4.027   5.497   1.364  0.5846 -0.1993  0.5601
12734TIP3    H159693   4.024   5.412   1.322  1.6973 -0.1921  0.4459
12734TIP3    H259694   4.038   5.559   1.292 -1.0900  0.1258  0.5655
12735TIP3   OH259695   2.602   2.994  11.534  0.7977  0.3644  0.1485
12735TIP3    H159696   2.682   3.011  11.484  1.9383  1.5051  2.2968
12735TIP3    H259697   2.548   3.072  11.521 -0.1041 -0.4656 -1.4228
12736TIP3   OH259698   1.104   5.609  17.240 -0.8518  0.2086  0.0494
12736TIP3    H159699   1.148   5.551  17.178 -0.6737  0.6068 -0.2092
12736TIP3    H259700   1.175   5.653  17.287 -0.9907 -0.3058  0.7405
12737TIP3   OH259701   4.913   3.964  14.275 -0.3945 -0.0597  0.1305
12737TIP3    H159702   4.869   3.968  14.190 -1.1564  1.7074  0.5973
12737TIP3    H259703   4.868   4.029  14.329  0.3471 -0.8721  1.7703
12738TIP3   OH259704   3.591   5.775   1.424 -0.0890 -0.2027  0.2121
12738TIP3    H159705   3.513   5.726   1.398 -0.4858  0.3420  0.3580
12738TIP3    H259706   3.634   5.720   1.488 -0.4196 -0.4560  0.2180
12739TIP3   OH259707   1.371   4.162  15.744  0.1975  0.2892 -0.1508
12739TIP3    H159708   1.302   4.214  15.786  1.9826  2.6929 -0.1341
12739TIP3    H259709   1.418   4.122  15.817  0.9647  1.4479  0.0001
12740TIP3   OH259710   5.508   3.560   4.261 -0.4309  0.0687 -0.3826
12740TIP3    H159711   5.519   3.544   4.167  0.8790 -0.4298 -0.1452
12740TIP3    H259712   5.483   3.475   4.297  1.4142 -0.3106  0.0706
12741TIP3   OH259713   3.012   0.574  13.076 -0.0960 -0.1212 -0.1230
12741TIP3    H159714   3.009   0.526  12.993  0.3631  1.0616 -0.8228
12741TIP3    H259715   3.082   0.532  13.125 -1.1592 -1.6231  0.1800
12742TIP3   OH259716   2.651   0.529   0.064  0.1922 -0.1210 -0.0938
12742TIP3    H159717   2.654   0.573   0.150 -1.5678 -2.5169  1.2450
12742TIP3    H259718   2.624   0.439   0.084  0.2224 -0.8492 -3.1374
12743TIP3   OH259719   0.927   0.881  15.107 -0.1289  0.2113 -0.4970
12743TIP3    H159720   1.012   0.912  15.074  0.1120 -0.0793 -0.1490
12743TIP3    H259721   0.878   0.857  15.028 -0.5437  2.0458 -0.8292
12744TIP3   OH259722   3.074   2.262   4.703 -0.4057 -0.4654  0.6255
12744TIP3    H159723   3.095   2.182   4.753  0.3866  0.3301  1.5850
12744TIP3    H259724   3.159   2.298   4.678 -0.7509  0.2307  0.4396
12745TIP3   OH259725   6.552   4.410   4.615  0.0798  0.1414 -0.2274
12745TIP3    H159726   6.614   4.469   4.573  1.6902 -0.9132  0.6455
12745TIP3    H259727   6.606   4.344   4.658 -1.6486 -1.0174  0.2263
12746TIP3   OH259728   4.955   0.811  17.220  0.3203  0.4450  0.3329
12746TIP3    H159729   4.923   0.889  17.175  1.8072  1.7141  1.3700
12746TIP3    H259730   4.993   0.845  17.301  0.5498 -1.4302  1.0360
12747TIP3   OH259731   2.164   2.606   3.532  0.0099 -0.1882  0.1426
12747TIP3    H159732   2.145   2.624   3.440 -0.3231  0.3017  0.3022
12747TIP3    H259733   2.096   2.543   3.558  0.1197 -0.3472  0.0506
12748TIP3   OH259734   3.668   2.671   1.177 -1.1842 -0.0496  0.2724
12748TIP3    H159735   3.707   2.692   1.261  1.1842  1.2745 -1.0979
12748TIP3    H259736   3.664   2.754   1.130 -1.2805 -0.9527 -1.3899
12749TIP3   OH259737   5.772   0.469   6.350 -0.0454 -0.1724 -0.1729
12749TIP3    H159738   5.792   0.519   6.429 -0.7287 -2.8951  1.7714
12749TIP3    H259739   5.720   0.529   6.296 -0.7120  1.2421  2.0061
12750TIP3   OH259740   4.546   2.663   4.767  1.0900  0.1554 -0.3982
12750TIP3    H159741   4.551   2.680   4.861  2.1483 -1.5636 -0.1048
12750TIP3    H259742   4.638   2.656   4.740  0.9062  3.6034 -2.1742
12751TIP3   OH259743   6.086   4.620   6.290  0.2862  0.2195  0.1061
12751TIP3    H159744   6.070   4.702   6.243 -2.5225 -0.8502 -0.9319
12751TIP3    H259745   6.179   4.603   6.277  0.2993  1.7375 -2.2223
12752TIP3   OH259746   6.224   0.026   0.246  0.6198 -0.0125  0.6884
12752TIP3    H159747   6.313   0.061   0.246  0.6162  0.1359 -1.8381
12752TIP3    H259748   6.234  -0.067   0.266  1.2905  0.1179  0.9504
12753TIP3   OH259749   6.353   1.599  14.890  0.4031 -0.0076  0.0079
12753TIP3    H159750   6.302   1.627  14.814 -0.1507  1.6450  0.9654
12753TIP3    H259751   6.306   1.634  14.965  1.3554 -0.9872  1.0822
12754TIP3   OH259752   2.437   5.531  14.551 -0.2669  0.1714 -0.2283
12754TIP3    H159753   2.487   5.530  14.633  0.9742 -1.6500 -0.9710
12754TIP3    H259754   2.502   5.552  14.484 -0.6384 -1.4826 -1.1261
12755TIP3   OH259755   0.899   2.038  11.866  0.0413  0.7407  0.1442
12755TIP3    H159756   0.896   1.948  11.898 -0.0205  1.4073  2.1245
12755TIP3    H259757   0.974   2.077  11.912 -0.0207  1.7314 -0.5775
12756TIP3   OH259758   4.309   2.960  16.760  0.3406  0.4455 -0.4024
12756TIP3    H159759   4.242   2.893  16.775  1.5053 -1.1101 -1.8933
12756TIP3    H259760   4.265   3.043  16.777 -0.3554 -0.7537  4.3656
12757TIP3   OH259761   1.485   1.908   2.005 -0.1166  0.0551 -0.1590
12757TIP3    H159762   1.445   1.902   2.092  1.6089  0.3453  0.6658
12757TIP3    H259763   1.576   1.932   2.022  0.0391  0.8920 -2.0828
12758TIP3   OH259764   2.737   1.624   4.574 -0.9337 -0.0234  0.4346
12758TIP3    H159765   2.700   1.700   4.530 -0.3023 -0.7353 -1.3751
12758TIP3    H259766   2.668   1.558   4.570 -0.4187 -0.5035 -0.6263
12759TIP3   OH259767   1.828   1.588  11.509  0.4878  0.2988 -0.1451
12759TIP3    H159768   1.733   1.585  11.494  0.3146  1.2886  0.6951
12759TIP3    H259769   1.858   1.499  11.490 -0.5176  0.1326 -1.0179
12760TIP3   OH259770   0.172   0.824  14.002  0.0320  0.1839  0.0008
12760TIP3    H159771   0.123   0.897  14.039 -1.0681 -0.1543 -0.7623
12760TIP3    H259772   0.106   0.771  13.958  0.5412 -2.3049  2.1521
12761TIP3   OH259773   2.136   2.961  11.162 -0.5346  0.7575  0.4052
12761TIP3    H159774   2.144   2.924  11.250  0.3034  0.9135  0.4035
12761TIP3    H259775   2.200   2.912  11.110 -1.7674 -0.0511 -0.3635
12762TIP3   OH259776   6.728   2.910  11.710 -0.3590  0.3813 -0.1953
12762TIP3    H159777   6.730   2.872  11.797  0.5302  0.4995 -0.1560
12762TIP3    H259778   6.649   2.964  11.708  0.4093  1.5599  1.0402
12763TIP3   OH259779   2.842   3.720   0.275  0.3980  0.0426 -0.0047
12763TIP3    H159780   2.862   3.784   0.343  1.6309  1.1013 -1.3217
12763TIP3    H259781   2.882   3.757   0.195 -2.2847 -0.4323 -1.6229
12764TIP3   OH259782   0.246   3.609   2.416  0.9612 -0.4602 -0.0338
12764TIP3    H159783   0.314   3.586   2.352 -0.9312 -0.7705 -1.9730
12764TIP3    H259784   0.232   3.703   2.403  2.4895  0.0896  1.8754
12765TIP3   OH259785   2.253   0.984   5.608 -0.1268  0.3970 -0.0334
12765TIP3    H159786   2.337   0.962   5.649 -0.4823 -1.2148 -0.1338
12765TIP3    H259787   2.276   1.013   5.520  0.4110  1.1265  0.3399
12766TIP3   OH259788   4.071   4.741  12.078  0.3625 -0.2723 -0.2711
12766TIP3    H159789   4.143   4.794  12.112 -0.5192  0.6144  0.2200
12766TIP3    H259790   4.026   4.800  12.017  0.2744 -0.9539 -0.8709
12767TIP3   OH259791   4.748   5.097  16.203 -0.4057 -0.0635 -0.0647
12767TIP3    H159792   4.706   5.015  16.230  0.1512 -0.5885 -0.7627
12767TIP3    H259793   4.835   5.070  16.175  0.8094  1.1609  2.4263
12768TIP3   OH259794   2.435   2.617   4.967  0.0173 -0.0006 -0.1768
12768TIP3    H159795   2.386   2.597   4.887 -0.5846 -0.8455  0.3890
12768TIP3    H259796   2.373   2.598   5.038  0.1067  2.0050  0.4523
12769TIP3   OH259797   1.054   6.188  16.087  0.1945  0.1929 -0.3948
12769TIP3    H159798   1.087   6.100  16.104 -1.1034 -0.5109 -1.4431
12769TIP3    H259799   1.132   6.240  16.068  0.8303 -1.1257 -1.4290
12770TIP3   OH259800   1.177   3.978   4.987  0.1045 -0.1099  0.4806
12770TIP3    H159801   1.225   4.038   5.043  1.1308 -0.1765 -0.3136
12770TIP3    H259802   1.085   4.002   5.000  0.3689  0.3174  1.6590
12771TIP3   OH259803   5.929   0.388   2.872 -0.6407  0.2740  0.4911
12771TIP3    H159804   5.846   0.406   2.916 -0.5129  0.8339  0.5048
12771TIP3    H259805   5.927   0.442   2.793 -0.5769 -0.2186  0.1450
12772TIP3   OH259806   6.016   3.418  13.013  0.2602 -0.1437  0.3329
12772TIP3    H159807   6.031   3.452  13.101  3.2513  0.0104 -0.1860
12772TIP3    H259808   6.103   3.400  12.979 -0.9364 -2.0909 -1.8777
12773TIP3   OH259809   1.075   5.573   1.920 -0.3178  0.4052  0.2928
12773TIP3    H159810   1.016   5.534   1.985  0.1069  1.0673  1.0828
12773TIP3    H259811   1.126   5.499   1.887  0.5261  0.2860  1.8234
12774TIP3   OH259812   4.872   2.409   4.840 -0.3663 -0.0805 -0.0287
12774TIP3    H159813   4.790   2.390   4.885 -0.2889  0.2707  0.2639
12774TIP3    H259814   4.939   2.367   4.894 -0.3442 -0.3167 -0.2355
12775TIP3   OH259815   1.054   4.077  11.011  0.5299 -0.4640 -0.1027
12775TIP3    H159816   1.021   3.988  11.017 -0.4252 -0.1357 -0.4616
12775TIP3    H259817   0.978   4.130  10.987  1.2819  0.3162 -0.8084
12776TIP3   OH259818   0.564   2.824   2.472  0.2139 -0.3122  0.0422
12776TIP3    H159819   0.474   2.858   2.463  0.1824 -0.5089 -0.4005
12776TIP3    H259820   0.554   2.730   2.480  0.5053 -0.5488 -2.1835
12777TIP3   OH259821   4.991   1.264   2.095 -0.0355 -0.0388  0.6891
12777TIP3    H159822   4.964   1.351   2.066 -0.9979 -0.1603  1.2000
12777TIP3    H259823   5.086   1.270   2.104  0.0263  0.6421 -0.3124
12778TIP3   OH259824   4.533   4.665  11.845  0.0058  0.7096  0.0225
12778TIP3    H159825   4.458   4.679  11.904 -0.8603 -0.0485 -0.8764
12778TIP3    H259826   4.566   4.579  11.869  0.1962  0.7747 -0.0095
12779TIP3   OH259827   6.609   1.504  15.807 -0.3765  0.1641  0.1591
12779TIP3    H159828   6.691   1.456  15.800 -0.6547 -0.1189 -1.3362
12779TIP3    H259829   6.634   1.591  15.840  0.5691  0.2353 -0.7437
12780TIP3   OH259830   1.589   0.851   3.908  0.6077 -0.4049 -0.0444
12780TIP3    H159831   1.680   0.842   3.877 -0.5450 -1.5512 -3.3376
12780TIP3    H259832   1.542   0.889   3.833 -1.5269  0.7948  1.8498
12781TIP3   OH259833   2.555   3.803  12.490 -0.0886 -0.2747 -0.2039
12781TIP3    H159834   2.600   3.737  12.437  0.6255  0.1487 -0.1342
12781TIP3    H259835   2.622   3.834  12.551 -0.3431  0.7068 -0.4137
12782TIP3   OH259836   2.660   0.863  15.946 -0.0457 -0.2708  0.1346
12782TIP3    H159837   2.717   0.922  15.994 -0.2853 -0.0705  0.1778
12782TIP3    H259838   2.573   0.877  15.985 -1.2549  3.4550 -3.4493
12783TIP3   OH259839   5.849   1.854  12.042 -0.2155  0.2976  0.4416
12783TIP3    H159840   5.778   1.918  12.051  1.0963  1.9466 -0.4940
12783TIP3    H259841   5.845   1.826  11.951 -1.1910 -1.4670  1.0173
12784TIP3   OH259842   4.831   2.743   2.437  0.1149  0.2182 -0.4510
12784TIP3    H159843   4.886   2.764   2.513 -2.0469  1.6660  0.7724
12784TIP3    H259844   4.853   2.810   2.373  0.5088  0.1955 -0.3417
12785TIP3   OH259845   4.996   5.895   3.628  0.8653  0.0920 -0.0459
12785TIP3    H159846   5.022   5.815   3.584  0.2584 -0.0467 -0.1458
12785TIP3    H259847   4.901   5.898   3.620  0.9983  1.5462 -1.3044
12786TIP3   OH259848   6.764   6.622   2.391 -0.1020  0.0228 -0.8762
12786TIP3    H159849   6.742   6.630   2.484  0.5932 -0.0995 -0.7018
12786TIP3    H259850   6.767   6.527   2.375 -0.2101  0.0435 -1.0186
12787TIP3   OH259851   0.223   0.133   4.735 -0.3062 -0.6199  0.3880
12787TIP3    H159852   0.168   0.193   4.785 -0.8615 -0.1328 -0.7923
12787TIP3    H259853   0.171   0.052   4.728 -1.1074  0.0132 -1.1681
12788TIP3   OH259854   2.453   3.261   3.519  0.5622 -0.2913 -0.0016
12788TIP3    H159855   2.411   3.322   3.459  1.0957  0.0508 -0.0358
12788TIP3    H259856   2.461   3.179   3.470 -3.5678 -1.5852  1.2723
12789TIP3   OH259857   5.357   3.366  13.250  0.3872  0.0823  0.3133
12789TIP3    H159858   5.339   3.380  13.343  2.0052  1.0521  0.4942
12789TIP3    H259859   5.452   3.364  13.243  0.2740 -0.9719 -1.1934
12790TIP3   OH259860   1.926   3.214   1.614 -0.3120 -0.1785  0.5460
12790TIP3    H159861   1.908   3.169   1.697  2.4044 -1.9396  0.2410
12790TIP3    H259862   1.974   3.293   1.640 -1.5282  0.5155  0.7707
12791TIP3   OH259863   1.205   0.073   1.215 -0.3204  0.2414  0.3553
12791TIP3    H159864   1.257  -0.005   1.199  1.7404  1.5322  0.4497
12791TIP3    H259865   1.241   0.138   1.155  0.4667  2.1252  2.7562
12792TIP3   OH259866   4.445   6.184   5.988 -0.6112  0.1659 -0.5296
12792TIP3    H159867   4.431   6.279   5.988 -0.3705  0.2070  0.8572
12792TIP3    H259868   4.358   6.147   6.000 -0.7289  0.1987 -1.2476
12793TIP3   OH259869   1.752   5.132  11.661  0.4080 -0.5092 -0.2643
12793TIP3    H159870   1.725   5.048  11.623 -0.3933 -0.4877  0.2606
12793TIP3    H259871   1.730   5.125  11.754  0.0271  0.4116 -0.2798
12794TIP3   OH259872   1.496   2.182  16.596  0.2986  0.7916 -0.2543
12794TIP3    H159873   1.514   2.182  16.690  1.1426  0.3553 -0.4073
12794TIP3    H259874   1.577   2.215  16.556  0.9253 -1.5311 -0.9825
12795TIP3   OH259875   0.852   3.311  15.359 -0.3007  0.0210  0.4574
12795TIP3    H159876   0.914   3.311  15.286  0.3817 -1.6750  0.9987
12795TIP3    H259877   0.832   3.403  15.374  1.7843  0.5715  0.0279
12796TIP3   OH259878   1.553   5.631   0.662  0.3884  0.5215  0.4956
12796TIP3    H159879   1.537   5.665   0.573  1.1173 -0.4386 -0.0138
12796TIP3    H259880   1.639   5.665   0.685  2.2297 -2.9071 -0.9984
12797TIP3   OH259881   0.107   3.471  13.798  0.4199  0.1170 -0.4487
12797TIP3    H159882   0.067   3.522  13.868  1.1893 -0.3701  0.3456
12797TIP3    H259883   0.033   3.441  13.745 -0.1605  0.5108  0.1345
12798TIP3   OH259884   0.702   4.536   1.917 -0.0186 -0.1544  0.2430
12798TIP3    H159885   0.727   4.596   1.987 -0.7242 -0.5652  0.8406
12798TIP3    H259886   0.609   4.555   1.901 -0.4605 -1.6625  0.9922
12799TIP3   OH259887   2.418   3.378  10.361  0.4627  0.4466 -0.2001
12799TIP3    H159888   2.420   3.318  10.436 -0.5079  0.1769 -0.3840
12799TIP3    H259889   2.325   3.390  10.342  0.6422  1.9283 -0.2375
12800TIP3   OH259890   5.988   1.112  10.473  0.1302 -0.0137  0.0951
12800TIP3    H159891   6.038   1.040  10.433 -1.3140 -0.1789 -1.4498
12800TIP3    H259892   6.043   1.189  10.459  2.5567 -1.0321  3.3699
12801TIP3   OH259893   2.168   3.060  12.006  0.4498 -0.0526 -0.1982
12801TIP3    H159894   2.228   2.990  11.979  0.7618  0.4554 -0.8264
12801TIP3    H259895   2.150   3.109  11.925  0.7610  0.9960  0.3590
12802TIP3   OH259896   2.501   6.122   1.141  0.6432  0.0908  0.2383
12802TIP3    H159897   2.568   6.156   1.199  0.9706 -1.2784  0.6658
12802TIP3    H259898   2.536   6.039   1.108 -0.6902 -0.4801  0.2087
12803TIP3   OH259899   1.580   1.382  12.730  0.2548 -0.0024  0.4348
12803TIP3    H159900   1.613   1.329  12.658 -0.9014  0.3784 -0.3946
12803TIP3    H259901   1.610   1.471  12.709  1.3993 -0.1652  1.3370
12804TIP3   OH259902   5.599   1.327  14.780  0.0315  0.1516  0.5280
12804TIP3    H159903   5.633   1.386  14.847 -0.1250  0.0305  0.7144
12804TIP3    H259904   5.504   1.329  14.790  0.0613 -0.7455  1.0705
12805TIP3   OH259905   5.850   1.713   4.268  0.3844  0.5474 -0.3032
12805TIP3    H159906   5.756   1.697   4.279  0.4336  0.6114  0.1972
12805TIP3    H259907   5.881   1.638   4.218  0.0481  0.5762 -0.5618
12806TIP3   OH259908   6.260   3.058  11.343  0.3536  0.2969  0.4946
12806TIP3    H159909   6.355   3.073  11.346  0.7365 -1.8506  0.3701
12806TIP3    H259910   6.241   3.045  11.250  0.2714 -1.1455  0.7040
12807TIP3   OH259911   5.993   6.735  15.705  0.5556 -0.4974  0.0456
12807TIP3    H159912   6.080   6.750  15.667 -0.6487  0.2028 -2.5324
12807TIP3    H259913   5.986   6.640  15.711  0.9075 -0.6049 -1.1916
12808TIP3   OH259914   6.664   6.703   5.570  0.4574 -0.8881  0.1586
12808TIP3    H159915   6.610   6.778   5.596  1.7379  0.1245 -0.0708
12808TIP3    H259916   6.666   6.648   5.648  0.8134  0.0963  0.8642
12809TIP3   OH259917   3.961   4.179  10.988  0.0768  0.5690  0.4075
12809TIP3    H159918   4.036   4.148  10.938  0.7221  0.9193  1.1466
12809TIP3    H259919   3.946   4.269  10.957 -0.1462  0.4425  0.1435
12810TIP3   OH259920   2.485   4.177   5.537 -0.3173  0.6740  0.2788
12810TIP3    H159921   2.488   4.227   5.455  0.8764  0.9015  0.4455
12810TIP3    H259922   2.476   4.086   5.508  2.4102  0.5073 -0.2296
12811TIP3   OH259923   0.287   0.621  15.516 -0.0957  0.0749 -0.1682
12811TIP3    H159924   0.279   0.667  15.432 -1.5293  1.5560  0.7668
12811TIP3    H259925   0.353   0.553  15.499  0.1187  0.7701 -2.3066
12812TIP3   OH259926   2.143   2.327  12.784  0.1135  0.0993  0.3074
12812TIP3    H159927   2.134   2.335  12.879 -1.6178  0.7187  0.1216
12812TIP3    H259928   2.168   2.415  12.756  2.1292 -0.4553  0.3287
12813TIP3   OH259929   0.390   5.760   3.208 -0.1749 -0.4669 -0.3268
12813TIP3    H159930   0.359   5.798   3.290  1.8232  0.8560 -0.1417
12813TIP3    H259931   0.392   5.666   3.224  0.3844 -0.1999  1.1971
12814TIP3   OH259932   4.457   3.674   3.936 -0.1384  0.2260  0.1257
12814TIP3    H159933   4.429   3.766   3.933 -0.7027  0.0330 -0.6886
12814TIP3    H259934   4.400   3.630   3.873 -1.7285 -1.1856  2.5060
12815TIP3   OH259935   3.329   6.008  16.930 -0.7603 -0.0520 -0.2637
12815TIP3    H159936   3.254   5.949  16.938  1.3133 -2.6222  0.9226
12815TIP3    H259937   3.404   5.957  16.961  1.0762  3.3565  1.1878
12816TIP3   OH259938   5.641   1.088   1.080  0.1668 -0.2210  0.3181
12816TIP3    H159939   5.720   1.041   1.108  0.3785 -0.0163  0.0784
12816TIP3    H259940   5.574   1.065   1.144  0.5103 -0.1467  0.7031
12817TIP3   OH259941   2.742   1.277   3.157 -0.0345 -0.0092 -0.1698
12817TIP3    H159942   2.703   1.231   3.232 -0.2692 -0.0107 -0.2932
12817TIP3    H259943   2.807   1.335   3.197  0.3331 -0.5198 -0.0245
12818TIP3   OH259944   1.118   2.663  12.880  0.0066  0.8365 -0.2237
12818TIP3    H159945   1.105   2.611  12.959 -0.2761  0.8415 -0.2677
12818TIP3    H259946   1.036   2.711  12.868 -0.9164 -1.0872 -1.9349
12819TIP3   OH259947   0.404   2.655   3.268  0.6614  0.1366  0.2425
12819TIP3    H159948   0.445   2.741   3.271  0.3721  0.3069 -0.6532
12819TIP3    H259949   0.391   2.631   3.360  0.9447  0.9514  0.4919
12820TIP3   OH259950   6.799   3.409  12.252  0.1415  0.3569  1.1076
12820TIP3    H159951   6.857   3.461  12.196 -1.5418  1.4799  0.3498
12820TIP3    H259952   6.833   3.320  12.247  1.0299  0.7618 -0.3438
12821TIP3   OH259953   5.268   5.081  14.489  0.1561 -0.1266  0.1311
12821TIP3    H159954   5.194   5.075  14.549 -0.0350 -0.3918 -0.1261
12821TIP3    H259955   5.346   5.070  14.544  0.1153  2.3005  0.7265
12822TIP3   OH259956   6.008   2.170  13.795 -0.3907 -0.0743  0.4524
12822TIP3    H159957   5.933   2.168  13.855  1.3157 -0.1804  2.6279
12822TIP3    H259958   6.014   2.081  13.761 -2.2380  0.3282 -1.0449
12823TIP3   OH259959   3.066   0.710   5.117 -0.2123 -0.1037 -0.3461
12823TIP3    H159960   2.980   0.691   5.079 -0.8115  0.0406  0.9011
12823TIP3    H259961   3.046   0.753   5.201  1.0695 -1.3591  0.6274
12824TIP3   OH259962   6.076   5.991  14.489 -0.4060 -0.0956 -0.0755
12824TIP3    H159963   6.048   5.987  14.581  1.3137 -0.8837  0.4364
12824TIP3    H259964   6.001   6.029  14.443 -0.6923  1.8296  1.8878
12825TIP3   OH259965   1.652   2.928   5.335 -0.1349 -0.1505  0.3423
12825TIP3    H159966   1.578   2.966   5.289  2.3102  2.1770 -1.8328
12825TIP3    H259967   1.697   3.003   5.375  1.1623 -1.4718  1.4277
12826TIP3   OH259968   3.610   0.460   6.642  0.2358  0.7415 -0.0245
12826TIP3    H159969   3.521   0.427   6.645  1.0368 -1.5653 -0.7553
12826TIP3    H259970   3.600   0.553   6.620 -1.8931  0.0574 -2.1582
12827TIP3   OH259971   5.190   1.655   3.053 -0.0057 -0.1532 -0.2130
12827TIP3    H159972   5.233   1.676   3.136 -0.4296 -1.1090  0.2615
12827TIP3    H259973   5.097   1.662   3.071 -0.1008 -0.4226 -0.5872
12828TIP3   OH259974   1.314   4.361  16.050 -0.1031  0.2605  0.5072
12828TIP3    H159975   1.268   4.442  16.073 -0.6999 -0.3442  1.5125
12828TIP3    H259976   1.246   4.304  16.013 -0.1443 -0.5667  1.8155
12829TIP3   OH259977   0.992   1.174  14.243 -0.1264 -0.3298  0.3610
12829TIP3    H159978   1.038   1.122  14.177 -1.0709  0.4150 -0.8947
12829TIP3    H259979   1.054   1.244  14.265  0.2516 -0.6656  0.3629
12830TIP3   OH259980   4.703   4.566   1.222 -0.2684  0.8238  0.4777
12830TIP3    H159981   4.697   4.472   1.206  0.1346  0.7476  0.7632
12830TIP3    H259982   4.706   4.575   1.317 -0.6386  1.1481  0.4623
12831TIP3   OH259983   2.198   5.842   0.770 -0.2708  0.0662 -0.0385
12831TIP3    H159984   2.162   5.805   0.851 -0.9344  0.5850 -0.0956
12831TIP3    H259985   2.176   5.935   0.774  1.5480  0.5176  0.1860
12832TIP3   OH259986   6.445   3.880  13.161 -0.1075  0.3225  1.0747
12832TIP3    H159987   6.486   3.795  13.177  0.2126  0.0520 -1.0458
12832TIP3    H259988   6.353   3.866  13.183  0.3166 -0.0058  2.6699
12833TIP3   OH259989   2.527   5.924  11.760  0.1996  0.6867  0.2895
12833TIP3    H159990   2.526   5.840  11.716 -0.1868 -0.3283  2.1877
12833TIP3    H259991   2.435   5.951  11.764  0.1415  0.3897  1.1521
12834TIP3   OH259992   6.129   5.977   4.582  0.0131 -0.1758 -0.1584
12834TIP3    H159993   6.094   6.048   4.635  1.7503 -0.6990  1.7510
12834TIP3    H259994   6.061   5.959   4.516 -2.7220 -0.3171  2.6249
12835TIP3   OH259995   0.235   3.145  11.696 -0.1707 -0.3511 -0.5963
12835TIP3    H159996   0.213   3.054  11.716  0.8477 -0.6706 -0.8909
12835TIP3    H259997   0.161   3.177  11.645 -2.2092  0.0768  2.4660
12836TIP3   OH259998   4.989   1.908  14.251  0.5024 -0.6416  0.0029
12836TIP3    H159999   4.928   1.948  14.189  0.5847 -0.7152 -0.1265
12836TIP3    H260000   5.073   1.951  14.233  0.4969 -0.5636  0.1587
12837TIP3   OH260001   0.784   4.834  14.261 -0.3722  0.2714  0.0245
12837TIP3    H160002   0.802   4.927  14.278 -2.5573  0.4790  1.3746
12837TIP3    H260003   0.776   4.828  14.166 -0.5357  1.5297 -0.0476
12838TIP3   OH260004   0.297   2.624  13.648 -0.1978 -0.8888 -0.1658
12838TIP3    H160005   0.217   2.672  13.669 -0.0384 -0.3463 -0.7583
12838TIP3    H260006   0.337   2.606  13.733 -0.5282 -0.4293  0.0930
12839TIP3   OH260007   4.805   4.040   0.950  0.1645  0.4353 -0.3616
12839TIP3    H160008   4.729   4.090   0.920  0.0089  0.1310 -0.4750
12839TIP3    H260009   4.877   4.103   0.949  0.6888 -0.1239 -3.6414
12840TIP3   OH260010   4.547   3.964   2.603  0.5216  0.2945 -0.4647
12840TIP3    H160011   4.564   3.982   2.696  0.4255 -0.5601 -0.2715
12840TIP3    H260012   4.477   4.024   2.579  1.4423  1.4428 -0.3380
12841TIP3   OH260013   1.681   0.038  16.760  1.0642 -0.5107 -0.7724
12841TIP3    H160014   1.644  -0.029  16.818  0.3469  0.2288 -0.3604
12841TIP3    H260015   1.620   0.112  16.767  1.8760  0.2029 -1.1784
12842TIP3   OH260016   0.566   1.092   0.566  0.2041  0.2066 -0.1576
12842TIP3    H160017   0.658   1.087   0.543 -0.2044 -1.6324 -1.5382
12842TIP3    H260018   0.528   1.011   0.533 -1.9191  0.9383  0.3464
12843TIP3   OH260019   1.169   3.532   0.339  0.1668  0.1644  0.4949
12843TIP3    H160020   1.227   3.491   0.275 -0.1985  1.3508 -0.6223
12843TIP3    H260021   1.194   3.493   0.422  3.1271  1.1836  0.1648
12844TIP3   OH260022   1.993   3.862   5.335 -0.3377 -0.7072 -0.2459
12844TIP3    H160023   1.992   3.933   5.270  0.9588 -1.3741 -1.0156
12844TIP3    H260024   2.065   3.805   5.307  0.4073 -0.8761  1.9096
12845TIP3   OH260025   5.496   5.896  14.765 -0.1491 -0.6766  0.3869
12845TIP3    H160026   5.590   5.881  14.753  0.1283 -0.3948  2.0162
12845TIP3    H260027   5.458   5.883  14.678  1.4287 -0.5357 -0.3409
12846TIP3   OH260028   2.591   1.249  13.409 -0.4940 -0.0949  0.5150
12846TIP3    H160029   2.666   1.282  13.457 -0.4168 -0.0711  0.3805
12846TIP3    H260030   2.603   1.154  13.407 -0.1437 -0.0380 -0.0422
12847TIP3   OH260031   5.601   6.423   2.405 -0.4346  0.0721 -0.1620
12847TIP3    H160032   5.567   6.377   2.482 -0.7998 -0.9132 -0.9008
12847TIP3    H260033   5.549   6.503   2.400 -2.2636 -1.1446 -0.9475
12848TIP3   OH260034   3.687   2.698  12.118 -0.7237 -0.3913 -0.4240
12848TIP3    H160035   3.707   2.652  12.199  1.4270 -1.3161 -1.4326
12848TIP3    H260036   3.761   2.759  12.106 -0.9670 -0.3317 -1.7136
12849TIP3   OH260037   6.168   0.277  16.429  0.1219  0.1258 -0.2337
12849TIP3    H160038   6.102   0.339  16.461 -1.0589 -0.7293 -0.9552
12849TIP3    H260039   6.149   0.268  16.336  1.5182  0.1565 -0.5353
12850TIP3   OH260040   3.495   4.770  15.017  0.2548  0.3335 -0.2225
12850TIP3    H160041   3.487   4.819  14.935 -3.3910 -1.2305 -0.8883
12850TIP3    H260042   3.476   4.834  15.086  1.4740  1.2004 -0.6672
12851TIP3   OH260043   2.657   6.163   5.693  0.1826  0.1725 -0.3695
12851TIP3    H160044   2.564   6.170   5.673 -0.3703  1.2047  2.3523
12851TIP3    H260045   2.701   6.207   5.620 -1.5599  1.0756 -0.8997
12852TIP3   OH260046   2.646   3.133  12.005 -0.1372  0.1007  0.4079
12852TIP3    H160047   2.587   3.193  12.051 -0.8746 -1.0812  1.0339
12852TIP3    H260048   2.725   3.131  12.058  0.3628  1.4704 -0.2770
12853TIP3   OH260049   6.212   6.193   0.657 -0.5332  0.2766 -0.1735
12853TIP3    H160050   6.304   6.196   0.632 -0.5035  2.3458  0.0382
12853TIP3    H260051   6.211   6.230   0.745 -1.3967 -1.1487  0.4289
12854TIP3   OH260052   2.066   4.584  11.374  0.4798 -0.4687 -0.0548
12854TIP3    H160053   2.155   4.576  11.407  0.6268 -0.5746 -0.4746
12854TIP3    H260054   2.044   4.676  11.384  0.7740 -0.3724 -0.3142
12855TIP3   OH260055   4.519   6.374   5.067 -0.2323  0.5230 -0.2153
12855TIP3    H160056   4.470   6.455   5.053 -1.3597 -0.0759  0.1904
12855TIP3    H260057   4.469   6.308   5.020  1.0842  0.1834 -1.1629
12856TIP3   OH260058   6.389   3.957  15.797 -0.1122 -0.0480 -0.1220
12856TIP3    H160059   6.476   3.966  15.836  0.4722 -0.5910 -1.2818
12856TIP3    H260060   6.391   4.015  15.721 -0.4182 -0.8411 -0.7404
12857TIP3   OH260061   4.333   1.630   2.496 -0.1590 -0.0442  0.9037
12857TIP3    H160062   4.241   1.615   2.516 -1.0512  1.6769 -1.6848
12857TIP3    H260063   4.363   1.549   2.455 -0.7876 -0.2213  0.7953
12858TIP3   OH260064   3.444   1.996   5.600  0.2016 -0.1066 -0.0198
12858TIP3    H160065   3.523   2.021   5.551 -0.3753 -1.8686 -1.8849
12858TIP3    H260066   3.391   2.075   5.601  1.1547  0.5511 -0.3930
12859TIP3   OH260067   1.645   6.003  13.134  0.4193  0.0128 -0.5082
12859TIP3    H160068   1.555   6.005  13.166  0.7515 -0.0645  0.4338
12859TIP3    H260069   1.695   6.051  13.200  0.7001  2.1901 -2.2273
12860TIP3   OH260070   1.906   3.041   1.167 -0.7341 -0.0690  0.2855
12860TIP3    H160071   1.906   3.028   1.262 -0.6713  2.7602  0.7400
12860TIP3    H260072   1.814   3.041   1.142 -0.8913  1.7395  0.7889
12861TIP3   OH260073   4.102   3.013  14.208 -0.5065 -0.1726  0.0590
12861TIP3    H160074   4.120   3.023  14.301  1.1188  1.0611 -0.3744
12861TIP3    H260075   4.013   3.048  14.196  0.0041  1.4071  0.8294
12862TIP3   OH260076   3.953   4.822  11.609 -0.1209 -0.1585  1.1285
12862TIP3    H160077   3.995   4.900  11.646  0.8639  0.9579 -2.1943
12862TIP3    H260078   3.866   4.852  11.582 -0.8892 -1.0010  2.6168
12863TIP3   OH260079   3.315   1.831  17.178 -0.4826  0.4612  0.6360
12863TIP3    H160080   3.273   1.757  17.134 -1.0948  1.2691 -0.1630
12863TIP3    H260081   3.262   1.845  17.257 -1.2272  0.9611  0.0487
12864TIP3   OH260082   0.443   1.959  12.080 -0.7156  0.0406  0.4435
12864TIP3    H160083   0.473   2.016  12.009 -3.7882  1.4236  0.1724
12864TIP3    H260084   0.433   2.019  12.154 -0.6654 -0.8168  1.1427
12865TIP3   OH260085   4.388   3.252  13.020  0.3080  0.4293 -0.1108
12865TIP3    H160086   4.459   3.259  13.085  0.1551 -1.4725  0.2927
12865TIP3    H260087   4.430   3.210  12.945  0.0378  0.9800 -0.5673
12866TIP3   OH260088   1.693   0.339  13.187  0.3418 -0.1734  0.3178
12866TIP3    H160089   1.701   0.297  13.101  0.9199 -0.1578  0.3608
12866TIP3    H260090   1.737   0.279  13.247  0.1767 -0.0510  0.5617
12867TIP3   OH260091   3.826   1.884  13.955 -0.0961  0.7839  0.5887
12867TIP3    H160092   3.895   1.866  14.018 -0.1208  1.5051  0.8291
12867TIP3    H260093   3.820   1.805  13.902  2.7397  1.6323 -1.1457
12868TIP3   OH260094   3.821   3.822  13.280  0.0030 -0.3093 -0.0110
12868TIP3    H160095   3.743   3.876  13.268  0.0756  0.0220  0.9367
12868TIP3    H260096   3.893   3.884  13.289  0.2564 -0.5908 -0.0829
12869TIP3   OH260097   2.816   6.570   3.862 -0.2706  0.7531  0.3956
12869TIP3    H160098   2.878   6.633   3.900  2.2103 -1.4560  0.1061
12869TIP3    H260099   2.768   6.536   3.938  0.7461  0.4964  0.9318
12870TIP3   OH260100   5.162   4.952   4.469 -1.2315 -0.3702 -0.0793
12870TIP3    H160101   5.074   4.915   4.465 -0.3773 -2.3667 -3.3511
12870TIP3    H260102   5.218   4.881   4.437  1.3510  1.4465  0.2708
12871TIP3   OH260103   1.046   1.036   0.809  0.4693 -0.4846  0.1380
12871TIP3    H160104   0.977   0.971   0.823  1.5484 -1.8418 -0.7409
12871TIP3    H260105   1.081   1.016   0.722  0.3251  1.7515 -0.4711
12872TIP3   OH260106   0.137   6.142   0.313  0.0740 -0.7605 -0.0279
12872TIP3    H160107   0.105   6.208   0.251 -0.1994  2.3040  3.1767
12872TIP3    H260108   0.233   6.150   0.309  0.1148 -1.6963 -1.1676
12873TIP3   OH260109   4.074   0.793  14.055  0.2066  0.3577  0.4633
12873TIP3    H160110   4.081   0.828  13.966  0.3833 -1.8503 -0.4210
12873TIP3    H260111   4.038   0.705  14.044 -0.1100  0.1753  2.6143
12874TIP3   OH260112   2.836   6.051  11.473  0.0874  0.2683  0.0050
12874TIP3    H160113   2.847   6.118  11.405 -2.7757 -0.2008 -1.0179
12874TIP3    H260114   2.889   5.977  11.443  1.4185  1.2375 -0.0557
12875TIP3   OH260115   6.220   6.767   1.208 -0.1030  0.0575  0.3513
12875TIP3    H160116   6.291   6.832   1.202 -0.3823  0.3450  0.1142
12875TIP3    H260117   6.214   6.731   1.119 -0.8148  0.6333  0.1646
12876TIP3   OH260118   3.411   1.313   4.316 -0.2281  0.0268 -0.2895
12876TIP3    H160119   3.404   1.218   4.327 -0.4377  0.2349  1.5970
12876TIP3    H260120   3.321   1.342   4.302 -0.3109  0.0924  0.3921
12877TIP3   OH260121   0.153   1.375  17.140 -0.4832 -0.3929 -0.5242
12877TIP3    H160122   0.125   1.321  17.214 -1.2569 -0.6235 -0.9749
12877TIP3    H260123   0.175   1.459  17.178 -0.3004 -0.6999  0.0486
12878TIP3   OH260124   0.642   2.591  10.597 -0.6645 -0.3008  0.2199
12878TIP3    H160125   0.575   2.532  10.561  0.5813  0.8142 -4.1558
12878TIP3    H260126   0.722   2.539  10.595 -0.3976  0.0974  0.5761
12879TIP3   OH260127   0.808   2.846  14.491  0.2448 -0.1473  0.6424
12879TIP3    H160128   0.789   2.904  14.418  1.5620  0.5001  0.7972
12879TIP3    H260129   0.732   2.788  14.496  0.1350 -0.1944 -1.2269
12880TIP3   OH260130   5.256   4.393  15.267 -0.1192  0.2702  0.5493
12880TIP3    H160131   5.344   4.355  15.260  0.2089  1.0862  0.3087
12880TIP3    H260132   5.252   4.459  15.199 -0.7543  0.5709  0.8746
12881TIP3   OH260133   2.646   6.526   0.738  0.6541 -0.1349  0.2617
12881TIP3    H160134   2.639   6.473   0.818 -0.3914 -1.3671 -0.6243
12881TIP3    H260135   2.627   6.464   0.667 -0.7212  1.4715 -0.7921
12882TIP3   OH260136   3.100   6.296  11.352 -0.5762  0.2564  0.6079
12882TIP3    H160137   3.155   6.342  11.415  0.7492 -0.2226 -0.1674
12882TIP3    H260138   3.150   6.217  11.330 -0.2728  1.1833 -2.2206
12883TIP3   OH260139   4.271   5.784  11.918  0.6262 -0.0158 -0.4417
12883TIP3    H160140   4.256   5.827  12.002 -0.2401 -1.1497  0.0028
12883TIP3    H260141   4.322   5.847  11.867  1.4295  0.5589  1.0439
12884TIP3   OH260142   2.740   3.506   3.667 -0.6913 -0.6779 -0.3492
12884TIP3    H160143   2.762   3.496   3.760 -0.5264 -2.7447 -0.5892
12884TIP3    H260144   2.809   3.563   3.632 -0.1468 -0.7586  0.5620
12885TIP3   OH260145   6.391   4.136   4.316  0.0164  0.5060 -0.4332
12885TIP3    H160146   6.342   4.140   4.233 -0.5980  0.0259 -0.1042
12885TIP3    H260147   6.478   4.104   4.291 -0.2193  0.2007 -0.8745
12886TIP3   OH260148   1.448   0.742   1.014 -0.1373 -0.4074  0.1036
12886TIP3    H160149   1.429   0.664   1.066 -0.1267 -0.4054  0.1103
12886TIP3    H260150   1.364   0.787   1.006 -0.1107 -0.3366  0.2338
12887TIP3   OH260151   5.873   0.801  12.163  0.1505  0.6585 -0.1201
12887TIP3    H160152   5.844   0.850  12.239 -1.1096 -0.3553  0.0670
12887TIP3    H260153   5.867   0.863  12.090 -0.0106  1.2021  0.3566
12888TIP3   OH260154   1.675   5.433   5.694 -0.0171  0.1691  0.2490
12888TIP3    H160155   1.691   5.482   5.613  1.3949  0.2776  0.5798
12888TIP3    H260156   1.581   5.443   5.710 -0.6374 -1.1973 -2.2431
12889TIP3   OH260157   0.412   6.763  11.850 -0.2354 -0.0304 -0.3288
12889TIP3    H160158   0.499   6.724  11.849  0.3425  1.1971  0.3673
12889TIP3    H260159   0.353   6.689  11.861  0.7750 -0.7992  0.0654
12890TIP3   OH260160   6.029   6.099   2.949  0.2672  0.1844  0.6044
12890TIP3    H160161   5.957   6.161   2.945 -0.4978 -0.5529  2.5939
12890TIP3    H260162   6.108   6.154   2.946 -0.3937  1.2491  2.0732
12891TIP3   OH260163   0.545   0.525  16.518  0.0818 -0.3835 -0.1779
12891TIP3    H160164   0.475   0.470  16.483  0.3526 -0.7813 -0.1040
12891TIP3    H260165   0.614   0.519  16.452 -0.2893  0.7027 -0.6637
12892TIP3   OH260166   1.972   5.405  17.262  0.3070 -0.1053  0.0220
12892TIP3    H160167   1.959   5.426  17.355  1.0786  1.1661 -0.1530
12892TIP3    H260168   2.043   5.462  17.234  0.2578 -0.6797 -1.2950
12893TIP3   OH260169   0.166   4.314  15.976  0.3182  0.0662  0.1912
12893TIP3    H160170   0.071   4.325  15.977  0.6145  3.0094  2.5266
12893TIP3    H260171   0.189   4.313  15.883 -1.9170 -0.2572 -0.3978
12894TIP3   OH260172   1.064   4.611  16.353 -0.4673 -1.1020 -0.3124
12894TIP3    H160173   0.986   4.572  16.390 -0.4016 -0.4805  0.4939
12894TIP3    H260174   1.092   4.676  16.418 -1.4137  1.3189 -2.2545
12895TIP3   OH260175   6.307   5.298  17.121  0.3597 -0.7429 -0.2139
12895TIP3    H160176   6.259   5.334  17.196 -2.0138  0.8548 -2.4311
12895TIP3    H260177   6.394   5.335  17.128 -0.9578  2.5094 -0.3650
12896TIP3   OH260178   1.318   5.965   0.660  0.5301 -0.4158  0.1899
12896TIP3    H160179   1.403   5.921   0.671  1.4477  0.9700 -1.1189
12896TIP3    H260180   1.273   5.952   0.743  2.1481 -0.9494  0.9950
12897TIP3   OH260181   1.698   4.970   1.552 -0.5355 -0.1242 -0.4928
12897TIP3    H160182   1.710   5.055   1.594  0.0867 -0.1258 -0.6678
12897TIP3    H260183   1.775   4.919   1.578  0.2665  0.1491 -2.3132
12898TIP3   OH260184   2.282   2.561   5.911 -0.4709  0.1379 -0.7099
12898TIP3    H160185   2.307   2.613   5.988  0.6705  0.0094 -0.9852
12898TIP3    H260186   2.253   2.477   5.948 -0.3474  0.2384 -0.3800
12899TIP3   OH260187   6.719   2.822  14.851 -0.2942  0.3215  0.3805
12899TIP3    H160188   6.644   2.810  14.910  1.4035 -0.0319  2.5313
12899TIP3    H260189   6.697   2.900  14.800 -1.1192  1.5672  2.5721
12900TIP3   OH260190   4.651   3.685   4.321  0.8401  0.0895  0.1109
12900TIP3    H160191   4.638   3.645   4.235  0.3288  1.5168 -0.4927
12900TIP3    H260192   4.603   3.628   4.381  0.9928 -0.7847 -0.5748
12901TIP3   OH260193   1.344   6.266  15.104  0.2250 -0.3829  0.4338
12901TIP3    H160194   1.324   6.341  15.159 -0.6584  0.4065 -0.9492
12901TIP3    H260195   1.425   6.290  15.058 -1.6390  1.0177 -2.2621
12902TIP3   OH260196   6.660   1.181  12.201 -0.4570 -0.4357 -0.2213
12902TIP3    H160197   6.746   1.198  12.240 -0.9661 -0.7860  1.0850
12902TIP3    H260198   6.640   1.260  12.151  0.2104  0.0365  0.2533
12903TIP3   OH260199   5.478   2.955  11.019 -0.4042  0.0117  0.3209
12903TIP3    H160200   5.521   2.943  10.934 -0.7444 -2.7896  0.4840
12903TIP3    H260201   5.534   2.908  11.081  0.3491  2.8168  1.8705
12904TIP3   OH260202   0.448   1.138  13.013  0.0809 -0.2754  0.1582
12904TIP3    H160203   0.542   1.157  13.019  0.2586 -1.4997  1.3388
12904TIP3    H260204   0.434   1.119  12.920  0.5266  2.2777 -0.4683
12905TIP3   OH260205   1.025   4.383  12.320 -0.5005 -0.0053  0.9280
12905TIP3    H160206   1.092   4.320  12.348 -0.4051 -0.5213 -0.4293
12905TIP3    H260207   0.996   4.350  12.236 -0.4330  1.8018  0.1866
12906TIP3   OH260208   3.683   3.962   5.199 -0.0397  0.3180  0.2453
12906TIP3    H160209   3.689   3.867   5.190  0.3720  0.3213  0.4551
12906TIP3    H260210   3.608   3.976   5.257  1.0029  0.0354  1.7011
12907TIP3   OH260211   5.777   4.122  13.478 -0.5188  0.7297  0.3520
12907TIP3    H160212   5.768   4.156  13.567 -0.7513  1.9041 -0.1116
12907TIP3    H260213   5.687   4.116  13.445 -0.5313 -0.9536  0.6434
12908TIP3   OH260214   1.713   1.970   3.627  0.4141 -0.0620 -0.0122
12908TIP3    H160215   1.794   1.982   3.577  0.2527 -1.7172 -0.7158
12908TIP3    H260216   1.728   1.890   3.677 -0.3188  0.3095  0.7957
12909TIP3   OH260217   0.427   5.493  11.502  0.8650  0.0436  0.3561
12909TIP3    H160218   0.447   5.400  11.487 -0.6021 -0.1884 -0.2034
12909TIP3    H260219   0.420   5.500  11.597 -0.2384 -0.6988  0.3480
12910TIP3   OH260220   0.822   5.444   5.122  0.2451 -0.6190 -0.8048
12910TIP3    H160221   0.751   5.417   5.181  0.7472 -1.0400 -0.3807
12910TIP3    H260222   0.865   5.517   5.167  1.5413 -1.8811  0.0564
12911TIP3   OH260223   2.047   4.113  14.822 -0.1207  0.2137  0.1743
12911TIP3    H160224   2.101   4.179  14.865 -0.1496  0.6281 -0.4061
12911TIP3    H260225   2.046   4.140  14.730  2.5740 -2.3951 -0.7060
12912TIP3   OH260226   1.625   1.736   2.810 -0.1099  0.1397 -0.1944
12912TIP3    H160227   1.602   1.726   2.902  3.3992  1.4828  0.8998
12912TIP3    H260228   1.560   1.799   2.777 -1.0443  0.1070  1.4891
12913TIP3   OH260229   3.305   4.052  13.971  0.4287  0.2000 -0.1831
12913TIP3    H160230   3.339   4.102  14.046  0.6377 -1.9045  1.1807
12913TIP3    H260231   3.244   3.989  14.010  0.6341 -1.0047 -1.7632
12914TIP3   OH260232   4.355   2.654  12.117 -0.3464 -0.0314 -0.0538
12914TIP3    H160233   4.435   2.605  12.097  0.6115  1.8812 -0.9529
12914TIP3    H260234   4.344   2.643  12.212  0.3029 -1.2974 -0.1045
12915TIP3   OH260235   4.945   4.337  17.199 -0.0073 -0.2082 -0.2810
12915TIP3    H160236   4.901   4.312  17.118  0.8081 -0.4438 -0.6562
12915TIP3    H260237   4.921   4.268  17.261 -0.4721 -0.1346 -0.3718
12916TIP3   OH260238   4.267   1.968   2.524 -0.3972  0.0980 -0.1326
12916TIP3    H160239   4.343   2.002   2.477 -0.9901  0.8699 -0.5594
12916TIP3    H260240   4.269   2.012   2.609  2.0255 -3.0936  1.5426
12917TIP3   OH260241   5.821   3.391   4.522  0.0603  0.0864  0.1806
12917TIP3    H160242   5.750   3.391   4.587 -0.6278  2.6717 -0.5252
12917TIP3    H260243   5.885   3.453   4.556  1.2212 -0.9743 -0.0372
12918TIP3   OH260244   6.191   1.353   4.825 -0.3560 -0.4808 -0.3202
12918TIP3    H160245   6.229   1.394   4.747  1.4149 -2.7612 -0.7004
12918TIP3    H260246   6.137   1.422   4.864  1.5060  1.8071 -1.6413
12919TIP3   OH260247   6.567   5.691  12.559  0.2946  0.0325 -0.7140
12919TIP3    H160248   6.627   5.631  12.602 -1.7432 -0.7438  1.1472
12919TIP3    H260249   6.511   5.634  12.505 -0.2118  0.4941 -0.6869
12920TIP3   OH260250   0.080   3.612   1.622  0.4804  0.0507  0.5031
12920TIP3    H160251   0.008   3.674   1.613 -0.7175 -1.0187  2.4060
12920TIP3    H260252   0.109   3.596   1.532 -2.4126 -0.3629 -0.4096
12921TIP3   OH260253   5.575   1.849   4.516 -0.0775  0.0838  0.3781
12921TIP3    H160254   5.607   1.839   4.427  0.4074 -0.2359  0.5879
12921TIP3    H260255   5.498   1.906   4.508  1.2728  1.9255  0.0148
12922TIP3   OH260256   5.551   6.555   4.952 -0.4077  0.4132  0.6629
12922TIP3    H160257   5.619   6.524   4.892 -1.8010 -0.6143 -0.4099
12922TIP3    H260258   5.563   6.501   5.031 -0.6557 -0.5093  0.0738
12923TIP3   OH260259   5.798   2.488   4.051 -0.7170 -0.1529 -0.6469
12923TIP3    H160260   5.707   2.505   4.024 -0.4775  1.0544 -0.7368
12923TIP3    H260261   5.793   2.480   4.147 -0.8036  0.7518 -0.5686
12924TIP3   OH260262   1.483   1.310  16.051 -0.2136 -0.3494 -0.4330
12924TIP3    H160263   1.437   1.227  16.047  0.5390 -0.8088  0.4327
12924TIP3    H260264   1.424   1.368  16.099  0.8496 -1.4403  2.2700
12925TIP3   OH260265   1.590   5.852   0.115  0.4720 -0.1170 -0.0560
12925TIP3    H160266   1.538   5.926   0.146  0.9054  0.2304 -0.1484
12925TIP3    H260267   1.526   5.782   0.102  0.2474 -0.2143  1.4306
12926TIP3   OH260268   4.387   6.374   2.756  0.1971  0.6529 -0.3181
12926TIP3    H160269   4.403   6.439   2.687  0.3784 -0.2989 -1.1918
12926TIP3    H260270   4.321   6.415   2.812  0.1750  1.5218 -0.9558
12927TIP3   OH260271   5.952   3.148  14.141  0.1632 -0.0404  0.0181
12927TIP3    H160272   5.954   3.241  14.161  0.2106 -0.1850  0.7124
12927TIP3    H260273   5.991   3.106  14.219 -0.5281 -0.6852  0.0213
12928TIP3   OH260274   5.099   1.653  13.843  0.3904  0.3560  0.1673
12928TIP3    H160275   5.131   1.644  13.753 -1.1840 -0.7619 -0.2943
12928TIP3    H260276   5.178   1.649  13.897  1.3073  0.5991 -1.1315
12929TIP3   OH260277   1.130   2.155  11.537  0.5085  0.3713 -0.0561
12929TIP3    H160278   1.216   2.151  11.580  0.0807  2.8401  1.0935
12929TIP3    H260279   1.074   2.201  11.598 -1.7718 -1.4407 -0.6921
12930TIP3   OH260280   1.514   3.937   0.923  0.1645 -0.1854 -0.0732
12930TIP3    H160281   1.536   4.003   0.858 -1.0277  1.0498  0.7655
12930TIP3    H260282   1.482   3.863   0.871 -1.4064  1.0364 -0.8691
12931TIP3   OH260283   4.078   3.433  12.270  0.2099 -0.1959  0.4827
12931TIP3    H160284   4.164   3.447  12.309  0.5245  0.2603 -0.3692
12931TIP3    H260285   4.037   3.519  12.267  0.1342 -0.2450 -0.0602
12932TIP3   OH260286   0.060   3.148   2.488 -0.2334 -0.1435  0.6820
12932TIP3    H160287   0.066   3.242   2.476 -0.1470 -0.1651  0.5625
12932TIP3    H260288   0.044   3.112   2.401  1.3968 -0.3806  0.4569
12933TIP3   OH260289   2.192   3.374   5.192 -0.1240  0.0365 -0.4673
12933TIP3    H160290   2.114   3.330   5.224  1.6137 -1.5236  1.8364
12933TIP3    H260291   2.161   3.430   5.121 -3.4735  0.2959  1.1011
12934TIP3   OH260292   4.424   6.098   1.820 -0.4044 -0.3440 -0.5274
12934TIP3    H160293   4.412   6.161   1.891  0.5894 -0.7635  0.0174
12934TIP3    H260294   4.358   6.123   1.755 -0.7713  0.5535  0.1761
12935TIP3   OH260295   4.775   5.243  11.687 -0.2850 -0.4051 -0.0476
12935TIP3    H160296   4.791   5.292  11.607  1.9992 -0.0827  0.5646
12935TIP3    H260297   4.691   5.276  11.720 -0.1887  0.9829 -1.1686
12936TIP3   OH260298   3.797   6.546   5.061 -0.0546 -0.3559 -0.2729
12936TIP3    H160299   3.737   6.619   5.080  0.1211 -0.0892 -0.7177
12936TIP3    H260300   3.739   6.473   5.040 -0.2422 -0.5759  0.9978
12937TIP3   OH260301   0.963   2.554  12.508  0.4806  0.1277 -0.0400
12937TIP3    H160302   1.045   2.505  12.499  1.0412  1.1412 -0.5557
12937TIP3    H260303   0.991   2.645  12.520 -0.5153  0.1974  1.9640
12938TIP3   OH260304   6.335   0.198   5.366 -0.6800  0.3109  0.2758
12938TIP3    H160305   6.257   0.196   5.421  0.5131  2.0578  2.0984
12938TIP3    H260306   6.407   0.218   5.426  0.8194  1.2363 -1.7424
12939TIP3   OH260307   6.067   6.795  12.097  0.7211 -0.3665  0.6713
12939TIP3    H160308   6.149   6.786  12.144  1.4756 -0.6061 -0.6721
12939TIP3    H260309   6.086   6.766  12.008 -0.5130  0.6738  0.0422
12940TIP3   OH260310   4.968   3.056   4.501 -0.2101 -0.4291  0.1936
12940TIP3    H160311   4.923   3.136   4.472 -0.9888 -0.9103  0.0463
12940TIP3    H260312   4.902   2.987   4.492 -0.4755 -0.6140  3.0379
12941TIP3   OH260313   1.883   3.396   1.113  0.1632  0.4513 -0.3819
12941TIP3    H160314   1.909   3.454   1.185 -0.7046  0.1030  0.2157
12941TIP3    H260315   1.844   3.320   1.155  0.4350 -0.1501 -1.1975
12942TIP3   OH260316   3.633   5.450  13.973  0.1415  0.8284 -0.3230
12942TIP3    H160317   3.666   5.441  13.884 -0.1272 -0.7710 -0.2799
12942TIP3    H260318   3.566   5.518  13.967 -1.1030 -0.4764 -1.7074
12943TIP3   OH260319   0.996   6.317  10.674  0.1975 -0.1719  0.8048
12943TIP3    H160320   0.928   6.267  10.720 -0.8992 -0.5876 -1.2269
12943TIP3    H260321   1.056   6.250  10.640 -1.8812 -0.2959 -2.8941
12944TIP3   OH260322   1.596   6.472   2.104  0.5207  0.1419 -0.7088
12944TIP3    H160323   1.640   6.427   2.032  1.5288  1.1284 -0.7266
12944TIP3    H260324   1.570   6.402   2.164  2.7554 -0.4256 -0.3462
12945TIP3   OH260325   3.498   3.603  14.487 -0.2600 -0.0008  0.0925
12945TIP3    H160326   3.583   3.559  14.477 -1.0285 -1.8395  1.3704
12945TIP3    H260327   3.493   3.624  14.580 -0.9525  0.6300 -0.0870
12946TIP3   OH260328   3.668   4.944  16.396  0.4693 -0.0030 -0.1925
12946TIP3    H160329   3.671   4.937  16.491  0.7637 -0.2712 -0.2198
12946TIP3    H260330   3.639   4.858  16.366 -3.1975  1.1638 -0.1841
12947TIP3   OH260331   3.832   6.632   5.608 -0.3486 -0.2798 -0.0108
12947TIP3    H160332   3.840   6.653   5.515  0.1101 -0.1498  0.0561
12947TIP3    H260333   3.765   6.692   5.641 -2.2587 -1.9433 -0.7597
12948TIP3   OH260334   2.409   4.247  13.889 -0.5540 -0.2298  0.0095
12948TIP3    H160335   2.384   4.199  13.968  1.2933  0.2146  0.8922
12948TIP3    H260336   2.411   4.338  13.916  1.1876 -0.1824 -0.2425
12949TIP3   OH260337   5.072   0.115  16.268  0.2998  0.1066  0.8479
12949TIP3    H160338   5.138   0.163  16.318 -0.5881  0.2759  1.8905
12949TIP3    H260339   5.001   0.102  16.330 -0.0215 -1.4048  0.1816
12950TIP3   OH260340   6.617   6.439  13.999 -0.0756 -0.0084  0.8712
12950TIP3    H160341   6.532   6.397  13.988 -0.2459 -0.3190  3.1910
12950TIP3    H260342   6.662   6.385  14.064  2.6141 -0.9058 -1.6179
12951TIP3   OH260343   5.245   5.514  12.404  0.2526 -0.0509 -0.5786
12951TIP3    H160344   5.266   5.593  12.453 -1.6785  0.4705 -0.5626
12951TIP3    H260345   5.277   5.442  12.459 -0.0611  0.6221  0.4873
12952TIP3   OH260346   4.617   5.946  16.723 -0.4631 -0.3483 -0.1930
12952TIP3    H160347   4.687   5.988  16.674 -0.1550  0.2661  0.7453
12952TIP3    H260348   4.661   5.899  16.793 -1.0670  2.1067  1.9404
12953TIP3   OH260349   6.275   1.733   4.105  0.7295 -0.7598  0.5706
12953TIP3    H160350   6.370   1.729   4.100  0.6817 -0.2944 -0.9111
12953TIP3    H260351   6.247   1.750   4.015 -0.6994  0.1186  1.1653
12954TIP3   OH260352   5.215   1.900   3.542 -0.3825  0.2272  0.1187
12954TIP3    H160353   5.296   1.947   3.563  0.1086 -0.3678 -0.3923
12954TIP3    H260354   5.232   1.810   3.569 -0.2035 -0.2784 -1.6095
12955TIP3   OH260355   1.604   5.713   5.214  0.0299  0.2744  0.3499
12955TIP3    H160356   1.511   5.732   5.221 -0.0156 -0.3360  1.6222
12955TIP3    H260357   1.629   5.681   5.301  1.3797  0.2335 -0.0297
12956TIP3   OH260358   1.781   1.311   0.460  0.3572 -0.2767 -0.3637
12956TIP3    H160359   1.729   1.233   0.443 -0.0322  0.2500 -1.6984
12956TIP3    H260360   1.772   1.363   0.380  0.6029  1.1349  0.5079
12957TIP3   OH260361   2.104   0.761   3.851  0.0404 -0.3281  0.1281
12957TIP3    H160362   2.171   0.824   3.824 -0.1673 -0.4113 -0.6003
12957TIP3    H260363   2.150   0.677   3.853  0.0582 -0.3209  0.0305
12958TIP3   OH260364   3.502   3.513  14.942 -0.0355 -0.5621  0.5530
12958TIP3    H160365   3.417   3.553  14.927 -0.1909 -0.9963  0.2440
12958TIP3    H260366   3.482   3.425  14.974  0.3016 -0.0802  2.1319
12959TIP3   OH260367   2.018   2.730  16.867  0.2523  0.2803 -0.4473
12959TIP3    H160368   2.019   2.660  16.802  1.6104  0.2184 -0.3844
12959TIP3    H260369   2.064   2.694  16.943 -0.4008  0.7100  0.1682
12960TIP3   OH260370   1.614   0.993  14.822  0.3354  0.3856 -1.0799
12960TIP3    H160371   1.548   1.035  14.878 -0.2132 -0.1324 -1.3364
12960TIP3    H260372   1.573   0.988  14.736  0.2330 -1.0461 -0.9594
12961TIP3   OH260373   2.120   0.873   5.257 -0.7677 -0.0744 -0.4316
12961TIP3    H160374   2.153   0.962   5.272  0.4694 -0.5366 -0.3963
12961TIP3    H260375   2.197   0.823   5.229 -1.1898 -1.4301  0.7644
12962TIP3   OH260376   0.462   2.306   4.725 -0.1489 -0.4231 -0.3288
12962TIP3    H160377   0.555   2.291   4.743  0.0038  2.4998  1.6583
12962TIP3    H260378   0.462   2.378   4.662 -1.0517 -0.5561 -0.4814
12963TIP3   OH260379   2.333   0.279  13.395 -0.2761  0.5952 -0.0304
12963TIP3    H160380   2.255   0.236  13.360  0.1698 -0.0625 -0.2148
12963TIP3    H260381   2.358   0.226  13.471  2.5100 -1.7662 -2.4730
12964TIP3   OH260382   3.671   6.319   3.944 -0.5644 -0.8824 -0.0026
12964TIP3    H160383   3.706   6.293   4.030  0.1898 -1.8757 -0.5893
12964TIP3    H260384   3.577   6.325   3.957 -0.3568  0.0307  1.1631
12965TIP3   OH260385   2.010   4.643   4.561 -0.7392  0.3020 -0.3482
12965TIP3    H160386   2.070   4.649   4.487  0.7376 -1.1509  0.6850
12965TIP3    H260387   1.987   4.734   4.581 -0.2424  0.7714 -1.8562
12966TIP3   OH260388   4.800   0.988   3.780 -0.4545  0.1489 -0.2016
12966TIP3    H160389   4.823   0.914   3.723  0.7798 -0.4894  1.0713
12966TIP3    H260390   4.866   1.054   3.761  0.2350 -0.2355  0.7632
12967TIP3   OH260391   2.044   3.082  12.796 -0.1949 -0.7453 -0.2881
12967TIP3    H160392   2.062   3.046  12.883 -1.3180  0.7686  0.5967
12967TIP3    H260393   1.980   3.023  12.758 -1.0265 -0.4359  0.6229
12968TIP3   OH260394   6.155   0.495  12.800 -0.4832  0.1104  0.0180
12968TIP3    H160395   6.185   0.406  12.818 -1.7443 -0.5454 -1.1371
12968TIP3    H260396   6.232   0.539  12.763 -0.0706 -0.6996 -0.0920
12969TIP3   OH260397   1.855   5.047   4.164 -0.3660 -0.7368 -0.3528
12969TIP3    H160398   1.913   5.035   4.089  0.9701 -2.2249  0.8909
12969TIP3    H260399   1.908   5.094   4.228 -1.1782 -0.3511  0.0418
12970TIP3   OH260400   6.717   1.157   1.839  0.2672 -0.1756 -0.4377
12970TIP3    H160401   6.730   1.109   1.922 -1.4309 -1.6986 -1.0162
12970TIP3    H260402   6.647   1.219   1.858  1.0595  0.6843 -0.2725
12971TIP3   OH260403   0.495   0.635   3.515 -0.4498 -0.8166  0.1232
12971TIP3    H160404   0.449   0.678   3.587 -1.6642  0.4778 -1.3862
12971TIP3    H260405   0.442   0.559   3.493 -0.8313 -0.4330 -0.3038
12972TIP3   OH260406   4.937   0.402  16.274 -0.2344  0.1993  0.0070
12972TIP3    H160407   4.907   0.327  16.325 -0.2071 -1.0738 -1.7816
12972TIP3    H260408   4.928   0.373  16.183  3.0457  1.1197 -0.6522
12973TIP3   OH260409   3.588   3.910   3.108  0.2811 -0.8336  0.1353
12973TIP3    H160410   3.537   3.955   3.176  1.3105 -0.5361  0.7237
12973TIP3    H260411   3.598   3.821   3.140  1.0376 -0.6103  0.5356
12974TIP3   OH260412   2.747   0.869   6.147 -0.1257 -0.4323 -0.0526
12974TIP3    H160413   2.723   0.961   6.137  1.2401  0.0555  0.9062
12974TIP3    H260414   2.664   0.821   6.142 -0.8876  0.8871 -0.1437
12975TIP3   OH260415   4.480   3.070  10.983 -0.9737  1.1296  0.2655
12975TIP3    H160416   4.460   3.119  10.904  0.0492  0.3047 -0.5095
12975TIP3    H260417   4.512   2.985  10.952  0.5419  1.2173  1.5241
12976TIP3   OH260418   3.266   6.722  17.074  0.6561  0.1560 -0.0633
12976TIP3    H160419   3.193   6.759  17.024  0.4339 -0.5139 -0.2480
12976TIP3    H260420   3.252   6.753  17.163  0.4537  0.4861 -0.2077
12977TIP3   OH260421   3.409   3.697  12.184  0.2421  0.0328 -0.1317
12977TIP3    H160422   3.372   3.772  12.232 -0.4640 -0.4161  0.0343
12977TIP3    H260423   3.357   3.622  12.213  0.1175 -0.3200 -1.2425
12978TIP3   OH260424   3.423   6.017   0.970 -0.2661 -0.0332 -0.8106
12978TIP3    H160425   3.474   6.090   1.004  1.5415 -1.4573 -0.3988
12978TIP3    H260426   3.362   5.995   1.040  0.2421  0.0695 -0.3395
12979TIP3   OH260427   4.948   5.517  13.249 -0.0684  0.2053 -0.1834
12979TIP3    H160428   4.949   5.445  13.311  0.9555  0.4486  0.0931
12979TIP3    H260429   4.855   5.538  13.238 -0.3125 -0.5333  0.4483
12980TIP3   OH260430   3.969   5.846  14.238  0.0718 -0.3184 -0.1399
12980TIP3    H160431   3.891   5.808  14.277 -0.6038  0.8841 -0.3020
12980TIP3    H260432   4.025   5.868  14.312  0.3205 -1.2831 -0.0306
12981TIP3   OH260433   5.844   3.810  16.100 -0.0258  0.3962 -0.1937
12981TIP3    H160434   5.791   3.799  16.179 -1.2378  1.5975 -0.8315
12981TIP3    H260435   5.787   3.855  16.039  0.6737 -1.1258 -2.0069
12982TIP3   OH260436   4.995   0.570  15.982 -0.6452 -0.0936 -0.4541
12982TIP3    H160437   4.993   0.605  16.071  0.5683 -2.4986  0.5576
12982TIP3    H260438   5.084   0.589  15.952 -0.9329  0.3611 -1.0328
12983TIP3   OH260439   2.726   6.246  15.883 -0.0509 -0.0519  0.6172
12983TIP3    H160440   2.756   6.333  15.860 -1.4475  1.0529  2.8452
12983TIP3    H260441   2.797   6.188  15.855  1.0846  1.8139 -0.4655
12984TIP3   OH260442   0.266   5.366  11.214  0.5597  0.3108  0.5049
12984TIP3    H160443   0.263   5.280  11.256 -0.9772 -0.1334 -0.4741
12984TIP3    H260444   0.355   5.373  11.179  1.0734 -0.3488  1.6526
12985TIP3   OH260445   1.071   5.352   3.808  0.0084 -0.0500 -0.0043
12985TIP3    H160446   1.023   5.286   3.757  0.5165 -2.1124  2.0822
12985TIP3    H260447   1.066   5.432   3.755 -0.7539 -1.7129 -2.5334
12986TIP3   OH260448   4.939   2.098   1.829  1.3076 -0.2222  0.0547
12986TIP3    H160449   4.875   2.082   1.898 -0.9984 -0.4611 -2.0610
12986TIP3    H260450   4.958   2.011   1.793  0.4799  0.1645 -1.3337
12987TIP3   OH260451   3.175   3.170   5.130  0.0977  0.0907  0.7014
12987TIP3    H160452   3.197   3.178   5.037 -0.7046 -2.7221  0.2121
12987TIP3    H260453   3.260   3.159   5.174  0.4738  1.3773  0.3120
12988TIP3   OH260454   5.544   2.268  11.387  0.1939 -0.8656 -0.3430
12988TIP3    H160455   5.473   2.252  11.326 -1.0807 -0.6233  1.0618
12988TIP3    H260456   5.542   2.362  11.403  1.5921 -0.6721 -1.1942
12989TIP3   OH260457   4.215   3.492   1.885  0.5781 -0.1757  0.3211
12989TIP3    H160458   4.208   3.485   1.789  0.7167  2.6327  0.0577
12989TIP3    H260459   4.309   3.486   1.903  0.5066 -1.3366  0.3672
12990TIP3   OH260460   1.409   0.440  15.732  0.4943  0.1236  0.2114
12990TIP3    H160461   1.322   0.400  15.735 -0.4354  2.2143  2.4232
12990TIP3    H260462   1.405   0.501  15.659  0.0816  0.2698  0.3566
12991TIP3   OH260463   1.980   5.853   1.781  0.0885  0.4583 -0.0761
12991TIP3    H160464   2.046   5.880   1.845  0.8405  0.1071 -0.7057
12991TIP3    H260465   1.914   5.922   1.786  0.1598  0.4647  1.0399
12992TIP3   OH260466   4.854   4.403   4.655 -0.8555 -0.0668 -0.0374
12992TIP3    H160467   4.890   4.491   4.649  0.3761 -0.5823 -0.3360
12992TIP3    H260468   4.860   4.381   4.748  1.3224 -0.8425 -0.3335
12993TIP3   OH260469   3.702   2.441  14.097  0.1110  0.1959 -0.2569
12993TIP3    H160470   3.618   2.428  14.142  0.8448 -0.4657  0.9501
12993TIP3    H260471   3.696   2.529  14.060 -0.3790  0.9035  1.4459
12994TIP3   OH260472   0.523   1.656   5.105 -0.4244 -0.6494  0.0547
12994TIP3    H160473   0.475   1.594   5.160 -0.8065  0.4596  1.0023
12994TIP3    H260474   0.601   1.607   5.076 -1.4658 -2.0395 -0.4452
12995TIP3   OH260475   5.053   2.558  13.666 -0.9656  0.0119  0.5822
12995TIP3    H160476   5.095   2.480  13.702 -0.2750  0.1269  0.0320
12995TIP3    H260477   5.125   2.610  13.631 -1.7160 -0.5395 -1.8293
12996TIP3   OH260478   0.174   6.457   6.521 -0.2516 -0.2455  0.1512
12996TIP3    H160479   0.084   6.426   6.518 -0.2948 -0.0466 -0.7392
12996TIP3    H260480   0.214   6.421   6.442  0.2657  0.2263  0.1974
12997TIP3   OH260481   0.924   6.033   4.824 -0.0197  0.5990 -0.2539
12997TIP3    H160482   0.874   6.053   4.903  0.3906  0.5044  0.0282
12997TIP3    H260483   0.862   5.986   4.768  0.4750 -1.7317  1.1164
12998TIP3   OH260484   3.922   1.331  14.250 -0.1098 -0.1511  1.3278
12998TIP3    H160485   3.869   1.252  14.261 -0.3617 -0.0559  0.8417
12998TIP3    H260486   3.868   1.401  14.287 -1.4537  0.3485 -1.4501
12999TIP3   OH260487   5.646   3.820   0.027 -0.1351  0.2340  0.2343
12999TIP3    H160488   5.556   3.833   0.057 -0.2841  0.5666 -0.3436
12999TIP3    H260489   5.637   3.784  -0.061  0.2843 -2.2502  1.1702
13000TIP3   OH260490   0.680   1.546  16.348  0.0425 -0.2604 -0.3679
13000TIP3    H160491   0.642   1.473  16.298 -0.1086 -1.2772  1.1781
13000TIP3    H260492   0.680   1.515  16.439  0.8043  1.3345  0.1986
13001TIP3   OH260493   5.255   3.528   5.368  0.4090 -0.1323 -0.0841
13001TIP3    H160494   5.221   3.445   5.400 -1.6064  1.3121  1.6079
13001TIP3    H260495   5.350   3.518   5.371  0.1852 -2.5920 -0.5318
13002TIP3   OH260496   0.404   5.152   2.054  0.0113 -0.1358  0.7358
13002TIP3    H160497   0.499   5.155   2.044 -0.2577  0.1271 -2.4063
13002TIP3    H260498   0.385   5.207   2.129  2.3167  0.0917  1.1763
13003TIP3   OH260499   4.202   5.339   2.419  0.1199  0.0198 -0.4326
13003TIP3    H160500   4.203   5.401   2.492  1.1353 -0.4735 -0.0168
13003TIP3    H260501   4.120   5.292   2.429  0.3215 -0.1497  0.4869
13004TIP3   OH260502   4.529   0.015  16.777 -0.3410  0.1941 -0.3173
13004TIP3    H160503   4.601   0.030  16.839 -1.2792  0.2680  0.7782
13004TIP3    H260504   4.473  -0.050  16.820 -0.5073 -0.4498 -1.5138
13005TIP3   OH260505   3.449   6.681  13.601  0.0170 -0.1046  0.2921
13005TIP3    H160506   3.394   6.700  13.677  1.1768  0.2248  1.0582
13005TIP3    H260507   3.428   6.590  13.578  0.1676 -0.4439  1.4498
13006TIP3   OH260508   5.583   5.856   4.108 -0.0896 -0.2806 -0.2748
13006TIP3    H160509   5.618   5.777   4.148 -1.3647  0.1314  1.7480
13006TIP3    H260510   5.490   5.856   4.133 -1.0445 -0.1914 -3.5875
13007TIP3   OH260511   0.601   3.303  14.405 -0.2121  0.5890  0.1709
13007TIP3    H160512   0.612   3.223  14.456  1.2659  0.3590 -0.4897
13007TIP3    H260513   0.688   3.341  14.400 -0.4627  0.9666 -1.5780
13008TIP3   OH260514   2.138   1.883   3.220 -0.0301  0.2560  0.3397
13008TIP3    H160515   2.184   1.924   3.293  0.8536  0.9593 -0.5873
13008TIP3    H260516   2.203   1.827   3.178 -0.7021 -0.6263  0.4525
13009TIP3   OH260517   4.001   6.373   3.424  0.3446  0.7780  0.4279
13009TIP3    H160518   3.955   6.421   3.356 -0.1494 -1.5975 -0.9445
13009TIP3    H260519   3.971   6.413   3.506  0.1830  2.9840 -0.6891
13010TIP3   OH260520   6.696   3.390  13.085 -0.7877  0.4584  0.1558
13010TIP3    H160521   6.779   3.344  13.076 -1.2173 -0.7089  1.8355
13010TIP3    H260522   6.637   3.326  13.125 -1.9576  1.8570  0.7366
13011TIP3   OH260523   5.917   4.296   3.452  0.0669  0.1606  0.4910
13011TIP3    H160524   5.917   4.392   3.448 -4.0566  0.1717 -1.2053
13011TIP3    H260525   5.862   4.275   3.528  0.6168 -0.8935  0.6112
13012TIP3   OH260526   2.254   4.064  13.246  0.3574 -0.1353  0.4840
13012TIP3    H160527   2.317   4.009  13.292  0.8641 -0.0024 -0.0504
13012TIP3    H260528   2.200   4.003  13.196  1.2663 -0.1028 -0.5320
13013TIP3   OH260529   5.558   0.974   3.285 -0.0791  0.8012  0.4605
13013TIP3    H160530   5.490   1.013   3.230 -0.3532 -1.7403 -1.0860
13013TIP3    H260531   5.511   0.917   3.345  0.3605  2.3907  2.3602
13014TIP3   OH260532   2.164   6.194  15.739 -0.2549 -0.6104 -0.1340
13014TIP3    H160533   2.217   6.123  15.704 -2.1070 -2.6089  0.9879
13014TIP3    H260534   2.203   6.214  15.824  0.9876  0.5586 -0.9652
13015TIP3   OH260535   2.019   5.754  14.177  0.1319 -0.7527 -0.0239
13015TIP3    H160536   1.955   5.819  14.207  0.1722 -0.8041  0.1764
13015TIP3    H260537   1.968   5.692  14.124  0.0082 -0.8158  0.1694
13016TIP3   OH260538   4.329   5.704   1.458 -0.1658  0.4682  0.1260
13016TIP3    H160539   4.270   5.629   1.451  0.9061 -0.2342 -1.7401
13016TIP3    H260540   4.409   5.669   1.496  0.2504  0.7019 -0.5167
13017TIP3   OH260541   2.037   5.469   5.289 -0.0149 -0.9577  0.1933
13017TIP3    H160542   2.049   5.556   5.250  2.5052 -1.2155  0.2659
13017TIP3    H260543   2.035   5.410   5.214  1.9240 -1.1572  0.2525
13018TIP3   OH260544   1.632   4.646   4.552  0.0171 -0.0355  0.2212
13018TIP3    H160545   1.699   4.582   4.527  1.1716  1.7082 -1.2969
13018TIP3    H260546   1.602   4.617   4.638  3.1397 -0.5526  1.2069
13019TIP3   OH260547   2.732   3.976   3.222  0.0275 -0.1304  0.5198
13019TIP3    H160548   2.703   3.894   3.183 -0.8974  1.5726 -2.5398
13019TIP3    H260549   2.652   4.027   3.234  0.8369  1.2699  0.1131
13020TIP3   OH260550   6.604   0.778  13.216  0.4562  0.6604  0.5072
13020TIP3    H160551   6.551   0.701  13.237 -1.0821  1.7847  0.8376
13020TIP3    H260552   6.582   0.841  13.284  2.0455  1.2508  0.4903
13021TIP3   OH260553   4.444   3.125   2.346  0.3898  0.3049  0.6503
13021TIP3    H160554   4.359   3.148   2.309  0.9353  0.7796 -0.3178
13021TIP3    H260555   4.423   3.076   2.426 -0.8032  2.0532  1.4424
13022TIP3   OH260556   3.450   1.716  13.216 -0.3685  0.2962 -0.4587
13022TIP3    H160557   3.444   1.699  13.122 -1.3786 -0.3339 -0.2889
13022TIP3    H260558   3.426   1.808  13.226 -0.4206  0.3202 -0.8098
13023TIP3   OH260559   5.550   4.862   3.305 -0.4154  0.1637  0.2732
13023TIP3    H160560   5.611   4.930   3.277 -0.2962 -0.1276 -0.1794
13023TIP3    H260561   5.598   4.811   3.370 -0.5235  0.5452  0.6520
13024TIP3   OH260562   5.584   6.725  11.083 -0.5008 -0.0084 -0.1992
13024TIP3    H160563   5.601   6.812  11.047  1.1210 -0.4710 -0.6174
13024TIP3    H260564   5.576   6.669  11.006 -2.2096 -0.1363  0.0508
13025TIP3   OH260565   5.520   1.510  12.971 -0.2334 -0.4131  0.3436
13025TIP3    H160566   5.571   1.590  12.953  0.5904 -1.1877 -0.9130
13025TIP3    H260567   5.520   1.463  12.887 -0.1978 -2.0142  1.2187
13026TIP3   OH260568   4.378   5.422  11.351  0.4830  0.6719  0.5927
13026TIP3    H160569   4.360   5.493  11.289  1.3215  0.5629  0.2185
13026TIP3    H260570   4.304   5.363  11.341  1.3059 -0.0720 -1.3703
13027TIP3   OH260571   1.568   5.944  15.268 -0.0412  0.4004  0.2383
13027TIP3    H160572   1.607   5.861  15.242 -2.5683 -0.7244 -0.0602
13027TIP3    H260573   1.604   5.961  15.355  1.2854 -0.4897 -0.1263
13028TIP3   OH260574   1.979   2.929  13.509  0.1332  0.1613 -0.1827
13028TIP3    H160575   2.031   2.890  13.438  0.7999  0.1217  0.3215
13028TIP3    H260576   1.974   3.022  13.486  0.4994  0.1810 -0.1936
13029TIP3   OH260577   4.825   4.862  12.563 -0.0653 -0.4978  0.5038
13029TIP3    H160578   4.741   4.908  12.566  0.4733  0.5182  0.1049
13029TIP3    H260579   4.876   4.902  12.634  0.6879  0.0782 -0.3605
13030TIP3   OH260580   0.204   5.213   6.152  0.3207 -0.2178  0.0958
13030TIP3    H160581   0.240   5.207   6.241 -1.4989 -2.0804  0.7582
13030TIP3    H260582   0.280   5.209   6.094  1.5436  1.1106  1.5536
13031TIP3   OH260583   5.566   5.515  11.275 -0.4201  0.4156 -0.0648
13031TIP3    H160584   5.652   5.555  11.264 -0.4219  0.1761 -1.0215
13031TIP3    H260585   5.565   5.483  11.366  1.3399 -1.5272 -0.6971
13032TIP3   OH260586   0.147   6.228  13.985 -0.5502  0.1088 -0.3405
13032TIP3    H160587   0.167   6.308  14.033 -0.1962 -0.1200 -0.1064
13032TIP3    H260588   0.091   6.257  13.912  1.6218  0.9532 -1.7315
13033TIP3   OH260589   0.958   5.704   4.130 -0.3593  0.1624 -0.0203
13033TIP3    H160590   0.974   5.610   4.127  2.9325  0.6949 -1.2141
13033TIP3    H260591   0.924   5.726   4.043  1.4791  0.4618 -0.6849
13034TIP3   OH260592   2.301   2.858  15.856  0.4973  0.0905  0.0802
13034TIP3    H160593   2.319   2.835  15.765  0.8556 -1.3217  0.4858
13034TIP3    H260594   2.383   2.838  15.902 -0.2871 -1.0726  1.0163
13035TIP3   OH260595   2.472   0.891  11.481  0.0992 -0.1327  0.3829
13035TIP3    H160596   2.532   0.937  11.541 -0.2362  2.4808 -1.2052
13035TIP3    H260597   2.421   0.961  11.440 -1.4775 -2.0653 -1.0448
13036TIP3   OH260598   3.352   6.589   3.391 -0.0090 -0.1985 -0.4275
13036TIP3    H160599   3.314   6.606   3.304  1.6862 -0.6210 -1.2672
13036TIP3    H260600   3.443   6.567   3.373  0.5680  0.5267  1.5374
13037TIP3   OH260601   3.390   5.499   6.573  0.2689  0.2463  0.4917
13037TIP3    H160602   3.338   5.433   6.619  0.4516  0.3489  0.8427
13037TIP3    H260603   3.334   5.577   6.574  1.2923  0.9989  2.7673
13038TIP3   OH260604   2.281   6.820   3.285 -0.5801 -0.1143  0.0848
13038TIP3    H160605   2.357   6.857   3.330 -0.7087  1.2657 -0.8172
13038TIP3    H260606   2.229   6.780   3.354 -0.2813  1.1112  1.0220
13039TIP3   OH260607   2.881   0.630  13.619  0.4468  0.3685 -0.1299
13039TIP3    H160608   2.822   0.555  13.614  1.9985 -0.8949  0.1073
13039TIP3    H260609   2.940   0.618  13.545  1.0549  1.0703  0.2390
13040TIP3   OH260610   6.687   6.293  11.801  0.0041 -0.1975 -0.0622
13040TIP3    H160611   6.692   6.377  11.754 -0.2179 -1.1791 -1.9038
13040TIP3    H260612   6.735   6.308  11.882  0.6148  1.4998 -0.7039
13041TIP3   OH260613   3.975   1.037   2.219 -0.2433 -0.0060  0.0329
13041TIP3    H160614   4.041   1.041   2.289 -0.1120  2.2738 -0.2033
13041TIP3    H260615   3.969   0.944   2.198 -0.8916 -0.8580  3.6619
13042TIP3   OH260616   4.615   0.248  11.650 -0.9142  0.1875 -0.3831
13042TIP3    H160617   4.605   0.166  11.698 -1.0865  0.4188 -0.0287
13042TIP3    H260618   4.634   0.221  11.560  0.6918 -0.2577  0.0720
13043TIP3   OH260619   3.272   4.105   5.207  0.2113 -0.1678 -0.1778
13043TIP3    H160620   3.215   4.126   5.132  1.9073 -1.5510 -1.9080
13043TIP3    H260621   3.226   4.141   5.282 -0.5904  3.1318 -2.1153
13044TIP3   OH260622   4.064   2.118   4.598  0.4801 -0.4431 -0.8701
13044TIP3    H160623   4.073   2.072   4.515  2.0922 -0.2815 -0.7906
13044TIP3    H260624   4.112   2.199   4.586  0.5200 -0.3136  0.1421
13045TIP3   OH260625   2.968   4.245  11.818  0.3477 -0.1492  0.2296
13045TIP3    H160626   2.872   4.250  11.814  0.2078 -2.1933  0.1530
13045TIP3    H260627   2.996   4.335  11.832 -1.5598  0.5591 -0.2551
13046TIP3   OH260628   6.539   4.050  11.680  0.3765  0.0362 -0.0740
13046TIP3    H160629   6.632   4.052  11.703  0.2931  0.3485  0.2385
13046TIP3    H260630   6.494   4.034  11.763  0.0737  1.1619 -0.0115
13047TIP3   OH260631   3.769   4.789   4.805  0.6376 -0.1795  0.0083
13047TIP3    H160632   3.760   4.791   4.900 -0.1427 -1.3741 -0.0414
13047TIP3    H260633   3.791   4.879   4.782 -3.5132  1.1641  0.8917
13048TIP3   OH260634   6.130   2.192  11.686 -0.0931 -0.0098 -0.2372
13048TIP3    H160635   6.121   2.189  11.782  1.8942 -1.5001 -0.0590
13048TIP3    H260636   6.217   2.157  11.669 -0.3619  0.3761 -2.6120
13049TIP3   OH260637   4.138   5.566  10.522 -0.1249 -0.0066 -0.3263
13049TIP3    H160638   4.179   5.583  10.437 -0.9090 -1.3642 -1.0010
13049TIP3    H260639   4.107   5.475  10.516  2.2988 -1.0788  2.4355
13050TIP3   OH260640   2.065   0.409  15.451 -0.2476  0.6713 -0.2388
13050TIP3    H160641   2.040   0.318  15.466 -0.7872  0.9241  0.4005
13050TIP3    H260642   1.989   0.448  15.408 -0.5587  1.1745  0.7571
13051TIP3   OH260643   0.064   0.192  16.549  0.0668 -0.7235 -0.7888
13051TIP3    H160644   0.118   0.271  16.545 -1.1783  0.0698 -2.8374
13051TIP3    H260645   0.119   0.123  16.514 -0.0015 -0.0491 -2.2465
13052TIP3   OH260646   4.202   4.461  13.181  0.1534 -0.1551  0.0676
13052TIP3    H160647   4.117   4.448  13.138  0.3487  1.6993 -0.9643
13052TIP3    H260648   4.211   4.387  13.241 -0.8668 -1.9812 -1.9456
13053TIP3   OH260649   3.014   6.343  11.736  0.1330 -0.5578 -0.2844
13053TIP3    H160650   2.927   6.353  11.698 -0.9230 -3.5469  1.2592
13053TIP3    H260651   3.063   6.294  11.670 -0.0526 -0.9181 -0.1561
13054TIP3   OH260652   3.792   4.600  13.520  0.0917 -0.3436 -0.6419
13054TIP3    H160653   3.759   4.679  13.478  0.5491  0.7372  0.9547
13054TIP3    H260654   3.878   4.585  13.480 -0.0654 -0.1115 -1.0654
13055TIP3   OH260655   5.333   5.072   1.420  0.1227  0.2404  0.1661
13055TIP3    H160656   5.396   5.076   1.347 -0.0852  1.0927  0.0266
13055TIP3    H260657   5.250   5.098   1.381  0.3352  2.3713  1.0585
13056TIP3   OH260658   4.666   5.793  13.905 -0.3438 -0.1523 -0.2429
13056TIP3    H160659   4.629   5.860  13.962 -1.6021  0.5238 -1.8204
13056TIP3    H260660   4.694   5.724  13.965  0.5287  1.5540  1.3634
13057TIP3   OH260661   4.006   1.811  14.400 -0.1409 -0.2729  0.1761
13057TIP3    H160662   4.031   1.727  14.439 -0.4460 -0.1357  0.6677
13057TIP3    H260663   3.984   1.789  14.310 -0.0317 -0.6923  0.2472
13058TIP3   OH260664   0.610   3.305   6.623  0.2833  0.1452 -0.0223
13058TIP3    H160665   0.679   3.330   6.561 -2.4379  3.1583 -2.0334
13058TIP3    H260666   0.595   3.384   6.675 -1.7881 -0.3218  0.1614
13059TIP3   OH260667   1.964   3.785   6.179 -0.0290 -0.1402  0.7372
13059TIP3    H160668   1.968   3.734   6.260  1.7758 -1.4480 -0.1462
13059TIP3    H260669   2.050   3.828   6.173 -0.4524  0.6148 -0.0625
13060TIP3   OH260670   4.958   3.800  13.141 -0.1601 -0.2548 -0.1415
13060TIP3    H160671   4.961   3.721  13.195 -0.1017  0.5961  1.1283
13060TIP3    H260672   4.865   3.824  13.139 -0.3385 -0.9940 -1.4997
13061TIP3   OH260673   5.074   4.610  14.035  0.3328  0.4541  0.0751
13061TIP3    H160674   5.072   4.699  13.999 -1.9878  0.4271  0.0651
13061TIP3    H260675   5.149   4.610  14.095 -0.0684  2.6293  0.6214
13062TIP3   OH260676   3.752   4.365  11.800 -0.2614  0.3920  0.1240
13062TIP3    H160677   3.805   4.375  11.879  0.4007 -0.0419 -0.2609
13062TIP3    H260678   3.668   4.330  11.832  0.5123 -1.1741  0.4912
13063TIP3   OH260679   4.969   3.679  14.827  0.3477 -0.7107 -0.3366
13063TIP3    H160680   4.881   3.702  14.798 -0.3318 -1.2689  1.2126
13063TIP3    H260681   4.988   3.596  14.783  1.1393  0.6381 -2.6497
13064TIP3   OH260682   4.922   4.702   2.407  1.3692 -0.2613 -0.3034
13064TIP3    H160683   4.957   4.626   2.360  1.4245 -2.3601  2.9696
13064TIP3    H260684   4.829   4.684   2.417  0.6539  1.8386 -2.5295
13065TIP3   OH260685   1.956   1.561   1.170 -0.1484 -0.0913 -0.4403
13065TIP3    H160686   1.910   1.645   1.172  2.0521  1.1614 -0.8979
13065TIP3    H260687   2.012   1.562   1.247 -0.7756 -1.5423  0.0473
13066TIP3   OH260688   5.211   4.039   1.675 -0.0880 -0.0484 -0.0823
13066TIP3    H160689   5.272   4.053   1.603 -1.3918 -1.8660 -1.5768
13066TIP3    H260690   5.261   3.990   1.740 -0.0660 -1.9933 -1.5229
13067TIP3   OH260691   2.967   6.297  14.801 -0.0246  0.3359  0.7983
13067TIP3    H160692   2.923   6.251  14.872  0.7399  0.5473  1.4219
13067TIP3    H260693   2.905   6.294  14.728 -0.4380 -0.6865  1.1833
13068TIP3   OH260694   3.595   3.567  13.368  0.0383 -0.3560  0.2473
13068TIP3    H160695   3.585   3.656  13.335  1.3316  0.1802  1.2649
13068TIP3    H260696   3.583   3.574  13.462 -2.0229 -1.6215  0.1196
13069TIP3   OH260697   3.157   3.910  10.585  0.0477  0.2927 -0.2982
13069TIP3    H160698   3.252   3.902  10.594 -0.1946 -1.4382  1.1821
13069TIP3    H260699   3.128   3.823  10.557 -1.2021  0.5078  0.2842
13070TIP3   OH260700   2.286   0.133  11.086  0.1716  0.3010 -0.4098
13070TIP3    H160701   2.330   0.190  11.149 -0.1098 -0.0924  0.1515
13070TIP3    H260702   2.355   0.105  11.026  0.7077 -0.3394  0.4840
13071TIP3   OH260703   1.763   1.374   0.201  0.3662 -0.3975 -0.1501
13071TIP3    H160704   1.704   1.371   0.125  0.1138 -1.2349  0.0799
13071TIP3    H260705   1.801   1.286   0.205 -0.2387 -0.6044  1.1853
13072TIP3   OH260706   0.441   3.160   6.451 -0.0200 -0.4620  0.4052
13072TIP3    H160707   0.516   3.202   6.494  0.7808 -1.2945 -0.1489
13072TIP3    H260708   0.413   3.092   6.512 -0.9350  0.4655  1.0336
13073TIP3   OH260709   5.931   3.129  15.198  0.3639  0.3297  0.0037
13073TIP3    H160710   5.980   3.201  15.239 -0.5675  1.2826 -0.5212
13073TIP3    H260711   5.847   3.129  15.244  0.7004 -1.0762  0.6625
13074TIP3   OH260712   0.961   5.550  12.752 -0.5031  0.4278 -0.0150
13074TIP3    H160713   0.986   5.509  12.835 -1.7772  1.0791  0.7036
13074TIP3    H260714   0.884   5.501  12.724  0.1222 -0.0003 -0.9778
13075TIP3   OH260715   2.081   5.027   0.922 -0.0339  0.1574  0.2680
13075TIP3    H160716   2.163   4.981   0.942 -1.8910 -2.8082  1.2697
13075TIP3    H260717   2.077   5.028   0.827  1.2598  0.5105  0.2035
13076TIP3   OH260718   5.238   0.446  11.609  0.6324  0.4397 -0.1746
13076TIP3    H160719   5.172   0.423  11.544  1.2794 -0.7991 -0.4159
13076TIP3    H260720   5.262   0.536  11.589 -1.4769  1.1231  0.3456
13077TIP3   OH260721   1.988   4.833  14.078  0.1929 -0.0449  0.7999
13077TIP3    H160722   1.919   4.794  14.132 -0.0776  0.4738  0.8234
13077TIP3    H260723   2.001   4.770  14.008 -2.5843  1.3590 -1.0540
13078TIP3   OH260724   6.490   3.135  16.894 -0.7101  0.0240  0.4231
13078TIP3    H160725   6.418   3.071  16.888 -1.0799  0.5282 -0.7980
13078TIP3    H260726   6.544   3.117  16.817  0.0438  0.1682  0.9124
13079TIP3   OH260727   4.050   5.793   5.590 -0.2721  0.1349  0.3371
13079TIP3    H160728   4.059   5.868   5.531 -0.2883  0.1882  0.4020
13079TIP3    H260729   4.050   5.717   5.532 -0.6283  0.2077  0.2413
13080TIP3   OH260730   0.094   4.445  15.401 -0.5042 -0.5660 -0.2414
13080TIP3    H160731   0.163   4.382  15.419 -1.8938 -1.9609  0.3348
13080TIP3    H260732   0.078   4.438  15.307 -0.2479 -0.6501 -0.2783
13081TIP3   OH260733   4.905   4.448   2.882 -0.0970  0.1236 -0.1583
13081TIP3    H160734   4.868   4.521   2.832  1.4292  1.7917  1.1060
13081TIP3    H260735   4.996   4.443   2.854 -0.0434 -0.9389  0.1810
13082TIP3   OH260736   4.148   4.665  17.125  0.1601  0.0330 -0.2539
13082TIP3    H160737   4.183   4.733  17.069 -2.0776  0.8501 -0.7217
13082TIP3    H260738   4.070   4.704  17.165 -2.0281 -2.6640 -1.6557
13083TIP3   OH260739   5.319   6.183   0.959  0.4690 -0.2569  0.1938
13083TIP3    H160740   5.265   6.146   0.890  0.6849 -0.3997  0.1007
13083TIP3    H260741   5.274   6.160   1.040 -0.2179  0.6081  0.0693
13084TIP3   OH260742   0.328   3.970   5.152  0.0965 -0.2520  0.0468
13084TIP3    H160743   0.298   3.975   5.061 -0.0222  1.5755  0.1782
13084TIP3    H260744   0.253   3.999   5.204  0.1832 -1.2363  0.7380
13085TIP3   OH260745   2.985   0.497   3.489  0.7332 -0.1992  0.1844
13085TIP3    H160746   2.977   0.531   3.578  0.0890 -0.2491  0.1508
13085TIP3    H260747   2.899   0.512   3.450  1.0503 -0.0657 -0.4728
13086TIP3   OH260748   1.637   4.839  11.577 -0.0549 -0.5979 -0.3928
13086TIP3    H160749   1.733   4.835  11.572  0.0507  2.1792 -1.1153
13086TIP3    H260750   1.612   4.751  11.607  2.5664 -2.0342 -2.1901
13087TIP3   OH260751   0.374   0.725  16.601 -0.2431 -0.6314  0.4494
13087TIP3    H160752   0.422   0.646  16.576 -1.1327 -0.6754 -1.1746
13087TIP3    H260753   0.429   0.797  16.572  0.2110 -0.6427  1.2526
13088TIP3   OH260754   5.012   1.523   5.036 -0.2661  0.6911 -0.0565
13088TIP3    H160755   5.047   1.527   4.947  0.3053  1.8244  0.1997
13088TIP3    H260756   5.046   1.602   5.078  0.0965 -0.2192  1.3998
13089TIP3   OH260757   3.890   6.405   6.032  0.0131  0.1472  0.3321
13089TIP3    H160758   3.800   6.374   6.017  0.3743 -0.5260 -0.4860
13089TIP3    H260759   3.923   6.349   6.101  0.4818 -0.9707 -0.7724
13090TIP3   OH260760   4.043   0.147  12.199  0.2410  0.1149 -0.6212
13090TIP3    H160761   4.013   0.089  12.269  0.5247 -1.3293 -1.6677
13090TIP3    H260762   4.131   0.173  12.225  0.7687 -1.2806 -0.9122
13091TIP3   OH260763   3.965   4.410  14.913  0.3277 -0.5983 -0.0553
13091TIP3    H160764   3.963   4.379  15.004 -0.1639 -3.8794 -1.0933
13091TIP3    H260765   3.873   4.426  14.892  0.5970  1.9204  0.5343
13092TIP3   OH260766   6.805   6.330   5.051 -0.3072  0.7120  0.5591
13092TIP3    H160767   6.721   6.336   5.095 -0.9303  0.7499 -0.5990
13092TIP3    H260768   6.870   6.348   5.119 -1.1835 -0.1890  1.6584
13093TIP3   OH260769   5.713   4.978  13.676  0.4592  0.2054 -0.3975
13093TIP3    H160770   5.620   4.974  13.697  0.5104 -0.4547 -0.2926
13093TIP3    H260771   5.717   4.985  13.581  0.3615 -2.8106 -0.6773
13094TIP3   OH260772   6.482   6.707  12.937 -0.2844 -0.2836 -0.3494
13094TIP3    H160773   6.394   6.699  12.974 -0.0697  1.7319  0.6712
13094TIP3    H260774   6.529   6.631  12.972 -1.1733 -0.4950  0.4292
13095TIP3   OH260775   2.915   6.395   0.632  0.4873  0.0335  0.3235
13095TIP3    H160776   2.989   6.378   0.573  2.9704  2.3237  2.6148
13095TIP3    H260777   2.866   6.465   0.589  0.8431 -0.0794 -0.2738
13096TIP3   OH260778   4.841   6.224   2.967  0.0695  0.1278  0.2393
13096TIP3    H160779   4.881   6.227   2.880 -0.8001  0.4617 -0.1654
13096TIP3    H260780   4.748   6.210   2.949  0.0725 -1.1050  1.1697
13097TIP3   OH260781   1.081   1.703   3.353 -0.5756  0.0657  0.8013
13097TIP3    H160782   1.063   1.667   3.440 -0.4747  0.8408  1.1450
13097TIP3    H260783   1.150   1.768   3.367 -1.0301  0.6789  0.2526
13098TIP3   OH260784   2.088   3.063   5.588  0.4412  0.1880  0.1531
13098TIP3    H160785   2.070   2.976   5.624 -2.3696  1.3960  1.9307
13098TIP3    H260786   2.134   3.108   5.658  0.8101  0.4985 -0.2941
13099TIP3   OH260787   2.218   0.053   1.817 -1.0903  0.5634 -0.5192
13099TIP3    H160788   2.211   0.030   1.724  0.1451  0.8538 -0.6948
13099TIP3    H260789   2.249  -0.028   1.858 -1.2237  0.5613 -0.4239
13100TIP3   OH260790   6.404   1.230  11.503 -0.5476 -0.0637  0.5183
13100TIP3    H160791   6.410   1.307  11.447  1.2101  0.2025  1.0257
13100TIP3    H260792   6.319   1.238  11.547 -0.9174  0.9273 -0.3672
13101TIP3   OH260793   4.247   2.395   2.675  0.5455  0.0939 -0.1914
13101TIP3    H160794   4.282   2.464   2.732  0.6431  0.5286 -0.7713
13101TIP3    H260795   4.285   2.414   2.589 -1.0354  0.4961 -0.8042
13102TIP3   OH260796   1.056   0.679  11.140  0.6670 -0.0316 -0.1542
13102TIP3    H160797   1.145   0.650  11.120  0.6298  0.2698 -0.7628
13102TIP3    H260798   1.043   0.655  11.232  0.9849 -1.0838 -0.3765
13103TIP3   OH260799   0.241   1.629   5.858 -0.6747 -0.1744  0.6230
13103TIP3    H160800   0.182   1.689   5.813  0.1235  0.6294  0.6332
13103TIP3    H260801   0.264   1.564   5.791  0.3838  0.9236 -0.1026
13104TIP3   OH260802   0.585   1.888   0.097  0.1958  0.0222 -0.1647
13104TIP3    H160803   0.541   1.844   0.025  1.1979  0.6369 -1.1783
13104TIP3    H260804   0.593   1.979   0.068 -0.5458  0.5681  1.2768
13105TIP3   OH260805   4.353   3.177   6.699 -0.2237  0.2346  0.2156
13105TIP3    H160806   4.435   3.215   6.730  0.0499 -0.9067  0.9122
13105TIP3    H260807   4.285   3.233   6.737  0.1966  0.4704  0.6260
13106TIP3   OH260808   2.081   4.885  16.640 -0.2139 -0.2230  0.7290
13106TIP3    H160809   2.162   4.835  16.625 -0.0992  0.7156 -2.1102
13106TIP3    H260810   2.112   4.971  16.670 -0.2301 -0.2908  0.9443
13107TIP3   OH260811   5.577   4.410   0.188 -0.4161 -0.6652 -0.5522
13107TIP3    H160812   5.635   4.338   0.215 -0.3473 -1.1726 -2.0244
13107TIP3    H260813   5.550   4.450   0.270  0.8681 -1.3372  0.2235
13108TIP3   OH260814   5.944   1.640  12.191 -0.0209  0.3252 -0.0705
13108TIP3    H160815   5.965   1.592  12.111  3.1128  1.7564 -0.1595
13108TIP3    H260816   5.893   1.715  12.161  0.5051  0.4564 -0.6462
13109TIP3   OH260817   3.902   6.233   4.586 -0.5173  0.4968 -0.6037
13109TIP3    H160818   3.900   6.265   4.496  1.5038  2.1428 -0.1069
13109TIP3    H260819   3.895   6.312   4.640  0.2696 -0.2817  0.6661
13110TIP3   OH260820   0.434   1.460   5.270  0.3245  0.8558  0.1273
13110TIP3    H160821   0.498   1.389   5.278  0.4998  0.8922 -0.9478
13110TIP3    H260822   0.376   1.432   5.199 -0.0743  1.4392  0.2189
13111TIP3   OH260823   6.065   2.245  15.689  0.3835 -0.2592 -0.6140
13111TIP3    H160824   6.082   2.155  15.717 -0.5559 -0.5207 -0.8415
13111TIP3    H260825   6.010   2.235  15.611 -0.1931  0.5191 -0.3166
13112TIP3   OH260826   3.058   2.249   1.018  0.1104  0.1183  0.0305
13112TIP3    H160827   3.082   2.295   1.098 -1.2668  0.4219  0.2864
13112TIP3    H260828   3.116   2.174   1.015  0.2177  0.1364  1.2862
13113TIP3   OH260829   1.916   1.682   3.346  0.4379 -0.3272  0.3171
13113TIP3    H160830   1.955   1.655   3.263  0.1754 -0.7793  0.3404
13113TIP3    H260831   1.912   1.602   3.398  0.2105 -0.1288  0.6071
13114TIP3   OH260832   4.292   5.623  15.418  1.0248 -0.5096  0.0811
13114TIP3    H160833   4.300   5.534  15.383 -0.7665 -0.0292 -1.6525
13114TIP3    H260834   4.359   5.673  15.371  0.8137 -0.5719 -0.2947
13115TIP3   OH260835   4.628   4.172  11.379  0.1717  0.2350  0.1118
13115TIP3    H160836   4.658   4.105  11.318  0.4252 -0.0942  0.5940
13115TIP3    H260837   4.676   4.154  11.460 -2.3365 -1.1696  1.3374
13116TIP3   OH260838   2.522   2.729  12.387 -0.3154  0.5059 -0.2074
13116TIP3    H160839   2.559   2.818  12.388  0.0005  0.3938 -1.3183
13116TIP3    H260840   2.594   2.674  12.358 -0.4604 -0.1476  0.6644
13117TIP3   OH260841   0.784   0.896   3.451 -0.5170  0.3067 -0.3039
13117TIP3    H160842   0.732   0.898   3.531 -0.7365 -0.1906 -0.4346
13117TIP3    H260843   0.873   0.876   3.481 -0.6248 -0.0159 -0.1974
13118TIP3   OH260844   0.242   3.667  16.843  0.2825  1.3385  1.0221
13118TIP3    H160845   0.274   3.745  16.797 -0.2542  0.5851 -0.6747
13118TIP3    H260846   0.150   3.660  16.817  0.9167 -1.1409 -0.6670
13119TIP3   OH260847   4.152   6.081   2.381 -0.5172 -0.1307 -0.4038
13119TIP3    H160848   4.125   6.108   2.468 -1.1390 -1.0293 -0.3063
13119TIP3    H260849   4.193   5.995   2.394  1.2039  0.6251 -0.7272
13120TIP3   OH260850   4.280   2.626   4.689 -0.2078  0.7342  0.6010
13120TIP3    H160851   4.365   2.627   4.734 -0.3741  1.4114  0.8977
13120TIP3    H260852   4.225   2.685   4.739 -1.0412 -0.1424  0.7418
13121TIP3   OH260853   2.733   4.092   5.953  0.2600 -0.1387  0.2800
13121TIP3    H160854   2.680   4.170   5.937  0.6868 -0.0671 -0.8280
13121TIP3    H260855   2.679   4.019   5.923  0.4109 -0.1521  0.0441
13122TIP3   OH260856   3.335   6.347  15.380 -0.3565  0.2676  0.0421
13122TIP3    H160857   3.377   6.265  15.354 -2.6070 -1.0574  0.4104
13122TIP3    H260858   3.389   6.416  15.341  0.0637 -1.4688 -2.5499
13123TIP3   OH260859   4.436   6.447  14.338 -0.1481  0.5469  0.1713
13123TIP3    H160860   4.387   6.457  14.256  1.2071  1.0936 -0.5979
13123TIP3    H260861   4.399   6.513  14.397 -0.6714  0.6143 -0.2254
13124TIP3   OH260862   4.579   5.040   0.230  0.1372 -0.3123 -0.3545
13124TIP3    H160863   4.511   5.001   0.285 -0.9017  0.5151 -1.0495
13124TIP3    H260864   4.567   5.134   0.238  0.4371 -0.1683 -1.4233
13125TIP3   OH260865   3.275   6.085   5.084  0.1545 -0.0045 -0.0180
13125TIP3    H160866   3.245   6.019   5.147 -2.4035  0.4853 -0.6757
13125TIP3    H260867   3.335   6.037   5.027 -0.1269 -1.2627  0.7198
13126TIP3   OH260868   0.129   2.599  14.180 -0.5569  0.0263 -0.7578
13126TIP3    H160869   0.203   2.657  14.166  0.7943 -1.4813 -0.0217
13126TIP3    H260870   0.052   2.651  14.157  0.6980  1.7508 -1.0775
13127TIP3   OH260871   4.223   4.012   5.280  0.1422 -0.0456  0.0524
13127TIP3    H160872   4.140   4.031   5.324  0.2438  0.1331  0.1666
13127TIP3    H260873   4.220   4.066   5.200 -0.0664 -0.4112 -0.1903
13128TIP3   OH260874   2.418   0.156   2.791 -0.5623 -0.1893  0.4094
13128TIP3    H160875   2.377   0.130   2.874 -0.4034 -2.2196 -0.1184
13128TIP3    H260876   2.500   0.106   2.789  0.7415  1.8942  0.2604
13129TIP3   OH260877   2.960   4.040  13.762  0.7273 -0.5547  0.6022
13129TIP3    H160878   2.928   4.041  13.852  0.5107 -4.3164  0.6671
13129TIP3    H260879   3.050   4.006  13.769  1.3514  0.8492 -0.4467
13130TIP3   OH260880   1.963   5.645  15.106 -0.1840  0.5722 -0.5015
13130TIP3    H160881   1.963   5.649  15.010 -0.2046 -0.6731 -0.5661
13130TIP3    H260882   1.875   5.674  15.131 -0.3025  0.5565 -0.8881
13131TIP3   OH260883   3.195   2.364  12.982  0.2152 -0.1976 -0.1709
13131TIP3    H160884   3.274   2.336  12.937 -0.8302 -1.1423 -1.4825
13131TIP3    H260885   3.220   2.444  13.028  2.0336 -0.7381 -0.1993
13132TIP3   OH260886   4.691   4.318  12.661 -0.6720 -0.1136 -0.4194
13132TIP3    H160887   4.710   4.321  12.755 -1.5819  0.3210 -0.2410
13132TIP3    H260888   4.716   4.404  12.629  0.2232 -0.4726 -0.6965
13133TIP3   OH260889   0.433   5.489   2.629 -0.3057  0.1179  0.0062
13133TIP3    H160890   0.427   5.481   2.724 -2.8330 -0.5524 -0.1761
13133TIP3    H260891   0.524   5.514   2.612  0.0913  0.5046  2.6077
13134TIP3   OH260892   0.597   5.596   3.401 -0.3495 -0.0413 -0.9272
13134TIP3    H160893   0.594   5.692   3.405 -1.4103  0.0015 -2.4717
13134TIP3    H260894   0.619   5.570   3.490 -3.2838  1.5279  0.3563
13135TIP3   OH260895   1.986   1.861   2.404  0.2058 -0.2118 -0.4358
13135TIP3    H160896   2.026   1.946   2.422  1.3168 -1.2742  2.5488
13135TIP3    H260897   1.896   1.869   2.437 -0.6000  0.6852 -2.7974
13136TIP3   OH260898   5.864   3.435  12.786 -0.6534 -0.2916 -0.1441
13136TIP3    H160899   5.913   3.414  12.866 -0.9233  0.2774  0.1763
13136TIP3    H260900   5.788   3.376  12.790 -0.3256 -0.7310 -0.3240
13137TIP3   OH260901   0.943   3.631   1.352 -0.0400  0.0561 -0.0913
13137TIP3    H160902   0.855   3.591   1.351  1.2269 -2.8461 -0.6237
13137TIP3    H260903   0.997   3.571   1.301  2.0936  2.2807 -0.5248
13138TIP3   OH260904   4.176   4.699  11.024  0.3426 -0.6318  0.6693
13138TIP3    H160905   4.234   4.726  11.095 -0.5299  1.4199  0.6374
13138TIP3    H260906   4.144   4.781  10.986 -1.3837 -1.7132 -0.2980
13139TIP3   OH260907   1.592   5.634  16.943  0.5699 -0.4388  0.5346
13139TIP3    H160908   1.593   5.538  16.946  0.1255 -0.4589  0.0152
13139TIP3    H260909   1.681   5.658  16.916  0.3387 -0.7421 -0.5045
13140TIP3   OH260910   2.056   3.135  14.415  0.1053 -0.3361 -0.4851
13140TIP3    H160911   2.004   3.121  14.336 -2.2760 -0.2466  1.0166
13140TIP3    H260912   2.076   3.047  14.447  1.0294 -0.3716 -1.1604
13141TIP3   OH260913   2.187   2.943  14.816 -0.0111  0.1032 -0.2393
13141TIP3    H160914   2.196   3.018  14.757  0.5481  0.1926 -0.0473
13141TIP3    H260915   2.174   2.982  14.903  2.4555  0.0191  0.1998
13142TIP3   OH260916   3.477   6.557  15.251  0.3041 -0.5625  0.6408
13142TIP3    H160917   3.498   6.562  15.345  1.8794 -0.2149  0.2818
13142TIP3    H260918   3.488   6.646  15.219  0.3060 -0.7850  0.0159
13143TIP3   OH260919   4.217   4.351   1.400  0.3699 -0.0441 -0.2904
13143TIP3    H160920   4.281   4.352   1.329 -0.1582  1.9891 -0.7675
13143TIP3    H260921   4.252   4.288   1.463  1.8140 -0.4390 -1.4671
13144TIP3   OH260922   1.522   1.526  11.479 -0.3261  0.2637 -0.0355
13144TIP3    H160923   1.494   1.521  11.388 -0.5309  1.6840 -0.0733
13144TIP3    H260924   1.442   1.512  11.530 -0.0608 -1.3623 -0.0552
13145TIP3   OH260925   2.049   5.879  13.648  0.0278  0.2260 -0.5787
13145TIP3    H160926   2.059   5.792  13.610 -0.8985 -0.2652  0.2550
13145TIP3    H260927   2.130   5.925  13.627  0.8323 -1.0896 -0.3979
13146TIP3   OH260928   3.242   2.677  14.060  0.1063 -0.9135  0.4758
13146TIP3    H160929   3.213   2.704  14.147 -2.7602  0.0891 -0.7209
13146TIP3    H260930   3.165   2.637  14.021  0.7192  0.5585 -2.3587
13147TIP3   OH260931   1.130   1.263  12.507  0.0738 -0.1794 -0.6454
13147TIP3    H160932   1.093   1.239  12.422 -0.3463  0.8035 -0.7479
13147TIP3    H260933   1.062   1.315  12.550  0.1923 -0.8739  0.3930
13148TIP3   OH260934   5.086   5.857  14.867  0.2575 -0.1973 -0.0443
13148TIP3    H160935   5.174   5.828  14.894  0.6362  0.4608 -0.5637
13148TIP3    H260936   5.087   5.850  14.772  0.7727  2.6779 -0.2802
13149TIP3   OH260937   3.223   0.695  11.939 -0.1874 -0.2097 -0.0490
13149TIP3    H160938   3.273   0.622  11.903 -1.4297 -1.5689  0.9512
13149TIP3    H260939   3.287   0.745  11.990  0.4660 -1.0815 -0.0084
13150TIP3   OH260940   3.618   6.629  16.897 -0.6080  0.4418 -0.1028
13150TIP3    H160941   3.630   6.553  16.953 -0.7490  0.6614  0.2327
13150TIP3    H260942   3.702   6.641  16.854 -0.5546  0.1614 -0.0732
13151TIP3   OH260943   3.619   5.267  12.413 -0.7161 -0.2792  0.1324
13151TIP3    H160944   3.622   5.310  12.499 -1.3727  0.7017 -0.3212
13151TIP3    H260945   3.657   5.180  12.428 -1.1541 -0.2482  1.4962
13152TIP3   OH260946   3.809   3.670   4.874  0.4632  0.1922 -0.6445
13152TIP3    H160947   3.734   3.615   4.893  1.3093 -1.0327 -0.8008
13152TIP3    H260948   3.790   3.708   4.788 -0.5438  0.8794 -0.1194
13153TIP3   OH260949   5.720   3.172  16.540  0.0737 -0.5411  0.1368
13153TIP3    H160950   5.761   3.108  16.598 -0.7878  0.3194  1.7263
13153TIP3    H260951   5.629   3.177  16.569  0.1358  1.4520  0.0975
13154TIP3   OH260952   5.109   4.895  16.390  0.4025 -0.1885 -0.1525
13154TIP3    H160953   5.105   4.870  16.483  0.8479 -2.5127 -0.7124
13154TIP3    H260954   5.159   4.824  16.349 -0.1310  0.6104 -2.2405
13155TIP3   OH260955   4.000   5.025  10.659  0.2051  0.9250 -0.0764
13155TIP3    H160956   4.094   5.035  10.644  0.3565 -1.2295 -0.5933
13155TIP3    H260957   3.968   4.975  10.585 -0.9197 -0.4887  1.3393
13156TIP3   OH260958   2.005   6.268   0.027  0.2428  0.1704  0.0652
13156TIP3    H160959   1.935   6.210   0.057  0.6086  1.2342  3.1547
13156TIP3    H260960   2.077   6.210   0.003 -0.9223 -0.8180 -1.1464
13157TIP3   OH260961   1.037   1.242   1.915 -0.0676  0.3397 -0.2183
13157TIP3    H160962   1.083   1.314   1.957  0.3805 -0.1496  0.1321
13157TIP3    H260963   0.984   1.284   1.847 -0.9176  1.1576  0.9317
13158TIP3   OH260964   3.346   3.929   4.629 -0.6641  0.4541 -0.1124
13158TIP3    H160965   3.404   3.861   4.662  0.2035  2.0801  1.7576
13158TIP3    H260966   3.382   3.951   4.543 -1.2821 -1.8004 -0.9870
13159TIP3   OH260967   2.116   0.179   3.563 -0.1587 -0.4508  0.1644
13159TIP3    H160968   2.062   0.167   3.485 -0.3241 -0.1658  0.2348
13159TIP3    H260969   2.145   0.091   3.586 -0.1662 -0.5446 -0.1791
13160TIP3   OH260970   5.451   0.840  13.530  0.2020 -0.4686 -0.3576
13160TIP3    H160971   5.392   0.772  13.564  0.9151 -0.8040  0.2182
13160TIP3    H260972   5.529   0.834  13.585 -1.0218  3.0591  1.9516
13161TIP3   OH260973   2.673   6.631   2.125 -0.4414 -0.2093 -0.2445
13161TIP3    H160974   2.650   6.588   2.208 -1.2783  2.2298  0.8215
13161TIP3    H260975   2.592   6.674   2.097  0.4785  0.9957 -1.0878
13162TIP3   OH260976   2.252   6.236  16.548 -0.7317 -0.5215  0.0083
13162TIP3    H160977   2.183   6.282  16.595  1.8177  1.0299  2.4178
13162TIP3    H260978   2.277   6.296  16.478 -0.9186 -0.4882 -0.0301
13163TIP3   OH260979   6.609   4.086  13.380 -0.5763  0.2224 -0.0401
13163TIP3    H160980   6.621   4.126  13.294 -1.9849  0.5085 -0.1173
13163TIP3    H260981   6.547   4.143  13.425 -1.4229 -1.0217  0.4204
13164TIP3   OH260982   0.376   5.005  13.189 -0.9665 -0.4969  0.3415
13164TIP3    H160983   0.404   4.970  13.274 -1.3586  0.0677  0.7081
13164TIP3    H260984   0.420   4.949  13.124 -3.6279 -3.3405  0.8902
13165TIP3   OH260985   2.530   1.116   0.723 -0.3831 -0.1988  0.1997
13165TIP3    H160986   2.562   1.200   0.690  2.2233 -1.3297 -0.3432
13165TIP3    H260987   2.568   1.109   0.811 -0.6640 -0.7749  0.2769
13166TIP3   OH260988   4.437   1.700   6.594 -1.0146 -0.5505 -0.0255
13166TIP3    H160989   4.373   1.727   6.528 -1.3517 -0.3633  0.3723
13166TIP3    H260990   4.481   1.781   6.620 -1.6706 -0.4458  0.7966
13167TIP3   OH260991   5.158   5.891  15.706  0.4125  0.0217  0.0165
13167TIP3    H160992   5.120   5.964  15.657  0.8455 -0.7916 -1.5523
13167TIP3    H260993   5.109   5.890  15.788  0.0845  1.7835 -0.1290
13168TIP3   OH260994   5.327   2.243  12.248 -1.0352 -0.2256  0.0094
13168TIP3    H160995   5.291   2.219  12.162 -0.6441  0.3901 -0.3315
13168TIP3    H260996   5.269   2.313  12.278  1.0399  2.1998 -1.4490
13169TIP3   OH260997   2.577   0.891   2.949 -0.0213  0.1509  0.2518
13169TIP3    H160998   2.666   0.920   2.931  0.2503  0.4698  2.0782
13169TIP3    H260999   2.526   0.971   2.956 -0.0390  0.0535  1.3192
13170TIP3   OH261000   0.357   5.063   1.738  0.1028  0.1370  0.3188
13170TIP3    H161001   0.424   5.080   1.672 -1.1508 -0.7075 -1.1889
13170TIP3    H261002   0.395   4.994   1.793  0.7137  0.1055 -0.1317
13171TIP3   OH261003   1.856   4.048   0.013  0.4642  0.2172 -0.0697
13171TIP3    H161004   1.856   4.129  -0.038 -1.1587  0.7230  0.7022
13171TIP3    H261005   1.885   4.074   0.100  0.5061 -0.1482  0.0273
13172TIP3   OH261006   1.407   4.684   3.335  0.2149 -0.1394 -0.1532
13172TIP3    H161007   1.342   4.691   3.265  0.6074  0.5449 -0.4522
13172TIP3    H261008   1.409   4.771   3.374  0.2139 -0.4400  0.5232
13173TIP3   OH261009   5.699   4.329  13.673 -0.0889  0.2369 -0.3313
13173TIP3    H161010   5.660   4.248  13.705  1.2052 -0.0436  0.5376
13173TIP3    H261011   5.687   4.392  13.744  0.0479  0.4698 -0.5108
13174TIP3   OH261012   3.024   4.871  12.044  0.2151 -0.2143  0.0088
13174TIP3    H161013   2.963   4.844  11.976  0.4191 -1.5796  0.3452
13174TIP3    H261014   2.977   4.858  12.126 -0.3025  2.1504  0.1264
13175TIP3   OH261015   2.225   5.906   2.283 -0.2652  0.3588 -1.0125
13175TIP3    H161016   2.298   5.918   2.344 -0.1281  2.3688 -1.5452
13175TIP3    H261017   2.149   5.890   2.339  0.1617  0.5603 -0.3697
13176TIP3   OH261018   6.709   0.784  17.036  0.1918 -0.3976  0.0198
13176TIP3    H161019   6.663   0.766  16.954 -0.6474 -1.7872  0.7892
13176TIP3    H261020   6.650   0.755  17.105  1.8152 -1.3240  1.0616
13177TIP3   OH261021   1.754   5.222   0.205 -0.4007  0.5533 -0.0222
13177TIP3    H161022   1.695   5.256   0.272 -1.7003  1.0203 -1.3790
13177TIP3    H261023   1.841   5.249   0.234 -0.8451 -0.1956  2.0215
13178TIP3   OH261024   1.903   4.547  16.315  0.1017 -0.2259  0.2666
13178TIP3    H161025   1.972   4.613  16.314  0.2680 -0.4011  0.2969
13178TIP3    H261026   1.919   4.496  16.394 -0.5894  0.2923  0.7551
13179TIP3   OH261027   0.605   5.692  15.185  0.3322  0.0073  0.2732
13179TIP3    H161028   0.695   5.715  15.211 -0.2247  0.2518  2.0137
13179TIP3    H261029   0.585   5.752  15.114  1.2763  0.4450  0.3651
13180TIP3   OH261030   1.269   2.396   0.104  0.5439 -0.3651  0.6727
13180TIP3    H161031   1.299   2.403   0.013  1.4340  0.6649  1.0302
13180TIP3    H261032   1.302   2.311   0.134  0.0091 -0.8313 -0.0449
13181TIP3   OH261033   2.258   3.247   0.526  0.1328 -0.1234  0.1885
13181TIP3    H161034   2.215   3.291   0.599 -2.2800 -0.0719 -1.2236
13181TIP3    H261035   2.244   3.305   0.451  1.1773 -0.9608 -0.6731
13182TIP3   OH261036   2.811   1.263   3.640 -0.0922  0.1041  0.0371
13182TIP3    H161037   2.856   1.330   3.692 -1.5903  0.6884  0.6164
13182TIP3    H261038   2.816   1.184   3.694 -1.6157  0.7023  1.0950
13183TIP3   OH261039   6.331   2.218   0.304 -0.6402 -0.2819 -0.1633
13183TIP3    H161040   6.255   2.193   0.357  0.7865 -0.8413  1.6432
13183TIP3    H261041   6.372   2.290   0.351  0.8888 -1.0605 -0.2697
13184TIP3   OH261042   4.224   4.386   0.974 -0.1454  0.0675 -0.4387
13184TIP3    H161043   4.225   4.290   0.977 -0.9330  0.0645 -0.1777
13184TIP3    H261044   4.254   4.413   1.061  0.4397  0.0615 -0.6369
13185TIP3   OH261045   4.412   3.886   4.923 -0.1479  0.5783  0.1445
13185TIP3    H161046   4.318   3.886   4.905 -0.0194 -1.2862 -0.6093
13185TIP3    H261047   4.420   3.846   5.010 -0.0565  1.0241  0.3461
13186TIP3   OH261048   6.258   1.743   1.546 -0.2093 -0.2108  0.4045
13186TIP3    H161049   6.174   1.703   1.570 -0.1560 -1.7220 -1.8179
13186TIP3    H261050   6.324   1.682   1.578 -0.0712 -0.8834 -1.1388
13187TIP3   OH261051   4.952   3.374   3.424 -0.2680  0.4243 -0.4923
13187TIP3    H161052   4.941   3.467   3.406 -1.7071  0.0166 -1.8123
13187TIP3    H261053   5.046   3.362   3.438 -0.3032  2.4201  1.7151
13188TIP3   OH261054   1.837   4.804   1.304  0.0530  0.2400 -0.0446
13188TIP3    H161055   1.898   4.736   1.276  1.7059  1.4347  0.5577
13188TIP3    H261056   1.843   4.803   1.400 -0.7155  0.5248  0.0106
13189TIP3   OH261057   1.138   0.984  14.105  0.4907 -0.1406  0.3593
13189TIP3    H161058   1.208   0.949  14.160  0.7349 -0.5709 -0.2205
13189TIP3    H261059   1.122   0.915  14.041  2.0645  1.4499 -1.7877
13190TIP3   OH261060   0.385   5.284  13.133  0.3468  0.3164 -0.2288
13190TIP3    H161061   0.467   5.282  13.084 -0.9483 -0.5062 -2.4457
13190TIP3    H261062   0.374   5.195  13.165  0.5629  0.5462  0.4852
13191TIP3   OH261063   1.490   1.463  11.203 -0.4345  0.3576  0.5076
13191TIP3    H161064   1.454   1.540  11.159 -1.0926 -0.7588 -0.9301
13191TIP3    H261065   1.537   1.416  11.135 -1.0773 -1.1513  1.0891
13192TIP3   OH261066   3.351   5.333  13.534  0.8794 -0.2857 -0.3958
13192TIP3    H161067   3.386   5.293  13.455 -0.3273 -0.4232 -0.8706
13192TIP3    H261068   3.390   5.283  13.606  0.2088 -1.6531 -0.9583
13193TIP3   OH261069   3.119   1.064  17.120  0.1256  0.1268  0.1482
13193TIP3    H161070   3.097   0.982  17.165  0.4382 -0.2811 -0.4334
13193TIP3    H261071   3.111   1.043  17.027  0.4400  0.6882 -0.0096
13194TIP3   OH261072   5.719   1.403   5.585 -0.5436  0.2154  0.5513
13194TIP3    H161073   5.700   1.309   5.580 -1.6338  0.1949  3.6345
13194TIP3    H261074   5.642   1.445   5.548 -1.3629 -0.0910  1.8681
13195TIP3   OH261075   6.598   6.397  13.403 -0.0972 -0.1031 -0.4892
13195TIP3    H161076   6.517   6.370  13.358 -0.4836 -0.1824  0.2393
13195TIP3    H261077   6.632   6.468  13.350  0.3992 -1.3617 -1.8898
13196TIP3   OH261078   2.165   2.487  15.649  0.0094  0.1687 -0.5134
13196TIP3    H161079   2.088   2.542  15.631 -1.7740 -1.9683  0.2488
13196TIP3    H261080   2.148   2.406  15.600 -0.0594 -1.7906  2.6166
13197TIP3   OH261081   4.256   6.230  12.467 -0.1993 -0.5692 -0.1144
13197TIP3    H161082   4.254   6.323  12.444 -0.0273 -0.6488 -0.4509
13197TIP3    H261083   4.334   6.221  12.522 -0.7400 -0.3347  0.7039
13198TIP3   OH261084   1.140   2.125  14.043  0.1514  0.2255 -0.0102
13198TIP3    H161085   1.206   2.189  14.068  0.0857  0.2034  0.2198
13198TIP3    H261086   1.165   2.045  14.089  0.3741  0.0148 -0.4873
13199TIP3   OH261087   3.814   4.517   4.439 -0.2355 -0.0821  0.3624
13199TIP3    H161088   3.721   4.497   4.448 -0.2119  0.2379  1.3162
13199TIP3    H261089   3.836   4.568   4.516  0.7298 -0.1184  0.1234
13200TIP3   OH261090   3.342   3.964  15.182 -0.0742 -0.2406  0.0006
13200TIP3    H161091   3.316   3.975  15.273 -0.1059  1.5241 -0.2039
13200TIP3    H261092   3.328   4.050  15.142 -0.3416 -1.0636 -1.7412
13201TIP3   OH261093   2.037   0.774  11.911  0.0755  0.2222  0.1876
13201TIP3    H161094   2.066   0.683  11.917  0.5740  0.3045 -1.0092
13201TIP3    H261095   1.941   0.769  11.903  0.3690 -0.3581 -3.5599
13202TIP3   OH261096   0.078   2.014  16.214  0.4709  0.0409 -0.3198
13202TIP3    H161097   0.158   2.065  16.210  1.2911 -1.3830 -3.6697
13202TIP3    H261098   0.088   1.959  16.292  2.8427 -0.2905 -0.8299
13203TIP3   OH261099   4.951   3.394  11.696  0.1502 -0.1368 -0.2840
13203TIP3    H161100   4.938   3.418  11.788  0.6646  1.3930 -0.5924
13203TIP3    H261101   4.972   3.476  11.652 -0.2512 -0.8202 -1.8125
13204TIP3   OH261102   6.510   4.200   0.535  0.2817 -0.2725  0.1728
13204TIP3    H161103   6.524   4.127   0.595 -0.2003  0.1833  0.8599
13204TIP3    H261104   6.466   4.162   0.460  0.6587 -0.8071  0.2212
13205TIP3   OH261105   6.766   5.793   2.016  0.4492 -0.1951  0.6832
13205TIP3    H161106   6.672   5.774   2.012  0.4360 -0.4571  1.9685
13205TIP3    H261107   6.771   5.888   2.022  0.4272  0.1433 -3.3823
13206TIP3   OH261108   0.960   6.737  13.940 -0.0191  0.1689 -0.6392
13206TIP3    H161109   1.015   6.694  14.006 -0.2749  0.3419 -0.3115
13206TIP3    H261110   0.913   6.666  13.897  0.2273  0.0464 -0.7083
13207TIP3   OH261111   4.009   6.427  12.203 -0.0887  0.1336 -0.1114
13207TIP3    H161112   3.932   6.371  12.192  1.0510 -1.5462  0.3031
13207TIP3    H261113   4.009   6.449  12.297  0.6459 -0.9371  0.1489
13208TIP3   OH261114   5.637   1.155  14.575  0.0779  0.3520 -1.1730
13208TIP3    H161115   5.635   1.217  14.503 -0.5782  0.7712 -0.8065
13208TIP3    H261116   5.611   1.207  14.652 -2.2228 -0.7492 -1.1667
13209TIP3   OH261117   6.006   0.536  16.462 -0.0215  0.2294  0.0265
13209TIP3    H161118   5.932   0.593  16.484  0.5485  0.8162  0.4486
13209TIP3    H261119   6.065   0.543  16.537 -0.1851 -1.3449  0.3180
13210TIP3   OH261120   2.509   4.690   5.846  0.3790 -0.0918  0.2238
13210TIP3    H161121   2.601   4.690   5.818  0.3480 -0.1879  0.1230
13210TIP3    H261122   2.459   4.673   5.766  0.3676 -1.9604  0.6127
13211TIP3   OH261123   3.972   3.655   2.332 -0.5986 -0.0930  0.3077
13211TIP3    H161124   3.992   3.643   2.239 -1.4251  0.7126  0.0197
13211TIP3    H261125   4.055   3.638   2.377 -0.3388 -1.0431 -0.5345
13212TIP3   OH261126   1.769   1.889   1.677  0.4682  0.3450 -0.4499
13212TIP3    H161127   1.809   1.871   1.592  1.3278  1.8607 -0.3889
13212TIP3    H261128   1.728   1.807   1.702 -1.9698  0.5468 -3.4766
13213TIP3   OH261129   3.758   2.035   2.480 -0.0508 -0.2426  0.2134
13213TIP3    H161130   3.676   2.047   2.432  2.0123 -0.2339 -3.4816
13213TIP3    H261131   3.767   1.941   2.489 -0.6667 -0.2282  0.9704
13214TIP3   OH261132   5.139   4.372   3.595 -0.1266 -0.3811 -0.4575
13214TIP3    H161133   5.067   4.316   3.567 -0.7180  0.0508  0.1794
13214TIP3    H261134   5.096   4.449   3.634  0.6679  0.4278 -1.1394
13215TIP3   OH261135   0.064   3.187   5.577  0.0629  0.2709 -0.2113
13215TIP3    H161136   0.017   3.179   5.494  0.7913 -0.3872 -0.5690
13215TIP3    H261137   0.037   3.110   5.627 -0.2354  0.5715  0.0891
13216TIP3   OH261138   3.346   0.978  15.459  0.2031  0.3836  0.1912
13216TIP3    H161139   3.252   0.970  15.443  0.4705  0.2225 -1.3774
13216TIP3    H261140   3.359   1.071  15.479 -0.2001  0.5104 -0.1391
13217TIP3   OH261141   6.286   2.423  16.102 -0.2896  0.0305  0.4971
13217TIP3    H161142   6.372   2.382  16.103  0.4901  1.6361  1.6509
13217TIP3    H261143   6.231   2.366  16.156 -0.2250 -1.5136 -1.0285
13218TIP3   OH261144   2.925   3.070   5.134 -0.7462 -0.0097 -0.2089
13218TIP3    H161145   2.952   3.021   5.211  0.4052 -2.2466 -1.9968
13218TIP3    H261146   2.987   3.143   5.129 -0.0889 -0.5333  0.3033
13219TIP3   OH261147   4.503   2.653   1.494 -0.3021 -0.4219  0.2995
13219TIP3    H161148   4.448   2.595   1.441  1.7283 -1.3600 -0.8430
13219TIP3    H261149   4.555   2.593   1.548 -0.3117  0.4427  1.2716
13220TIP3   OH261150   2.562   5.353   3.048 -0.4737 -0.1066  0.2749
13220TIP3    H161151   2.518   5.292   3.107 -0.9653  0.7824  0.8507
13220TIP3    H261152   2.603   5.417   3.107  0.0125  0.1309 -0.3179
13221TIP3   OH261153   3.092   1.976   4.578 -0.0972  0.3615 -1.0389
13221TIP3    H161154   3.169   2.018   4.540 -0.0589  0.2113 -1.1266
13221TIP3    H261155   3.102   1.990   4.673 -1.5151  2.9740 -1.2552
13222TIP3   OH261156   6.132   3.938  16.626  0.3174 -0.3856  0.7891
13222TIP3    H161157   6.064   3.986  16.579 -0.2258 -1.6754  0.2340
13222TIP3    H261158   6.179   3.890  16.558 -0.0874 -1.7941  1.4845
13223TIP3   OH261159   2.880   0.605   0.567  0.8172  0.1314 -0.5226
13223TIP3    H161160   2.914   0.635   0.651 -0.0177  0.4784 -0.3056
13223TIP3    H261161   2.948   0.631   0.504  0.9321  0.8782 -0.1071
13224TIP3   OH261162   1.158   4.998   4.455  0.2698 -0.2373  0.0775
13224TIP3    H161163   1.179   4.909   4.486  0.9462  0.6286  2.2203
13224TIP3    H261164   1.243   5.038   4.439 -0.0321  0.0742 -0.7506
13225TIP3   OH261165   3.539   0.698  11.819 -1.5153 -0.2579  0.1083
13225TIP3    H161166   3.511   0.614  11.782 -1.5876 -0.4693  0.6512
13225TIP3    H261167   3.598   0.735  11.752 -2.1589 -0.3457 -0.5112
13226TIP3   OH261168   5.613   0.305   3.491 -0.1800  0.4263 -0.0467
13226TIP3    H161169   5.617   0.299   3.586 -0.1367  1.1439  0.0012
13226TIP3    H261170   5.594   0.216   3.462  1.2340 -0.0945  0.5530
13227TIP3   OH261171   5.577   6.488  14.731 -0.3198 -0.5923 -0.3487
13227TIP3    H161172   5.514   6.559  14.721  0.7894  0.3636 -0.7047
13227TIP3    H261173   5.661   6.532  14.743  0.4807 -1.8526 -1.1869
13228TIP3   OH261174   2.169   6.116  14.439  0.3421  0.9321 -0.4461
13228TIP3    H161175   2.196   6.179  14.505  0.1344 -0.8100  1.3672
13228TIP3    H261176   2.238   6.119  14.373  1.2416  1.7477  0.5200
13229TIP3   OH261177   5.629   3.296   4.684  0.6896 -0.7147 -0.0389
13229TIP3    H161178   5.642   3.213   4.638  0.5803  0.5026 -2.3407
13229TIP3    H261179   5.537   3.294   4.711  0.1805 -0.5623 -1.7204
13230TIP3   OH261180   2.133   6.341   1.302 -0.7716  0.4294  0.2145
13230TIP3    H161181   2.083   6.404   1.251 -0.3515 -1.0075 -2.0163
13230TIP3    H261182   2.215   6.330   1.254  0.1481 -0.0433  1.8500
13231TIP3   OH261183   5.732   4.608  15.549  0.1525 -0.1491  0.1073
13231TIP3    H161184   5.779   4.692  15.545 -1.2598  0.7483  2.0117
13231TIP3    H261185   5.800   4.543  15.530  1.3501  1.3820 -1.0388
13232TIP3   OH261186   4.528   3.082   3.233 -0.0594  0.6830  0.0855
13232TIP3    H161187   4.495   3.124   3.153  1.8315 -1.0820 -1.6874
13232TIP3    H261188   4.623   3.096   3.229  0.0315  0.8054  2.2007
13233TIP3   OH261189   0.850   1.010   3.783  0.6385  0.3693  0.1177
13233TIP3    H161190   0.815   0.945   3.843 -1.0363  2.6182  1.6527
13233TIP3    H261191   0.945   0.999   3.788  0.3961 -1.7246  0.5468
13234TIP3   OH261192   3.667   3.933   4.328 -0.0858 -0.1914 -0.0519
13234TIP3    H161193   3.704   4.019   4.346 -0.5065 -0.2616  1.2011
13234TIP3    H261194   3.741   3.873   4.336 -0.2051 -0.1825  1.1693
13235TIP3   OH261195   0.138   1.803  13.728  0.0830  0.0962 -0.1475
13235TIP3    H161196   0.076   1.871  13.757  1.3885  1.3503 -0.2319
13235TIP3    H261197   0.185   1.778  13.807  0.6320  0.3811 -0.3777
13236TIP3   OH261198   3.134   1.017  14.632  0.1701 -0.3623  0.0119
13236TIP3    H161199   3.197   1.044  14.566 -1.7419  1.3204 -1.1625
13236TIP3    H261200   3.161   1.064  14.711  0.1273  0.6875 -0.5910
13237TIP3   OH261201   5.387   3.383  12.254  0.5006 -0.3189  0.1148
13237TIP3    H161202   5.368   3.448  12.322 -1.8480  0.8101 -1.5530
13237TIP3    H261203   5.353   3.301  12.289  1.9159 -0.3348  1.4997
13238TIP3   OH261204   5.942   0.123  12.504  0.2766  0.5624  0.6255
13238TIP3    H161205   5.960   0.077  12.586  1.2527  0.0641  0.1416
13238TIP3    H261206   5.947   0.055  12.437  0.3936  1.1299  0.0531
13239TIP3   OH261207   5.383   5.566   0.799  0.3893 -0.4881  0.2393
13239TIP3    H161208   5.358   5.477   0.822  2.1923 -0.9172  0.5832
13239TIP3    H261209   5.328   5.589   0.724 -0.6695 -1.5733  0.6766
13240TIP3   OH261210   3.267   2.998   2.756 -0.6985  0.3028  0.3133
13240TIP3    H161211   3.276   2.942   2.833 -0.8379  0.3951  0.3979
13240TIP3    H261212   3.346   2.982   2.705  0.4239  1.8182  1.5090
13241TIP3   OH261213   0.493   2.258   4.430 -0.2194  0.5027 -0.1726
13241TIP3    H161214   0.534   2.206   4.499  1.0530  0.6401 -0.8087
13241TIP3    H261215   0.461   2.336   4.475  1.0788  0.8449  0.1937
13242TIP3   OH261216   5.968   3.472   3.995  0.3914  0.0826 -0.5462
13242TIP3    H161217   5.913   3.445   4.068  0.5868 -2.2941 -1.2336
13242TIP3    H261218   5.907   3.500   3.927  0.0470 -1.3800 -0.8594
13243TIP3   OH261219   3.797   4.887   2.097  0.1141  0.1365  0.1742
13243TIP3    H161220   3.817   4.952   2.030  0.2363 -0.3313 -0.2465
13243TIP3    H261221   3.757   4.815   2.049  0.9386 -0.5404  0.4932
13244TIP3   OH261222   4.764   1.449  14.965  0.5902 -0.1648 -0.2382
13244TIP3    H161223   4.815   1.473  14.888  1.4220  0.6074  0.5487
13244TIP3    H261224   4.728   1.532  14.996  1.2334 -0.3055  0.8995
13245TIP3   OH261225   3.097   0.249   0.300  0.3181  0.1385  0.3863
13245TIP3    H161226   3.072   0.189   0.229  0.9986  0.9396 -0.5320
13245TIP3    H261227   3.024   0.311   0.306 -0.2077 -0.5312  1.0788
13246TIP3   OH261228   3.614   5.850  15.316 -0.1780 -0.3482 -0.0715
13246TIP3    H161229   3.666   5.849  15.236  2.7285 -1.1344  1.7410
13246TIP3    H261230   3.558   5.773  15.310  0.3010 -0.6239 -1.1631
13247TIP3   OH261231   6.088   3.958  17.277 -0.0644 -0.1266 -0.0728
13247TIP3    H161232   6.111   3.873  17.238 -1.0493 -1.3777  1.9968
13247TIP3    H261233   5.995   3.969  17.256 -0.2528 -0.1594  0.7356
13248TIP3   OH261234   0.039   0.545  14.167 -0.1000  0.2565 -0.1084
13248TIP3    H161235  -0.041   0.534  14.115  0.0925  0.0982 -0.3683
13248TIP3    H261236   0.014   0.609  14.235 -0.0525  1.2286 -1.0029
13249TIP3   OH261237   5.065   1.657  15.413  0.1304 -0.2794  0.5140
13249TIP3    H161238   5.115   1.576  15.398  0.1209 -0.1716 -0.0972
13249TIP3    H261239   4.981   1.642  15.370  0.1961  0.1274  0.2495
13250TIP3   OH261240   0.818   6.573  16.110 -0.2880  0.0448  0.1676
13250TIP3    H161241   0.818   6.521  16.029  1.3280 -0.4231  0.4741
13250TIP3    H261242   0.876   6.527  16.169  1.9950  2.6984  0.1070
13251TIP3   OH261243   0.401   0.369   3.461  0.5178  0.3539  0.5691
13251TIP3    H161244   0.482   0.327   3.492  1.1183  2.0589  1.3746
13251TIP3    H261245   0.333   0.333   3.517  1.2028  1.3277  2.0616
13252TIP3   OH261246   6.517   0.314   3.655 -0.2501  0.3047  0.0571
13252TIP3    H161247   6.464   0.235   3.646  0.9177 -0.6591  1.5525
13252TIP3    H261248   6.472   0.379   3.600 -1.5407 -1.2127 -0.7200
13253TIP3   OH261249   1.096   1.841  16.242 -0.4256 -0.4848 -0.0946
13253TIP3    H161250   1.067   1.754  16.269 -0.6652 -0.1902  0.6011
13253TIP3    H261251   1.132   1.828  16.154  0.2416 -1.4250  0.3063
13254TIP3   OH261252   2.768   4.532  17.158  1.1336 -0.0241  0.1231
13254TIP3    H161253   2.803   4.478  17.087  3.4101  0.0382  1.1554
13254TIP3    H261254   2.764   4.621  17.121  3.4367  0.2298  0.4005
13255TIP3   OH261255   2.751   6.619  14.685  0.1844 -0.5334 -0.2743
13255TIP3    H161256   2.777   6.650  14.598  0.5428 -0.0496 -0.0003
13255TIP3    H261257   2.696   6.543  14.669 -1.8522  1.0540 -1.0174
13256TIP3   OH261258   6.630   3.508   3.197  0.1345 -0.5285  0.2861
13256TIP3    H161259   6.562   3.454   3.237 -0.4237  1.2903  1.8776
13256TIP3    H261260   6.627   3.590   3.246  1.1386  0.8560 -1.8801
13257TIP3   OH261261   1.122   5.629  12.535  0.0602 -0.1891 -0.2455
13257TIP3    H161262   1.212   5.610  12.562 -0.2732  0.8378  1.6955
13257TIP3    H261263   1.068   5.599  12.608 -1.2216 -1.2038 -1.5835
13258TIP3   OH261264   0.851   6.373   4.804  0.4143 -0.2812  0.4319
13258TIP3    H161265   0.775   6.315   4.810 -0.0681  0.0472 -1.8689
13258TIP3    H261266   0.907   6.347   4.877 -0.2665 -2.9651  0.0592
13259TIP3   OH261267   4.571   4.760  12.769 -0.6579 -0.3386 -0.0519
13259TIP3    H161268   4.578   4.845  12.725 -1.2454 -0.3641 -0.1885
13259TIP3    H261269   4.638   4.764  12.838 -0.2088 -0.0365 -0.5063
13260TIP3   OH261270   3.200   3.550   6.219  0.7940  0.9384 -0.1521
13260TIP3    H161271   3.171   3.613   6.286 -1.0439 -0.2411  0.1873
13260TIP3    H261272   3.121   3.501   6.196  1.6915  0.3930 -2.2111
13261TIP3   OH261273   1.109   3.962   1.428 -0.1690 -0.3290 -0.0416
13261TIP3    H161274   1.176   3.909   1.386  0.6907 -0.1664  1.1081
13261TIP3    H261275   1.070   3.905   1.494 -1.2529 -0.4598 -0.7795
13262TIP3   OH261276   0.597   3.237  15.628 -0.7041  0.2258 -0.0089
13262TIP3    H161277   0.658   3.307  15.651  0.4682 -1.4252  2.0862
13262TIP3    H261278   0.637   3.193  15.553 -0.7404  0.9251 -0.4367
13263TIP3   OH261279   2.025   5.316  16.823  0.1681 -0.2228 -0.0006
13263TIP3    H161280   1.935   5.293  16.843  0.0235  1.7580  1.8788
13263TIP3    H261281   2.027   5.333  16.729 -1.5905  0.4769  0.0878
13264TIP3   OH261282   0.264   3.541  16.306 -0.1049 -0.4549  0.0941
13264TIP3    H161283   0.177   3.565  16.339  0.2238  1.5618 -0.4063
13264TIP3    H261284   0.275   3.450  16.330 -1.7835 -0.3263  1.4317
13265TIP3   OH261285   5.252   0.467   2.148 -0.2419 -0.4313 -0.0551
13265TIP3    H161286   5.284   0.481   2.059  0.0654  0.5761  0.2117
13265TIP3    H261287   5.165   0.428   2.137 -0.3487  0.0124 -0.7916
13266TIP3   OH261288   0.858   6.558   0.586 -0.3200  0.5616 -0.2960
13266TIP3    H161289   0.934   6.502   0.574 -0.9288 -0.4047  0.2932
13266TIP3    H261290   0.894   6.646   0.594  0.6311  0.2713 -1.3586
13267TIP3   OH261291   1.875   6.189  16.733 -0.5167 -0.4381  0.2890
13267TIP3    H161292   1.906   6.264  16.682 -1.2847  0.5574  1.2640
13267TIP3    H261293   1.780   6.191  16.722 -0.7097 -0.0311  2.0114
13268TIP3   OH261294   2.423   4.851   6.184  0.1841 -0.5068  0.0995
13268TIP3    H161295   2.334   4.841   6.216 -0.6397  0.9006 -1.6631
13268TIP3    H261296   2.418   4.923   6.121  2.5252 -0.5327 -0.1664
13269TIP3   OH261297   1.953   6.769   6.439  0.0929  0.0273  0.1865
13269TIP3    H161298   1.912   6.848   6.475  0.8878 -0.1512  1.4872
13269TIP3    H261299   2.027   6.751   6.497  0.0103 -1.6005 -0.1864
13270TIP3   OH261300   5.471   6.368  16.144  0.6068  0.5408 -0.7188
13270TIP3    H161301   5.379   6.388  16.123  0.0682 -0.4147  0.6688
13270TIP3    H261302   5.501   6.445  16.193  0.1551  0.3248 -0.0871
13271TIP3   OH261303   4.583   4.855  16.962 -0.2764  0.4613  0.6731
13271TIP3    H161304   4.647   4.919  16.992 -0.6999  0.6108  1.2783
13271TIP3    H261305   4.621   4.770  16.986  0.5837  0.4439 -0.7137
13272TIP3   OH261306   5.309   6.480   2.797  0.7347  0.3699  0.2077
13272TIP3    H161307   5.285   6.547   2.734  1.7597 -0.2084 -0.8176
13272TIP3    H261308   5.402   6.494   2.813  0.3955  0.7748  1.9134
13273TIP3   OH261309   3.016   5.536  12.425 -0.5412 -0.6000  0.2097
13273TIP3    H161310   3.095   5.487  12.449 -1.3623 -1.9562  0.2273
13273TIP3    H261311   2.944   5.482  12.458 -1.4444  1.2080  1.2651
13274TIP3   OH261312   3.772   3.717   3.390  0.4461 -0.4199  0.4584
13274TIP3    H161313   3.777   3.650   3.458  0.1729 -0.3879  0.5131
13274TIP3    H261314   3.679   3.719   3.365  0.7296 -1.1792 -0.6683
13275TIP3   OH261315   0.416   3.344  15.128 -0.4262  0.1480 -0.1999
13275TIP3    H161316   0.346   3.279  15.124 -0.5707  0.2493  0.5885
13275TIP3    H261317   0.443   3.344  15.220 -0.0251  0.7797 -0.3174
13276TIP3   OH261318   6.740   4.948  16.503 -0.4750 -0.0905  0.3378
13276TIP3    H161319   6.736   4.873  16.563 -2.4049  0.5823  1.0565
13276TIP3    H261320   6.792   4.916  16.429  0.2511 -1.5573  1.4491
13277TIP3   OH261321   4.501   0.644   3.426 -0.4951 -0.5971  0.3931
13277TIP3    H161322   4.558   0.654   3.350  1.9170 -1.2488  2.0551
13277TIP3    H261323   4.413   0.658   3.392  0.7019  1.2137 -2.0899
13278TIP3   OH261324   1.497   3.880  16.420 -0.0992 -0.2107 -0.0189
13278TIP3    H161325   1.454   3.965  16.430 -0.8219 -0.1797 -2.9653
13278TIP3    H261326   1.558   3.893  16.347 -0.2529 -2.2422 -0.5138
13279TIP3   OH261327   1.977   0.831  13.969 -0.4446 -0.1633  0.2673
13279TIP3    H161328   1.882   0.828  13.965 -0.3944 -0.7888 -0.4416
13279TIP3    H261329   1.997   0.817  14.062 -1.0565  0.5220  0.5066
13280TIP3   OH261330   6.403   3.285  16.519 -0.2948  0.4365 -0.2740
13280TIP3    H161331   6.312   3.316  16.516 -0.7129 -0.7434 -0.0313
13280TIP3    H261332   6.408   3.234  16.600  0.9226  1.5024  0.3328
13281TIP3   OH261333   6.187   1.428   2.200  0.3141 -0.0450  0.1911
13281TIP3    H161334   6.153   1.447   2.288 -2.5625  0.1953 -0.9147
13281TIP3    H261335   6.142   1.348   2.174  2.4005 -1.0544 -0.4552
13282TIP3   OH261336   4.506   1.040  13.250  0.2031 -0.2550  0.3252
13282TIP3    H161337   4.575   1.089  13.294 -0.0270 -0.8062  1.3305
13282TIP3    H261338   4.455   1.001  13.322  0.2865 -1.8158 -0.4428
13283TIP3   OH261339   3.167   4.213  12.766  0.1750  0.0685 -0.7675
13283TIP3    H161340   3.102   4.274  12.799  0.4094  0.8955 -1.8190
13283TIP3    H261341   3.251   4.248  12.796  0.1770 -0.8959  0.4287
13284TIP3   OH261342   5.691   6.311  10.727  0.3074 -0.4569  0.3855
13284TIP3    H161343   5.601   6.334  10.705  0.0705 -0.2926  1.5015
13284TIP3    H261344   5.687   6.217  10.748  1.1082 -1.3955 -3.3013
13285TIP3   OH261345   5.266   1.708   3.310  0.3038  0.6415  0.0341
13285TIP3    H161346   5.227   1.779   3.362  1.3487  1.7529 -0.6787
13285TIP3    H261347   5.237   1.628   3.354 -0.0281  1.5276  1.4757
13286TIP3   OH261348   4.265   6.074   3.187  0.0215 -0.4115 -0.1471
13286TIP3    H161349   4.334   6.139   3.195 -1.2764  0.9363  0.2785
13286TIP3    H261350   4.243   6.073   3.093  0.0837 -0.2868 -0.1627
13287TIP3   OH261351   1.321   5.516  11.862  0.0114  0.2939  0.1152
13287TIP3    H161352   1.285   5.572  11.931 -2.9041 -1.5283  0.1789
13287TIP3    H261353   1.298   5.560  11.781  1.8780  1.5311  0.2230
13288TIP3   OH261354   5.755   6.555  11.298  0.1173  0.3930 -0.3150
13288TIP3    H161355   5.670   6.594  11.275 -0.2178 -1.1138 -1.7088
13288TIP3    H261356   5.804   6.627  11.337 -1.7582  1.3218  0.3812
13289TIP3   OH261357   6.223   2.596   0.403 -0.3584  0.4536  0.1082
13289TIP3    H161358   6.184   2.579   0.489  0.4209 -2.0261  0.0052
13289TIP3    H261359   6.194   2.523   0.349 -1.0521  2.1350 -1.8396
13290TIP3   OH261360   5.763   4.886  14.628 -0.0057 -0.2549  0.1216
13290TIP3    H161361   5.744   4.811  14.685  2.0303 -0.9692 -0.1150
13290TIP3    H261362   5.846   4.865  14.586  0.3631  1.9213 -0.3321
13291TIP3   OH261363   0.397   2.474   0.556  0.4160 -0.2413 -0.3938
13291TIP3    H161364   0.361   2.442   0.639 -0.3981  1.9296  0.1337
13291TIP3    H261365   0.472   2.417   0.539 -0.7249 -2.1276  0.6840
13292TIP3   OH261366   2.851   3.138   1.719  0.0777  0.0944 -0.1981
13292TIP3    H161367   2.829   3.050   1.689 -0.9897  0.1519  0.3898
13292TIP3    H261368   2.923   3.125   1.781  0.5621 -0.2630 -0.8263
13293TIP3   OH261369   4.288   6.623  12.664 -0.0068  0.5313  0.7187
13293TIP3    H161370   4.313   6.537  12.699  1.8616  1.1827  1.0344
13293TIP3    H261371   4.293   6.613  12.569  1.7159  0.7154  0.7853
13294TIP3   OH261372   3.972   5.098   2.500  0.2396 -0.3380  0.0369
13294TIP3    H161373   4.022   5.023   2.533  0.3276 -0.5164 -0.5004
13294TIP3    H261374   3.881   5.077   2.521  0.2674 -0.5874 -0.0861
13295TIP3   OH261375   5.206   6.592   0.509  1.0963 -0.4778 -0.6226
13295TIP3    H161376   5.205   6.551   0.422  0.8124  1.1365 -1.4051
13295TIP3    H261377   5.264   6.536   0.561 -1.4064 -3.4272 -0.8506
13296TIP3   OH261378   0.098   5.198  12.804  0.0438  0.3326  0.4614
13296TIP3    H161379   0.067   5.201  12.713 -0.0527  0.5837  0.5014
13296TIP3    H261380   0.074   5.284  12.840  0.1885  0.2781  0.6894
13297TIP3   OH261381   3.975   0.027   4.692 -0.6440 -0.1877  0.0486
13297TIP3    H161382   3.880   0.023   4.707 -0.8577 -0.0375 -1.2584
13297TIP3    H261383   3.996   0.120   4.697 -0.7018 -0.1452 -0.4962
13298TIP3   OH261384   5.448   1.498   3.552 -0.3374 -0.1855  0.3647
13298TIP3    H161385   5.493   1.457   3.478 -1.4910 -0.6505 -0.0901
13298TIP3    H261386   5.363   1.454   3.556 -1.0393  1.1800  0.7500
13299TIP3   OH261387   4.606   6.079  13.436 -0.3682  0.4359 -0.6860
13299TIP3    H161388   4.632   6.056  13.525  0.5621 -0.9212 -1.2883
13299TIP3    H261389   4.688   6.095  13.390 -0.8810  2.1252 -1.0561
13300TIP3   OH261390   0.381   5.104  17.238 -0.1021 -0.2669  0.2827
13300TIP3    H161391   0.354   5.162  17.167 -2.7812  0.4347  1.8158
13300TIP3    H261392   0.378   5.016  17.200  0.5565  0.2661 -1.0391
13301TIP3   OH261393   2.252   5.969  15.549  0.0021 -0.2344 -0.2222
13301TIP3    H161394   2.335   5.927  15.570 -0.1189  0.3717  1.6042
13301TIP3    H261395   2.270   6.022  15.472  1.8160  1.3043  1.2020
13302TIP3   OH261396   2.205   1.467   3.437 -0.0265 -0.3066 -0.3837
13302TIP3    H161397   2.115   1.447   3.462 -0.1410 -1.8583 -1.9438
13302TIP3    H261398   2.199   1.493   3.345  1.2362 -1.3050 -0.7556
13303TIP3   OH261399   0.679   2.316  11.540  0.2359  0.5375  0.4116
13303TIP3    H161400   0.591   2.284  11.559  0.9606 -0.4520  2.2038
13303TIP3    H261401   0.687   2.309  11.445 -1.3223 -0.1579  0.3181
13304TIP3   OH261402   4.059   2.882  11.804 -0.1754  0.1589 -0.1035
13304TIP3    H161403   3.978   2.832  11.815  0.5432 -0.8690  0.6122
13304TIP3    H261404   4.084   2.908  11.893  0.1263  0.7219 -0.3446
13305TIP3   OH261405   6.193   3.703   5.741 -0.1530  0.0383 -0.2683
13305TIP3    H161406   6.231   3.635   5.796  0.7195  1.1168  0.4934
13305TIP3    H261407   6.205   3.784   5.791  0.4992  1.0204 -1.9507
13306TIP3   OH261408   0.669   6.018   2.555 -0.0611 -0.1459  0.0888
13306TIP3    H161409   0.587   5.982   2.521  0.1825 -0.6113 -0.0048
13306TIP3    H261410   0.702   6.073   2.483 -1.2681  1.6079  0.8404
13307TIP3   OH261411   2.323   6.583   4.039  0.5272 -0.0940  0.5517
13307TIP3    H161412   2.291   6.621   4.120  0.0111  0.1346  0.2450
13307TIP3    H261413   2.414   6.612   4.032  1.3160 -2.0329  2.2263
13308TIP3   OH261414   6.640   1.570  14.346  0.6514  0.1488 -1.0169
13308TIP3    H161415   6.694   1.645  14.321 -0.2546  0.7651 -1.1392
13308TIP3    H261416   6.660   1.557  14.439 -0.4389  1.5973 -0.5727
13309TIP3   OH261417   4.109   5.062   2.851 -0.0865  0.1350 -0.5467
13309TIP3    H161418   4.136   4.994   2.912 -0.9224  0.5985  0.3524
13309TIP3    H261419   4.189   5.083   2.801  1.5464  2.2169  2.7822
13310TIP3   OH261420   2.142   1.303   6.055  0.5086  0.7743  0.0912
13310TIP3    H161421   2.168   1.244   5.984  0.1113 -1.9938  2.1694
13310TIP3    H261422   2.223   1.323   6.101  0.2662 -0.4814  1.0896
13311TIP3   OH261423   6.149   2.475   0.659 -0.3386 -0.6594 -0.0719
13311TIP3    H161424   6.183   2.505   0.743  3.2210  1.0821 -2.0009
13311TIP3    H261425   6.167   2.381   0.657 -0.0365 -0.6256  0.9353
13312TIP3   OH261426   2.997   6.702  12.441  0.3596  0.3722 -0.4824
13312TIP3    H161427   2.905   6.678  12.443  0.5892 -0.5151 -0.4438
13312TIP3    H261428   2.997   6.795  12.418 -0.5491  0.4295 -0.2651
13313TIP3   OH261429   1.693   0.848  15.368 -0.5616 -0.1410 -0.4479
13313TIP3    H161430   1.661   0.840  15.278  0.3300 -2.1283 -0.6098
13313TIP3    H261431   1.788   0.836  15.362 -0.5677 -0.9942  0.8326
13314TIP3   OH261432   1.183   2.431   4.785  0.0466 -0.2981  0.5166
13314TIP3    H161433   1.216   2.375   4.855  0.1740  0.6555  1.2406
13314TIP3    H261434   1.258   2.486   4.762 -0.0220 -0.5470 -0.3137
13315TIP3   OH261435   6.596   4.995  11.428  0.1207  0.1483 -0.0488
13315TIP3    H161436   6.557   5.072  11.468 -0.4741 -0.7886  1.2214
13315TIP3    H261437   6.618   4.938  11.502  0.6074 -0.8728 -0.9606
13316TIP3   OH261438   1.495   6.305  12.523  0.4097 -0.3129 -0.1580
13316TIP3    H161439   1.497   6.296  12.618 -0.3946 -0.8557 -0.1919
13316TIP3    H261440   1.587   6.310  12.497  0.6270  0.0893  0.6665
13317TIP3   OH261441   4.721   3.448  16.668  0.0575  0.0303  0.1494
13317TIP3    H161442   4.791   3.493  16.621 -1.0173  1.3662 -0.1964
13317TIP3    H261443   4.643   3.502  16.654 -0.5287 -0.1224  2.5594
13318TIP3   OH261444   4.420   4.997   0.785 -0.2003  0.0681 -0.7022
13318TIP3    H161445   4.424   5.086   0.821 -2.2972 -0.0157 -0.1902
13318TIP3    H261446   4.357   4.951   0.841 -1.9344 -0.6814 -3.1531
13319TIP3   OH261447   3.265   2.856  15.132  0.3782  0.1684 -0.1637
13319TIP3    H161448   3.258   2.891  15.220 -0.6777  2.6211 -1.1867
13319TIP3    H261449   3.268   2.761  15.144 -0.1335  0.4536  2.4709
13320TIP3   OH261450   1.376   2.266   1.316  0.5799 -0.6433 -0.1066
13320TIP3    H161451   1.348   2.351   1.350  2.4403  0.1308 -0.4647
13320TIP3    H261452   1.362   2.205   1.389  0.4271  0.2003  0.5794
13321TIP3   OH261453   1.863   3.318   0.556 -0.2851  0.3553 -0.3108
13321TIP3    H161454   1.864   3.396   0.501  0.3075  1.2952  1.0338
13321TIP3    H261455   1.853   3.350   0.645 -1.9789 -1.2108  0.1025
13322TIP3   OH261456   5.961   4.699  17.205 -0.0472  0.2692 -0.3927
13322TIP3    H161457   5.906   4.767  17.245 -0.2558  0.3426 -0.8045
13322TIP3    H261458   5.935   4.619  17.250  1.4189  0.7135  1.3035
13323TIP3   OH261459   0.372   0.548   6.065 -0.4588 -0.4904  0.7269
13323TIP3    H161460   0.298   0.513   6.116 -1.0304 -1.0135 -0.4462
13323TIP3    H261461   0.337   0.560   5.977  0.2816  1.2653  0.6568
13324TIP3   OH261462   0.005   6.205  10.429  0.5915  0.0968  0.4027
13324TIP3    H161463   0.046   6.279  10.384  1.5831 -0.9255 -0.3921
13324TIP3    H261464  -0.084   6.203  10.394 -0.6575  3.1581  3.1322
13325TIP3   OH261465   5.799   0.530  12.119 -0.2459 -0.1300  0.0314
13325TIP3    H161466   5.878   0.550  12.169 -0.2534 -1.2756  0.5194
13325TIP3    H261467   5.758   0.615  12.103  2.1461  0.6685 -2.0152
13326TIP3   OH261468   1.360   5.743  13.201  0.4205 -0.1846  0.1176
13326TIP3    H161469   1.433   5.742  13.264  0.1649 -1.3097  0.4082
13326TIP3    H261470   1.401   5.729  13.116  0.8298  1.8678 -0.0597
13327TIP3   OH261471   1.502   1.940  15.180 -0.4735  0.4849  0.4432
13327TIP3    H161472   1.541   2.027  15.181 -0.6349  0.5515  1.4671
13327TIP3    H261473   1.447   1.939  15.101  1.9883  0.1907 -1.3482
13328TIP3   OH261474   4.035   4.271  15.421 -0.0817 -0.4045 -0.4267
13328TIP3    H161475   4.117   4.305  15.387 -0.0737  0.3668  0.3447
13328TIP3    H261476   4.060   4.220  15.498 -0.1123 -2.0305 -1.4667
13329TIP3   OH261477   1.310   3.056  16.540 -0.2651  0.0477  0.0897
13329TIP3    H161478   1.253   3.002  16.485  2.1906 -0.9890 -1.5555
13329TIP3    H261479   1.339   3.126  16.482  0.7950  0.0612  0.6229
13330TIP3   OH261480   3.493   5.155  14.176 -0.0675 -0.3818  0.5176
13330TIP3    H161481   3.560   5.192  14.118  1.3863 -1.9196  1.1886
13330TIP3    H261482   3.420   5.135  14.118  0.2463  0.8174 -0.3163
13331TIP3   OH261483   0.920   0.066   1.147 -1.1542  0.6664  0.5720
13331TIP3    H161484   1.013   0.053   1.165 -1.0925 -2.4826 -1.5576
13331TIP3    H261485   0.914   0.154   1.110  0.7650  1.3450  1.7984
13332TIP3   OH261486   6.271   2.508  11.264  0.0863 -0.1979  0.1006
13332TIP3    H161487   6.284   2.446  11.192  0.4268  1.5381 -1.3779
13332TIP3    H261488   6.227   2.583  11.223 -0.1717  0.6102  1.8203
13333TIP3   OH261489   6.558   0.224   1.377 -0.6864  0.1272  0.1173
13333TIP3    H161490   6.522   0.169   1.447 -0.4990  0.6290  0.6129
13333TIP3    H261491   6.555   0.313   1.413  2.0168  0.0770  0.5794
13334TIP3   OH261492   6.521   5.374  15.462  0.6189 -0.0324  0.7511
13334TIP3    H161493   6.616   5.363  15.448  0.3802  0.6765 -1.5083
13334TIP3    H261494   6.504   5.326  15.543  2.6810 -1.3801  0.4311
13335TIP3   OH261495   2.655   5.486  12.930  0.0778  0.4653  0.7618
13335TIP3    H161496   2.700   5.440  13.000  0.1652  0.1183  0.4790
13335TIP3    H261497   2.614   5.417  12.878  2.0415  0.5485 -0.9376
13336TIP3   OH261498   4.271   3.195   2.010 -0.0222 -0.1076  1.0960
13336TIP3    H161499   4.279   3.159   1.922 -1.4304  0.8683  0.5543
13336TIP3    H261500   4.360   3.219   2.034  0.4322 -0.7723  0.1187
13337TIP3   OH261501   0.348   2.643   3.533 -0.2425 -0.1920  0.0621
13337TIP3    H161502   0.274   2.617   3.588  1.5081 -3.5759  0.9986
13337TIP3    H261503   0.414   2.675   3.595 -0.6304  2.1933 -0.7039
13338TIP3   OH261504   2.752   1.853   4.000 -0.0745  0.3981 -0.4659
13338TIP3    H161505   2.793   1.811   4.076  1.5040  0.1652 -1.4194
13338TIP3    H261506   2.691   1.788   3.966  0.8961 -0.3788 -0.7431
13339TIP3   OH261507   2.852   1.159  10.606 -0.1717  0.2245  0.0790
13339TIP3    H161508   2.810   1.100  10.668  1.1755 -1.8069 -0.8774
13339TIP3    H261509   2.946   1.143  10.617  0.1897  1.6941 -0.6991
13340TIP3   OH261510   6.561   1.057  11.644  0.1587 -0.1539  0.2442
13340TIP3    H161511   6.549   1.133  11.587 -1.9753 -1.2030 -0.7337
13340TIP3    H261512   6.494   1.068  11.712 -0.2492 -1.2458  0.0159
13341TIP3   OH261513   0.466   4.845   1.833  0.2185  0.0151  0.2834
13341TIP3    H161514   0.517   4.790   1.893 -0.3802 -0.3673  0.4480
13341TIP3    H261515   0.385   4.797   1.821 -1.1422  1.8093  1.9924
13342TIP3   OH261516   5.015   0.329   3.725  0.4675 -0.1760 -0.4252
13342TIP3    H161517   5.007   0.348   3.818 -2.6553 -1.8886 -0.2980
13342TIP3    H261518   4.943   0.376   3.684  1.6340  0.3268 -1.9585
13343TIP3   OH261519   6.020   4.278  13.395 -0.2132 -0.0592 -0.0914
13343TIP3    H161520   5.954   4.221  13.436 -0.0526 -0.1643  0.0238
13343TIP3    H261521   6.073   4.219  13.342  0.4420 -0.1465  0.6415
13344TIP3   OH261522   1.008   1.602  17.103 -0.5389 -0.4968 -0.0066
13344TIP3    H161523   1.054   1.685  17.117 -1.7347  0.3821 -1.1149
13344TIP3    H261524   0.917   1.622  17.124 -1.0139 -1.2550 -1.2748
13345TIP3   OH261525   6.278   5.096   1.917 -0.4287 -0.2441  0.2503
13345TIP3    H161526   6.303   5.007   1.944 -2.3612 -0.1724  2.4856
13345TIP3    H261527   6.224   5.128   1.989  1.7079  3.4658  0.3337
13346TIP3   OH261528   3.441   2.993  11.424  0.2062 -0.3032 -0.0835
13346TIP3    H161529   3.367   2.939  11.453 -0.3293  0.1044 -0.6829
13346TIP3    H261530   3.518   2.950  11.463 -0.2878 -1.0468  0.0968
13347TIP3   OH261531   3.703   6.527   5.835  0.6188 -0.0994  0.2350
13347TIP3    H161532   3.770   6.547   5.770  1.4634  1.6218  1.6201
13347TIP3    H261533   3.732   6.570   5.915 -2.4695  1.2577  0.6983
13348TIP3   OH261534   3.405   4.995   3.465 -0.7210  0.3133  0.4978
13348TIP3    H161535   3.423   4.945   3.544  0.4725  1.6624  1.1017
13348TIP3    H261536   3.442   4.942   3.394 -1.8469 -0.9273  0.8119
13349TIP3   OH261537   5.292   2.120  12.017 -0.5672  0.0663  0.1368
13349TIP3    H161538   5.305   2.034  11.976  1.0372  0.8066 -0.9737
13349TIP3    H261539   5.248   2.172  11.950  3.0184  1.6057 -1.1432
13350TIP3   OH261540   2.725   0.377  13.562 -0.5881 -0.5506  0.1590
13350TIP3    H161541   2.666   0.305  13.538  1.1991 -2.0177  0.1170
13350TIP3    H261542   2.813   0.340  13.552  0.3285  1.4085  0.9008
13351TIP3   OH261543   2.414   0.795   0.105  0.2778 -0.1546 -0.2427
13351TIP3    H161544   2.366   0.805   0.187  0.1779 -3.0724  0.1296
13351TIP3    H261545   2.356   0.742   0.050  1.6076 -0.7612 -1.0795
13352TIP3   OH261546   2.414   1.726  11.913 -0.4247  0.6632 -0.2361
13352TIP3    H161547   2.483   1.756  11.973 -0.3465 -0.1564  0.0792
13352TIP3    H261548   2.460   1.674  11.848 -0.5012  1.6058 -1.0590
13353TIP3   OH261549   6.538   4.604  16.342 -0.0098 -0.5899 -0.2307
13353TIP3    H161550   6.518   4.578  16.432  0.3859 -1.2427 -0.3267
13353TIP3    H261551   6.453   4.601  16.297 -0.2333 -0.1127  0.1583
13354TIP3   OH261552   6.183   0.162   0.642 -0.5555  0.0056  0.3949
13354TIP3    H161553   6.119   0.091   0.638 -1.0948  0.4475  1.0855
13354TIP3    H261554   6.268   0.118   0.647 -0.6456 -0.5943 -2.4615
13355TIP3   OH261555   0.057   6.059   3.508  0.3086  0.0611  0.5892
13355TIP3    H161556   0.005   6.140   3.510  0.7241  0.3438 -0.0155
13355TIP3    H261557   0.136   6.083   3.460 -0.4096 -1.2167 -1.2535
13356TIP3   OH261558   2.210   1.686  14.709  0.4595  0.3567 -0.0347
13356TIP3    H161559   2.119   1.668  14.688  0.3626 -0.4120  1.0463
13356TIP3    H261560   2.209   1.722  14.797  1.3115 -0.9480  0.5350
13357TIP3   OH261561   0.499   6.164   2.126 -0.4147 -0.6782 -0.1169
13357TIP3    H161562   0.488   6.156   2.031 -0.1532 -2.0542 -0.0491
13357TIP3    H261563   0.571   6.226   2.137 -0.5205 -0.4305 -0.8232
13358TIP3   OH261564   5.670   6.002  14.189  0.9492 -0.0653  0.0864
13358TIP3    H161565   5.579   6.028  14.207  0.8791  0.0613 -0.4469
13358TIP3    H261566   5.688   5.933  14.253  0.9924  0.9715  1.2229
13359TIP3   OH261567   1.365   3.447  12.998  0.6748 -0.1171 -0.0346
13359TIP3    H161568   1.366   3.409  12.910 -1.1361  0.5907 -0.3779
13359TIP3    H261569   1.418   3.526  12.990 -0.5304  0.6274 -0.8204
13360TIP3   OH261570   4.912   2.080  12.149 -0.2294  0.4095  0.1827
13360TIP3    H161571   4.902   2.174  12.162  0.2551  0.3448  1.1026
13360TIP3    H261572   4.824   2.044  12.155 -0.2387  0.6246  1.4193
13361TIP3   OH261573   2.806   3.046   4.735 -0.4104  0.1003 -0.3497
13361TIP3    H161574   2.869   3.002   4.792 -0.1655  0.4276 -0.3676
13361TIP3    H261575   2.731   2.986   4.731 -1.3003  0.9937  1.9933
13362TIP3   OH261576   5.189   3.061  15.109 -0.4148  0.4664 -0.1609
13362TIP3    H161577   5.249   3.020  15.172 -1.1169 -1.7025 -0.8397
13362TIP3    H261578   5.110   3.078  15.160 -0.3588  0.3288 -0.0258
13363TIP3   OH261579   1.743   4.875  11.125  0.0336  0.1564  0.3607
13363TIP3    H161580   1.659   4.912  11.150  0.0791  0.7200 -0.3173
13363TIP3    H261581   1.749   4.888  11.030  0.5373 -0.5859  0.2826
13364TIP3   OH261582   6.689   4.421   5.361 -0.1705  0.2191 -0.5023
13364TIP3    H161583   6.769   4.470   5.380  1.0350 -1.9505  0.1515
13364TIP3    H261584   6.623   4.460   5.418  1.1344  0.1011  1.1291
13365TIP3   OH261585   4.201   1.394   1.762  0.3570  0.0662  0.3329
13365TIP3    H161586   4.108   1.379   1.778 -0.0277  0.6050 -1.2699
13365TIP3    H261587   4.244   1.315   1.793 -1.0634 -2.0722 -2.9229
13366TIP3   OH261588   3.217   1.021  11.950 -0.1488 -0.2128  0.5015
13366TIP3    H161589   3.312   1.022  11.956 -0.1777  0.7058  0.8777
13366TIP3    H261590   3.193   0.928  11.956  0.8444 -0.6234 -1.6119
13367TIP3   OH261591   1.525   2.552   0.486  1.1312  0.0402 -0.0949
13367TIP3    H161592   1.518   2.635   0.535  1.2170  1.2190 -2.0307
13367TIP3    H261593   1.435   2.529   0.466  1.1036 -0.3769  0.5034
13368TIP3   OH261594   3.711   6.648   6.639  0.2229  0.2189 -0.2851
13368TIP3    H161595   3.754   6.633   6.723 -0.3006  1.9965  0.3091
13368TIP3    H261596   3.755   6.588   6.579  1.8420  0.2347  0.8538
13369TIP3   OH261597   4.216   3.471  14.186  0.2427  0.6472  0.1541
13369TIP3    H161598   4.197   3.389  14.233  0.6728 -0.1321 -1.0111
13369TIP3    H261599   4.131   3.502  14.157  0.2741 -0.6196 -1.3971
13370TIP3   OH261600   2.560   5.247   1.711  0.3041  0.9015  0.0215
13370TIP3    H161601   2.639   5.281   1.751  0.7823  1.7546 -1.6118
13370TIP3    H261602   2.499   5.235   1.784  1.8383  0.4600  1.2554
13371TIP3   OH261603   0.348   3.068  14.880  0.2572 -0.3445  0.1934
13371TIP3    H161604   0.310   3.096  14.963 -1.2976  1.6307 -1.1223
13371TIP3    H261605   0.369   2.976  14.893 -0.3718 -0.1755  2.6273
13372TIP3   OH261606   3.958   2.668   2.365  0.2269  0.2957 -0.3326
13372TIP3    H161607   4.050   2.654   2.341  0.1865  0.5865 -0.6593
13372TIP3    H261608   3.927   2.581   2.391  0.4937  0.1275 -0.5709
13373TIP3   OH261609   0.677   6.491  14.783 -0.6287  0.6220  0.6633
13373TIP3    H161610   0.655   6.547  14.857 -0.1321  1.5533  0.1173
13373TIP3    H261611   0.674   6.402  14.818 -0.4366  1.0482  1.7863
13374TIP3   OH261612   1.643   6.190  15.163 -0.8671  0.4742 -0.5488
13374TIP3    H161613   1.632   6.095  15.171 -1.0761  0.4286 -1.2930
13374TIP3    H261614   1.700   6.201  15.087 -2.2861  0.9987 -1.5668
13375TIP3   OH261615   4.622   0.302  16.961 -0.4504 -0.2029 -0.4562
13375TIP3    H161616   4.679   0.229  16.938 -0.7041 -0.2933 -0.8076
13375TIP3    H261617   4.640   0.318  17.053  0.5465  0.1341 -0.7022
13376TIP3   OH261618   4.694   0.792   4.459  0.8012 -0.1326  0.4034
13376TIP3    H161619   4.633   0.862   4.484 -0.0669 -0.7320  0.0042
13376TIP3    H261620   4.751   0.832   4.393 -0.2860 -0.0462 -0.5096
13377TIP3   OH261621   3.598   2.584  17.292  0.3337 -0.3613  0.0869
13377TIP3    H161622   3.619   2.670  17.330 -0.7324 -0.3893  0.7680
13377TIP3    H261623   3.577   2.529  17.367 -0.4879 -0.7912 -0.4467
13378TIP3   OH261624   2.259   2.876   2.704  0.2194  0.1283 -0.0827
13378TIP3    H161625   2.213   2.958   2.688  0.7657  0.0825 -2.0052
13378TIP3    H261626   2.351   2.901   2.708  0.3792 -0.3600 -0.5786
13379TIP3   OH261627   4.734   4.756   1.947  0.4969 -0.3306  0.6704
13379TIP3    H161628   4.765   4.718   1.865  1.5396  0.6290  0.6006
13379TIP3    H261629   4.763   4.694   2.014 -0.1423 -0.9908  0.3496
13380TIP3   OH261630   2.997   1.310   4.766  0.0220  0.4491 -0.2742
13380TIP3    H161631   3.092   1.299   4.757 -0.1467 -1.4170  0.1103
13380TIP3    H261632   2.985   1.333   4.858  0.0257 -0.2291 -0.1028
13381TIP3   OH261633   1.791   4.749  15.040  0.6674  0.1312  0.2179
13381TIP3    H161634   1.742   4.825  15.072 -0.3156 -0.4131  0.0515
13381TIP3    H261635   1.740   4.717  14.966  1.7208  0.0258 -0.4724
13382TIP3   OH261636   2.945   3.501   3.147 -0.6386 -0.1313  0.3347
13382TIP3    H161637   3.015   3.527   3.086  1.9875 -1.3041  2.7116
13382TIP3    H261638   2.927   3.410   3.125 -2.7834  0.6784 -1.4608
13383TIP3   OH261639   5.787   3.025  15.585  0.2682 -0.2265  0.3536
13383TIP3    H161640   5.788   3.030  15.680 -0.4237  0.8952  0.3083
13383TIP3    H261641   5.845   3.097  15.557  1.0847 -1.0311 -0.0644
13384TIP3   OH261642   2.839   4.350   6.082 -0.0969  0.2214  0.4766
13384TIP3    H161643   2.860   4.441   6.102  0.2542  0.0229  1.0249
13384TIP3    H261644   2.891   4.330   6.004  1.1092 -0.0076  1.3283
13385TIP3   OH261645   2.189   0.401   2.801 -0.0987  0.4228  0.2021
13385TIP3    H161646   2.278   0.388   2.833  0.0442 -0.0379 -0.3764
13385TIP3    H261647   2.196   0.473   2.738  0.0679 -0.3676 -0.6921
13386TIP3   OH261648   4.086   5.202  15.012  0.1948 -0.3451 -0.3653
13386TIP3    H161649   4.024   5.191  14.940 -0.2722 -0.9803  0.1285
13386TIP3    H261650   4.103   5.296  15.016  1.0623 -0.4066 -2.0040
13387TIP3   OH261651   1.829   1.165  11.460  0.5374  0.1753  0.2813
13387TIP3    H161652   1.779   1.110  11.399  0.9300  1.1958 -0.9889
13387TIP3    H261653   1.764   1.194  11.524  0.4737 -2.3962  1.4589
13388TIP3   OH261654   1.513   3.708  15.750  0.3804 -0.2238  0.8739
13388TIP3    H161655   1.530   3.682  15.841 -0.7177  0.9319  1.4245
13388TIP3    H261656   1.427   3.749  15.753  1.3062  1.8816 -0.2814
13389TIP3   OH261657   3.973   3.512  13.996 -0.1727  0.2052  0.0706
13389TIP3    H161658   3.989   3.426  13.958  0.0902 -0.1195  0.9106
13389TIP3    H261659   3.879   3.527  13.984 -0.4075 -0.6332  0.8360
13390TIP3   OH261660   3.807   0.580  11.702  0.1548 -0.2492 -0.1659
13390TIP3    H161661   3.776   0.574  11.612 -0.8079  0.3860  0.1200
13390TIP3    H261662   3.778   0.499  11.743 -0.2346 -0.1093 -0.1698
13391TIP3   OH261663   4.369   4.975   3.249 -0.5749  0.7149  0.4933
13391TIP3    H161664   4.379   4.893   3.296 -1.4658  1.4755  2.0521
13391TIP3    H261665   4.275   4.994   3.251 -0.3904  1.7397  0.1135
13392TIP3   OH261666   3.484   0.529  16.548  0.0777 -0.0512 -0.0188
13392TIP3    H161667   3.500   0.438  16.571 -0.3871 -0.0026  0.5120
13392TIP3    H261668   3.390   0.540  16.556  0.1945  0.6380  0.5535
13393TIP3   OH261669   0.576   1.313   4.540 -0.2054 -0.1246 -0.2344
13393TIP3    H161670   0.563   1.291   4.448 -0.3454  0.8146 -0.4442
13393TIP3    H261671   0.627   1.240   4.575  0.5915 -0.0716 -1.2621
13394TIP3   OH261672   1.444   6.331   5.310  0.2384 -0.2657 -0.7591
13394TIP3    H161673   1.447   6.426   5.321  0.0627 -0.1940 -1.2948
13394TIP3    H261674   1.449   6.296   5.399  3.3190  0.1518 -0.7080
13395TIP3   OH261675   5.720   2.187   4.708 -0.2512  0.1034 -0.1900
13395TIP3    H161676   5.769   2.130   4.767 -0.3686  1.7555  1.5533
13395TIP3    H261677   5.682   2.254   4.765 -1.1028  1.2323 -2.0308
13396TIP3   OH261678   6.384   3.698   1.690 -0.3101  0.1507 -0.2110
13396TIP3    H161679   6.328   3.754   1.743 -1.8720 -1.2827 -0.3207
13396TIP3    H261680   6.350   3.707   1.601  0.2218 -0.0295 -0.4375
13397TIP3   OH261681   3.336   2.456   3.792 -0.2078  0.0981 -0.5310
13397TIP3    H161682   3.281   2.405   3.732 -1.5480 -0.5433  1.2027
13397TIP3    H261683   3.348   2.398   3.867  2.3196  0.4871 -0.5980
13398TIP3   OH261684   6.734   2.146  16.064  0.1424 -0.3783 -0.3669
13398TIP3    H161685   6.801   2.103  16.117  0.3927  2.1825  1.4554
13398TIP3    H261686   6.782   2.190  15.995  0.2297  0.1528  0.0257
13399TIP3   OH261687   3.642   1.711   3.289  0.0417  0.3148  0.1271
13399TIP3    H161688   3.668   1.645   3.225  0.0246  1.2264 -0.8545
13399TIP3    H261689   3.578   1.667   3.345 -0.9620 -0.1344 -1.3342
13400TIP3   OH261690   1.926   3.483   4.592  0.3510  0.1515 -0.3513
13400TIP3    H161691   1.884   3.552   4.540  0.0898  0.3809  0.1593
13400TIP3    H261692   1.982   3.530   4.654  0.9777 -0.1358 -0.6891
13401TIP3   OH261693   0.747   1.421  15.987  0.3297  0.2405 -0.3261
13401TIP3    H161694   0.714   1.363  16.055  1.3580  0.7610  0.6500
13401TIP3    H261695   0.820   1.373  15.947  2.0822  1.3639  1.4179
13402TIP3   OH261696   0.720   3.265  16.971 -0.3779  0.5246  0.0277
13402TIP3    H161697   0.638   3.309  16.949 -0.9257 -0.4333  0.1253
13402TIP3    H261698   0.787   3.314  16.923 -1.0218  1.2281 -0.1635
13403TIP3   OH261699   0.408   2.641  12.024  0.2552  0.4018  0.4751
13403TIP3    H161700   0.462   2.621  12.100 -0.2079 -4.3746 -0.2968
13403TIP3    H261701   0.470   2.670  11.957  1.0141  1.6502  1.6941
13404TIP3   OH261702   5.606   4.161  16.394 -0.2842  0.3257 -0.0137
13404TIP3    H161703   5.518   4.184  16.362 -0.8792 -0.7278  0.8259
13404TIP3    H261704   5.590   4.096  16.462  1.1305  0.5484  0.5408
13405TIP3   OH261705   5.569   0.346  12.199 -0.1048  0.0804 -0.0058
13405TIP3    H161706   5.541   0.325  12.109  1.5466 -1.2129 -0.2457
13405TIP3    H261707   5.641   0.408  12.188 -1.3210  1.5941  0.5188
13406TIP3   OH261708   4.145   2.836   2.762  0.2113  0.6551  0.3987
13406TIP3    H161709   4.130   2.906   2.824 -1.3669  1.4744 -0.8714
13406TIP3    H261710   4.087   2.856   2.688  0.5086 -1.4073 -0.4339
13407TIP3   OH261711   6.509   2.384   2.697  1.0075 -0.0563 -0.1065
13407TIP3    H161712   6.579   2.323   2.718  1.7360  1.6083  2.5347
13407TIP3    H261713   6.523   2.458   2.756 -2.6719  0.5712  0.1093
13408TIP3   OH261714   2.432   0.432   1.869  0.0033 -0.0290 -0.5526
13408TIP3    H161715   2.362   0.368   1.873  0.9272 -1.0837 -1.0746
13408TIP3    H261716   2.404   0.502   1.928 -0.6859 -1.2276  0.5508
13409TIP3   OH261717   5.790   1.641  12.633 -0.4174 -0.1629 -0.4720
13409TIP3    H161718   5.839   1.607  12.558  1.0095 -1.1250  0.8622
13409TIP3    H261719   5.855   1.648  12.703 -1.5497  1.4906  0.4641
13410TIP3   OH261720   0.156   5.193   5.333  0.0171  0.3144 -0.2698
13410TIP3    H161721   0.178   5.224   5.421 -0.4798 -2.6479  0.9530
13410TIP3    H261722   0.224   5.129   5.312 -0.1450  0.6307 -1.8569
13411TIP3   OH261723   3.013   0.831   6.147  0.0483 -0.2162 -0.1431
13411TIP3    H161724   2.921   0.856   6.147  0.2092  0.4180  0.7150
13411TIP3    H261725   3.061   0.913   6.157  0.5967 -0.7499  2.1358
13412TIP3   OH261726   3.242   2.047  10.308  0.4261 -0.3908  0.4385
13412TIP3    H161727   3.298   2.087  10.373  0.1670  0.3043  0.2329
13412TIP3    H261728   3.194   1.979  10.356  0.9173 -0.5138  0.7619
13413TIP3   OH261729   2.313   2.359   0.261  0.4830  0.0499 -0.1272
13413TIP3    H161730   2.300   2.386   0.170 -2.0571 -2.2146 -0.5088
13413TIP3    H261731   2.343   2.268   0.255 -3.0524 -1.3115  1.2718
13414TIP3   OH261732   2.187   2.069  11.218 -0.4513 -0.4634 -0.4170
13414TIP3    H161733   2.148   2.113  11.293  0.7054 -0.5178  0.2350
13414TIP3    H261734   2.157   1.979  11.224  0.0624 -0.5885  0.2830
13415TIP3   OH261735   5.555   5.627   0.202  0.4354  0.2651  0.3791
13415TIP3    H161736   5.515   5.714   0.208 -1.2951 -0.5239  0.6790
13415TIP3    H261737   5.576   5.605   0.293  2.4460  1.0646  0.1249
13416TIP3   OH261738   2.214   0.496  12.696  0.6012  0.5817 -0.5613
13416TIP3    H161739   2.271   0.445  12.753  1.6122  2.4946  0.1648
13416TIP3    H261740   2.205   0.581  12.739  1.0035  1.9122 -2.9783
13417TIP3   OH261741   1.275   1.922   3.381 -0.4432 -0.5267 -0.4164
13417TIP3    H161742   1.225   2.002   3.364 -0.8393 -0.8194 -0.6501
13417TIP3    H261743   1.363   1.943   3.351 -0.8809 -0.6547 -1.8191
13418TIP3   OH261744   2.403   1.239  16.387 -0.3748  0.4259 -0.5533
13418TIP3    H161745   2.373   1.278  16.469  0.3299  0.3980 -0.2864
13418TIP3    H261746   2.437   1.312  16.336  0.5306  0.2235 -0.2360
13419TIP3   OH261747   5.947   4.678  12.745  0.1592 -0.2120 -0.5257
13419TIP3    H161748   5.855   4.706  12.741  1.2055  3.2021 -2.7420
13419TIP3    H261749   5.963   4.636  12.661  0.8442 -0.1812 -0.4084
13420TIP3   OH261750   5.400   1.720  16.412  0.7639 -0.7091 -0.1049
13420TIP3    H161751   5.314   1.746  16.379  1.2150  0.0192 -0.6957
13420TIP3    H261752   5.384   1.697  16.504 -0.4112 -2.3813 -0.6991
13421TIP3   OH261753   5.197   4.826  13.805  0.1801  0.2881 -0.0426
13421TIP3    H161754   5.265   4.786  13.859  0.8527  1.0714 -0.2935
13421TIP3    H261755   5.196   4.918  13.833 -1.7138  0.0039  0.9218
13422TIP3   OH261756   0.939   2.809   0.207  0.4640  0.6544  0.3481
13422TIP3    H161757   0.854   2.825   0.165  0.7760  1.5893  0.0370
13422TIP3    H261758   0.919   2.803   0.300  0.1243  1.4720  0.3341
13423TIP3   OH261759   2.905   6.746   1.983 -0.0529 -0.2512 -0.7458
13423TIP3    H161760   2.984   6.746   2.038 -0.1486 -0.7670 -0.6051
13423TIP3    H261761   2.841   6.694   2.032 -0.5346  0.2957 -0.7877
13424TIP3   OH261762   5.032   3.931   4.498  0.4221  0.0519  0.0655
13424TIP3    H161763   5.080   3.996   4.447 -0.4001  1.2095  0.7427
13424TIP3    H261764   5.015   3.860   4.436  0.6352  0.8318 -0.9036
13425TIP3   OH261765   4.807   4.766  14.030 -0.8680 -0.3377  0.7861
13425TIP3    H161766   4.806   4.675  14.000 -2.2579 -0.4064  1.0302
13425TIP3    H261767   4.755   4.814  13.965  0.8608  0.5090 -0.0146
13426TIP3   OH261768   6.446   1.763   5.637 -0.7068  0.2267 -0.0679
13426TIP3    H161769   6.401   1.843   5.610 -0.0625  0.7940  0.5006
13426TIP3    H261770   6.395   1.692   5.598 -0.1916  0.9860 -2.2046
13427TIP3   OH261771   6.073   0.639   4.824 -0.0767 -0.4432 -0.3161
13427TIP3    H161772   5.998   0.690   4.796  0.2063  0.8534  1.2136
13427TIP3    H261773   6.035   0.559   4.862 -0.4840 -1.7559 -3.3858
13428TIP3   OH261774   0.849   1.182  11.235 -0.1810 -0.0020  0.1896
13428TIP3    H161775   0.881   1.200  11.147 -1.8332  0.5664 -0.3258
13428TIP3    H261776   0.919   1.211  11.294  1.6346 -1.9162 -0.9558
13429TIP3   OH261777   5.171   2.660   0.400 -0.2329  0.2334  0.6319
13429TIP3    H161778   5.158   2.600   0.327  1.4984 -0.8648  1.1920
13429TIP3    H261779   5.207   2.739   0.360 -0.0703 -0.0546  0.2116
13430TIP3   OH261780   2.496   2.643   3.607 -0.5894 -0.4856  0.0274
13430TIP3    H161781   2.408   2.628   3.572 -0.1315 -1.0167 -0.8953
13430TIP3    H261782   2.517   2.562   3.654 -0.5675 -0.3862  0.1876
13431TIP3   OH261783   5.845   1.014   4.503  0.4402 -0.4399  0.5160
13431TIP3    H161784   5.897   1.022   4.423 -0.2157  0.0492  0.1332
13431TIP3    H261785   5.870   1.091   4.555  0.6587 -0.6071  0.6567
13432TIP3   OH261786   2.838   1.894  16.781  0.1849 -0.4007 -0.1255
13432TIP3    H161787   2.924   1.929  16.758 -0.8371  1.2052 -1.5843
13432TIP3    H261788   2.857   1.820  16.839  2.5497 -0.1917 -0.5958
13433TIP3   OH261789   5.945   5.918  16.590  0.0079  0.0157  0.4804
13433TIP3    H161790   5.946   5.888  16.499  2.1874 -2.9913  1.3955
13433TIP3    H261791   5.860   5.891  16.623 -0.8553  1.2520 -0.6702
13434TIP3   OH261792   6.716   1.410   4.120  0.4582 -0.0581  0.1314
13434TIP3    H161793   6.765   1.467   4.179 -0.4463 -1.2131  2.0878
13434TIP3    H261794   6.756   1.324   4.131  0.2109 -0.3114 -0.8933
13435TIP3   OH261795   5.866   5.964   3.951  0.4101 -0.1322  0.6256
13435TIP3    H161796   5.893   5.998   4.036  1.0974 -0.4142  0.5294
13435TIP3    H261797   5.779   5.927   3.966  0.4871 -0.0873  1.1831
13436TIP3   OH261798   5.430   5.628  16.023  0.5420  0.2401  0.7454
13436TIP3    H161799   5.416   5.634  16.117  1.9611  2.4774  0.8618
13436TIP3    H261800   5.349   5.659  15.984  0.7149  1.3570  1.2634
13437TIP3   OH261801   0.936   4.472  11.819  0.4692 -0.0095  0.1245
13437TIP3    H161802   1.019   4.463  11.772 -0.2558  0.0114 -1.1663
13437TIP3    H261803   0.885   4.535  11.768 -1.1330 -1.5273 -0.2174
13438TIP3   OH261804   3.841   1.923  13.191  0.1363  0.5620  0.3526
13438TIP3    H161805   3.906   1.923  13.261 -0.1192  1.3390  0.5931
13438TIP3    H261806   3.847   2.011  13.153  1.4762 -0.3847 -1.7208
13439TIP3   OH261807   0.722   3.624  11.260  0.6713 -0.1032  0.1865
13439TIP3    H161808   0.776   3.616  11.181 -0.9664  0.7308 -1.0557
13439TIP3    H261809   0.764   3.693  11.311  0.8032  0.5119 -0.7507
13440TIP3   OH261810   2.990   4.822   3.794 -0.0536 -0.0830  0.3679
13440TIP3    H161811   3.019   4.845   3.706 -2.0873  2.0144  0.1651
13440TIP3    H261812   3.054   4.863   3.852  0.2364  0.1431 -0.1095
13441TIP3   OH261813   2.062   5.305  14.464 -0.5472  0.2282  0.0502
13441TIP3    H161814   2.157   5.288  14.464 -0.5722  0.0863  0.4724
13441TIP3    H261815   2.029   5.256  14.539 -1.3902 -2.1676 -1.8219
13442TIP3   OH261816   2.840   6.214  14.542  0.2734  0.0754 -0.2852
13442TIP3    H161817   2.857   6.145  14.478  0.5760  1.6433 -1.9351
13442TIP3    H261818   2.860   6.295  14.496 -0.7279  1.3166  1.4011
13443TIP3   OH261819   6.121   4.267  10.987  0.2059  0.0097 -0.1505
13443TIP3    H161820   6.111   4.332  10.918  2.3383  1.6175  1.0207
13443TIP3    H261821   6.178   4.200  10.949 -1.1660 -0.6996 -1.0010
13444TIP3   OH261822   4.844   5.995   1.333  0.4679  0.1811 -0.5601
13444TIP3    H161823   4.757   5.980   1.368  1.0202 -0.0241  0.7517
13444TIP3    H261824   4.833   6.064   1.268 -0.6386  0.2506 -0.2994
13445TIP3   OH261825   6.629   6.729   0.425  0.2294 -0.1494  0.3574
13445TIP3    H161826   6.715   6.720   0.466 -0.2869 -2.0939  1.0657
13445TIP3    H261827   6.629   6.664   0.354  0.4927  2.0268 -1.7310
13446TIP3   OH261828   3.161   0.248   4.564 -0.1894  0.0909 -0.0453
13446TIP3    H161829   3.222   0.176   4.545  0.0376  0.0578  0.7895
13446TIP3    H261830   3.181   0.314   4.498 -1.3746 -1.1860 -1.7486
13447TIP3   OH261831   1.562   6.162  14.734 -0.5339 -0.0718  0.0818
13447TIP3    H161832   1.593   6.195  14.818 -1.2417  1.6074 -0.2811
13447TIP3    H261833   1.485   6.216  14.714  0.3014  0.3436 -2.1671
13448TIP3   OH261834   3.044   2.737  16.170  0.1585  0.4097  0.1711
13448TIP3    H161835   2.962   2.787  16.172  0.3375  0.7007  0.4010
13448TIP3    H261836   3.060   2.721  16.077 -1.4613 -1.8395  0.2373
13449TIP3   OH261837   6.618   3.726  14.824  0.1554  0.0642 -0.2868
13449TIP3    H161838   6.558   3.680  14.883  1.1065 -1.2545 -0.3326
13449TIP3    H261839   6.702   3.681  14.834  0.5360  0.3351 -2.0391
13450TIP3   OH261840   5.027   4.096  12.762 -0.2453  0.1545  0.4168
13450TIP3    H161841   5.036   4.125  12.853 -1.3712  0.0063  0.5814
13450TIP3    H261842   5.104   4.042  12.746  0.0422  0.3191  1.2301
13451TIP3   OH261843   2.020   6.361  13.880  1.0586  0.0566 -0.1482
13451TIP3    H161844   2.009   6.270  13.909 -1.2453  0.4481  0.2983
13451TIP3    H261845   2.067   6.403  13.952 -2.1747  0.3434  1.9167
13452TIP3   OH261846   1.531   6.273  13.760 -0.5824 -0.2256  0.2526
13452TIP3    H161847   1.603   6.236  13.709  1.6765  3.1261  0.8696
13452TIP3    H261848   1.544   6.237  13.848 -1.6886 -2.2643 -0.3900
13453TIP3   OH261849   6.211   0.664   5.413 -0.0007  0.4267  0.7223
13453TIP3    H161850   6.296   0.626   5.388  0.0344  0.5559  0.6424
13453TIP3    H261851   6.160   0.662   5.332  0.2755  1.2800  0.5238
13454TIP3   OH261852   4.003   4.735   5.323  0.1833  0.1529  0.2694
13454TIP3    H161853   4.046   4.800   5.268  1.2957 -0.6657  0.1720
13454TIP3    H261854   3.911   4.764   5.326  0.7681  2.0603  0.7225
13455TIP3   OH261855   3.594   4.908   5.861 -0.0533  0.2020  0.6534
13455TIP3    H161856   3.610   4.946   5.948 -0.1753  1.2709  0.2250
13455TIP3    H261857   3.682   4.895   5.824  0.0439 -1.4789  1.4346
13456TIP3   OH261858   2.469   3.873  15.490  0.3150 -0.0765  0.2176
13456TIP3    H161859   2.393   3.821  15.463  0.7059 -0.9357  0.7576
13456TIP3    H261860   2.451   3.894  15.582  0.8300 -0.4674  0.4088
13457TIP3   OH261861   2.941   2.945  15.521 -0.0140 -0.5150 -0.1157
13457TIP3    H161862   2.904   2.984  15.601  0.3341 -0.7503  0.1581
13457TIP3    H261863   2.886   2.868  15.505 -0.3088 -0.2658 -0.3062
13458TIP3   OH261864   2.630   4.657  12.202 -0.2325  0.1549 -0.0126
13458TIP3    H161865   2.707   4.651  12.146  0.0240  0.9588  0.2435
13458TIP3    H261866   2.567   4.708  12.150 -0.1310  0.5781  0.2761
13459TIP3   OH261867   5.934   2.391  16.872 -0.4094  0.1314 -0.5046
13459TIP3    H161868   5.921   2.336  16.950 -1.5112 -0.4002 -1.0614
13459TIP3    H261869   5.935   2.329  16.799  1.6065  0.5186 -0.8419
13460TIP3   OH261870   1.860   0.970  16.708 -0.4409 -1.0804  0.6048
13460TIP3    H161871   1.783   0.948  16.760 -0.6773 -1.2567  0.1836
13460TIP3    H261872   1.869   1.065  16.717 -0.6552 -1.0699  0.7203
13461TIP3   OH261873   2.579   3.028   2.427  0.7867  0.1579 -0.2592
13461TIP3    H161874   2.651   3.081   2.461 -1.6517  2.7854  1.0182
13461TIP3    H261875   2.510   3.091   2.406 -0.8457 -2.1982 -2.2746
13462TIP3   OH261876   4.314   3.876  12.665  0.5327  0.4826 -0.2532
13462TIP3    H161877   4.304   3.903  12.757 -1.6381 -1.3887  0.1340
13462TIP3    H261878   4.325   3.957  12.617 -1.2859  1.7496  1.3562
13463TIP3   OH261879   2.552   2.476  13.591 -0.2345  0.2475  0.2672
13463TIP3    H161880   2.512   2.393  13.564 -0.2979  0.1606  0.6189
13463TIP3    H261881   2.602   2.453  13.670  1.4518  0.1281 -0.8216
13464TIP3   OH261882   6.001   1.600   3.229 -0.1733 -0.3830 -0.3719
13464TIP3    H161883   5.968   1.526   3.281 -0.0368  0.0191  0.2892
13464TIP3    H261884   6.069   1.639   3.283  0.7696 -0.6366 -1.3335
13465TIP3   OH261885   3.517   5.372  11.316  0.3744  0.1114  0.5302
13465TIP3    H161886   3.539   5.403  11.229 -1.1834 -1.2299 -0.3751
13465TIP3    H261887   3.422   5.386  11.323  0.5424  0.5758  2.1665
13466TIP3   OH261888   1.451   4.023  15.524 -0.3263 -0.0616  0.2662
13466TIP3    H161889   1.400   4.083  15.470 -1.3976  1.6007  3.0302
13466TIP3    H261890   1.428   4.046  15.614  2.9509 -1.3758  1.5201
13467TIP3   OH261891   3.150   3.801  15.933 -0.4378 -0.2919 -0.4237
13467TIP3    H161892   3.109   3.880  15.967 -2.4731 -1.3729 -0.2801
13467TIP3    H261893   3.140   3.809  15.838  2.1187  1.0605 -0.6160
13468TIP3   OH261894   1.834   2.757   4.858 -0.0478 -0.1250 -0.4105
13468TIP3    H161895   1.773   2.819   4.898 -0.3463 -0.1675 -0.7952
13468TIP3    H261896   1.904   2.812   4.822  0.9304 -0.1781  1.3713
13469TIP3   OH261897   5.910   4.503  10.874 -0.0255 -0.1983 -0.3604
13469TIP3    H161898   5.901   4.599  10.869 -0.6799 -0.1698  1.2295
13469TIP3    H261899   5.996   4.486  10.836 -0.5661  0.8659 -2.1470
13470TIP3   OH261900   1.903   4.115  15.928  0.4341 -0.3920  0.1046
13470TIP3    H161901   1.890   4.111  15.834  1.0082  1.0536 -0.0389
13470TIP3    H261902   1.988   4.158  15.939 -1.1400  2.5308  1.3484
13471TIP3   OH261903   1.979   6.376   3.559 -0.3004 -0.0307  0.5842
13471TIP3    H161904   1.938   6.290   3.550  0.8242 -0.5894  0.7444
13471TIP3    H261905   1.906   6.435   3.578 -0.9935 -1.0854  1.2834
13472TIP3   OH261906   1.779   1.658   4.644 -0.2477 -0.0505  0.3241
13472TIP3    H161907   1.697   1.638   4.600 -0.1057 -0.4436  0.2432
13472TIP3    H261908   1.826   1.575   4.649  1.4180  0.6922 -2.2114
13473TIP3   OH261909   5.514   6.593  13.320  0.4899  0.6239 -0.1667
13473TIP3    H161910   5.595   6.626  13.360 -0.6835  0.4008  2.5184
13473TIP3    H261911   5.477   6.669  13.275  2.3480  0.6430 -1.7002
13474TIP3   OH261912   4.710   5.855  11.852  0.7383  1.0618 -0.1313
13474TIP3    H161913   4.732   5.928  11.794 -0.1008  1.2325 -0.2364
13474TIP3    H261914   4.615   5.861  11.863  0.8165  0.6477  0.7547
13475TIP3   OH261915   1.807   6.568   4.747 -0.2254 -0.0296 -0.0891
13475TIP3    H161916   1.785   6.579   4.840 -1.1190  0.1555 -0.3168
13475TIP3    H261917   1.777   6.649   4.706 -2.6861 -1.3720 -1.0467
13476TIP3   OH261918   0.934   2.273  11.680  0.0822 -0.0139 -0.0049
13476TIP3    H161919   0.907   2.215  11.751 -0.0635 -0.5003 -0.4571
13476TIP3    H261920   0.852   2.300  11.639  0.1604  0.3676  0.0872
13477TIP3   OH261921   1.874   1.104   1.435  0.7193 -0.4663  0.7035
13477TIP3    H161922   1.790   1.128   1.396  1.5242  0.3736 -0.5329
13477TIP3    H261923   1.898   1.180   1.488  0.8436 -0.5871  0.8216
13478TIP3   OH261924   4.671   0.200  15.715  0.0011  0.7597  0.0922
13478TIP3    H161925   4.603   0.136  15.691 -0.1812  1.2467 -0.6831
13478TIP3    H261926   4.742   0.146  15.751 -0.8919  0.2655  1.1601
13479TIP3   OH261927   6.202   3.839  13.236  0.2665 -0.1853  0.4200
13479TIP3    H161928   6.161   3.823  13.151  3.1426  1.1982 -1.2855
13479TIP3    H261929   6.131   3.827  13.299 -1.6663 -2.3252 -2.0602
13480TIP3   OH261930   0.539   6.510   4.625  0.1962  0.1726 -0.0290
13480TIP3    H161931   0.514   6.566   4.698  0.1326 -0.4710  0.4417
13480TIP3    H261932   0.578   6.433   4.665 -0.2304 -0.3751 -0.6509
13481TIP3   OH261933   4.004   0.044  13.474  0.8494  0.7612  0.0635
13481TIP3    H161934   3.946   0.114  13.444 -2.1018 -1.3663  0.7071
13481TIP3    H261935   4.020   0.064  13.566  0.1116  0.6227  0.2165
13482TIP3   OH261936   1.961   1.480   2.584 -0.4142  0.2441  0.0555
13482TIP3    H161937   1.894   1.501   2.519 -0.9514  0.2661  0.6173
13482TIP3    H261938   1.935   1.528   2.662 -0.3867 -0.6699  0.6297
13483TIP3   OH261939   4.297   3.313   5.681  0.0182  0.3613  0.0107
13483TIP3    H161940   4.381   3.272   5.701  0.3656  1.7415  1.4478
13483TIP3    H261941   4.239   3.283   5.751 -0.5286 -0.1007 -0.6397
13484TIP3   OH261942   5.838   1.724  11.774 -0.0899 -0.5289  0.2851
13484TIP3    H161943   5.752   1.684  11.776 -0.7988  0.9359 -0.4444
13484TIP3    H261944   5.855   1.743  11.682  0.1169  1.0623  0.6303
13485TIP3   OH261945   4.265   5.708   5.390 -0.4664 -0.2236 -0.3094
13485TIP3    H161946   4.298   5.777   5.332  1.8346  0.0600  1.2836
13485TIP3    H261947   4.174   5.696   5.363 -0.7768  3.0503 -0.9780
13486TIP3   OH261948   5.394   5.206   0.393 -0.1901 -0.3338  0.2456
13486TIP3    H161949   5.341   5.128   0.375 -0.5626 -0.0964  0.3083
13486TIP3    H261950   5.484   5.178   0.375 -0.4682 -0.3630 -1.1274
13487TIP3   OH261951   2.649   0.443   4.829  0.4647 -0.0981 -0.1453
13487TIP3    H161952   2.563   0.407   4.848  0.4578 -0.6119 -1.0835
13487TIP3    H261953   2.680   0.392   4.754  1.3046  0.5262 -0.2359
13488TIP3   OH261954   0.378   4.976  13.992 -0.7038  0.1227 -0.7422
13488TIP3    H161955   0.440   4.908  13.964  1.9348  1.5840  1.2624
13488TIP3    H261956   0.311   4.929  14.042 -0.4902 -1.3359 -1.7874
13489TIP3   OH261957   5.118   3.998  16.163 -0.4907 -0.7115  0.0522
13489TIP3    H161958   5.045   4.059  16.173 -0.0965  0.0180 -1.5522
13489TIP3    H261959   5.143   4.004  16.071  2.9121  0.5358  0.9954
13490TIP3   OH261960   5.517   0.878  16.570  0.7837  0.4950  0.0288
13490TIP3    H161961   5.543   0.831  16.649 -0.4967 -0.2331  0.0333
13490TIP3    H261962   5.451   0.941  16.601  0.2190  0.1515 -0.4778
13491TIP3   OH261963   6.236   6.338   4.418 -0.0179  0.0317 -0.2496
13491TIP3    H161964   6.296   6.411   4.405 -1.0070  0.8456 -0.2798
13491TIP3    H261965   6.280   6.281   4.481  1.6963 -0.4222 -1.8245
13492TIP3   OH261966   3.008   5.233   2.897  0.3704  0.3699  0.1661
13492TIP3    H161967   2.931   5.196   2.940  0.2586  0.9429  0.4524
13492TIP3    H261968   3.082   5.201   2.949  0.2337  1.0726  0.7828
13493TIP3   OH261969   2.496   4.497  13.977  0.2555  0.1998  0.3762
13493TIP3    H161970   2.522   4.524  14.065 -0.9241  2.7957 -0.0165
13493TIP3    H261971   2.562   4.535  13.919 -0.6023  1.0036 -0.0806
13494TIP3   OH261972   3.176   3.443  17.111 -0.6257  0.3815 -0.0215
13494TIP3    H161973   3.172   3.480  17.199 -0.0265 -1.4138  0.7889
13494TIP3    H261974   3.097   3.476  17.067 -2.3468 -0.8099  2.0503
13495TIP3   OH261975   6.476   1.508   0.820  0.5268  0.2919  0.0088
13495TIP3    H161976   6.439   1.430   0.778  2.1448  0.0610 -1.0411
13495TIP3    H261977   6.510   1.561   0.748  1.1262  1.0746  0.8520
13496TIP3   OH261978   1.311   6.075   2.401  0.0707  0.3725 -0.4012
13496TIP3    H161979   1.357   6.077   2.317  1.3475 -0.5669  0.2578
13496TIP3    H261980   1.233   6.023   2.385  0.1936  0.3854 -1.0578
13497TIP3   OH261981   0.114   3.280  12.997 -0.3072 -0.5515  0.1814
13497TIP3    H161982   0.181   3.259  13.062 -0.8673  0.5364  1.1346
13497TIP3    H261983   0.162   3.325  12.927 -0.0033  0.0413  0.7615
13498TIP3   OH261984   6.745   1.818  11.670 -0.4739 -0.2375 -0.3149
13498TIP3    H161985   6.832   1.805  11.707 -0.4917 -2.2519 -0.9393
13498TIP3    H261986   6.745   1.769  11.588 -2.2484 -0.4502 -0.2202
13499TIP3   OH261987   1.309   5.860  17.145  0.7649  0.0959  0.4163
13499TIP3    H161988   1.263   5.797  17.089  1.1974  0.7166 -0.6689
13499TIP3    H261989   1.386   5.885  17.094  3.2757 -2.2381  2.9272
13500TIP3   OH261990   5.417   1.527   5.055 -0.0803 -0.2185  1.4878
13500TIP3    H161991   5.497   1.579   5.055  0.3293 -0.7942 -1.2840
13500TIP3    H261992   5.354   1.581   5.102  0.9165  1.8987  0.4690
13501TIP3   OH261993   1.543   4.858   0.638  0.2244  0.6804  0.2226
13501TIP3    H161994   1.549   4.836   0.731 -0.8415  1.4848  0.4990
13501TIP3    H261995   1.451   4.881   0.625  0.4557  0.9692 -0.9380
13502TIP3   OH261996   2.358   1.852  11.403  0.5300  0.4914 -0.2703
13502TIP3    H161997   2.289   1.797  11.366  1.3989 -0.6473 -0.2206
13502TIP3    H261998   2.402   1.797  11.467  0.5784  1.6792  0.7342
13503TIP3   OH261999   3.825   5.789  11.441 -0.1915 -0.2539  0.5663
13503TIP3    H162000   3.762   5.857  11.422  0.3989  0.3881  0.8945
13503TIP3    H262001   3.773   5.712  11.464 -0.8566  0.0066 -0.0790
13504TIP3   OH262002   6.665   6.349  16.425 -0.3675 -0.0704 -0.2860
13504TIP3    H162003   6.570   6.353  16.433 -0.2910 -0.8510  1.1182
13504TIP3    H262004   6.698   6.405  16.495  0.2124  1.8705 -2.0340
13505TIP3   OH262005   5.754   3.539  14.683  0.0016 -0.6771  0.1178
13505TIP3    H162006   5.746   3.633  14.695  0.9031 -0.5802 -0.0119
13505TIP3    H262007   5.724   3.502  14.766  0.2523 -0.2558  0.3980
13506TIP3   OH262008   3.030   5.610   2.696 -0.3637 -0.5680  0.0681
13506TIP3    H162009   3.049   5.704   2.700  1.0670 -0.8650  0.6074
13506TIP3    H262010   3.090   5.577   2.628 -0.8278 -1.0918 -0.0883
13507TIP3   OH262011   2.421   5.767   3.758  0.3876  0.1003  0.4474
13507TIP3    H162012   2.397   5.821   3.833 -1.1318 -0.0295  0.0647
13507TIP3    H262013   2.444   5.682   3.795 -1.4489 -0.3081  0.6928
13508TIP3   OH262014   0.136   6.411  12.953 -0.1798  0.0282 -0.0990
13508TIP3    H162015   0.071   6.370  12.895 -0.4158  1.6563 -1.0083
13508TIP3    H262016   0.212   6.426  12.896  0.8383 -1.4024  0.8381
13509TIP3   OH262017   5.346   2.963  15.330  0.0161  0.0987 -0.0776
13509TIP3    H162018   5.415   3.028  15.340  1.2672 -1.2494  0.1038
13509TIP3    H262019   5.389   2.879  15.342 -1.6160 -0.7762 -0.1612
13510TIP3   OH262020   0.812   5.956  13.123  0.1089 -0.3024 -0.0060
13510TIP3    H162021   0.844   5.868  13.142  0.1247 -0.4395 -0.6376
13510TIP3    H262022   0.802   5.998  13.208 -0.9200 -1.2678  0.3638
13511TIP3   OH262023   2.323   6.516   3.769  0.3175  0.3793  0.4825
13511TIP3    H162024   2.406   6.562   3.759 -0.3844  1.6086  0.2813
13511TIP3    H262025   2.294   6.538   3.857  0.5657 -0.6723  0.8411
13512TIP3   OH262026   0.479   4.168  12.099  0.2026  0.3190  0.4654
13512TIP3    H162027   0.543   4.239  12.106  0.1771  0.2525  1.3730
13512TIP3    H262028   0.399   4.211  12.070  0.0281  0.7563  1.5779
13513TIP3   OH262029   4.759   1.357  15.814  0.2613  0.2304 -0.5533
13513TIP3    H162030   4.683   1.413  15.830  0.9530  1.5357 -1.6542
13513TIP3    H262031   4.725   1.286  15.759  0.4913  2.7216 -4.0652
13514TIP3   OH262032   1.750   4.961  13.797  0.2471  0.0455 -0.0307
13514TIP3    H162033   1.760   4.866  13.794 -0.0807  0.0121 -0.0659
13514TIP3    H262034   1.682   4.976  13.862  1.4206  0.3380  1.1374
13515TIP3   OH262035   3.316   1.094  14.426  0.3728  0.2658  0.1337
13515TIP3    H162036   3.351   1.166  14.374  0.2030 -0.6749 -1.3149
13515TIP3    H262037   3.388   1.069  14.485 -0.3376  3.1242  2.3008
13516TIP3   OH262038   5.585   4.082  13.670 -0.4285 -0.1074 -0.2116
13516TIP3    H162039   5.512   4.099  13.610 -0.6330 -0.8978 -0.1921
13516TIP3    H262040   5.543   4.043  13.747 -0.1791  0.9369  0.4717
13517TIP3   OH262041   3.369   4.151   3.736  0.5903  0.2281 -0.0342
13517TIP3    H162042   3.434   4.166   3.804 -0.5476 -0.4309  1.2234
13517TIP3    H262043   3.392   4.213   3.666  1.1617  1.6253  1.3711
13518TIP3   OH262044   3.628   5.648  12.733 -0.3168  0.2092 -0.7793
13518TIP3    H162045   3.648   5.562  12.770 -2.8590 -0.0370  0.0793
13518TIP3    H262046   3.611   5.704  12.808 -0.8526  0.9031 -1.4041
13519TIP3   OH262047   5.137   4.355   1.787  0.1554  0.0189 -0.4885
13519TIP3    H162048   5.201   4.325   1.852  2.1491  3.9598 -0.4865
13519TIP3    H262049   5.179   4.337   1.703  0.2992  0.5010 -0.5243
13520TIP3   OH262050   2.638   4.902   2.445  0.0209  0.4886  0.6576
13520TIP3    H162051   2.657   4.989   2.480 -0.1599  0.8693 -0.1823
13520TIP3    H262052   2.546   4.887   2.464  0.1989  0.2320  1.3292
13521TIP3   OH262053   1.969   4.116   5.220  0.1860 -0.0141  0.3915
13521TIP3    H162054   1.905   4.185   5.234  1.0623  0.6236  1.2690
13521TIP3    H262055   2.045   4.141   5.273  1.4956 -0.3170 -1.2832
13522TIP3   OH262056   1.961   2.929  16.670 -0.4644 -0.2353 -0.0141
13522TIP3    H162057   1.979   2.860  16.734  1.3290  1.0548  0.9169
13522TIP3    H262058   2.036   2.927  16.611 -0.1545  1.2316  0.3083
13523TIP3   OH262059   6.060   2.800  14.164  0.2727  0.1204 -0.4031
13523TIP3    H162060   6.007   2.724  14.141 -0.4427 -0.0838  1.7644
13523TIP3    H262061   6.119   2.812  14.090 -0.2665 -1.9507 -1.2010
13524TIP3   OH262062   6.473   1.111  13.943 -0.2450  0.0103 -0.1113
13524TIP3    H162063   6.446   1.173  14.011  0.4829  0.2983 -0.0881
13524TIP3    H262064   6.453   1.025  13.980  0.8290  0.1294  0.7791
13525TIP3   OH262065   6.352   0.789  14.491 -0.3690  0.3244  0.2298
13525TIP3    H162066   6.310   0.869  14.460  0.2189  0.3723 -0.4345
13525TIP3    H262067   6.350   0.730  14.415  0.7667  0.3255  0.1968
13526TIP3   OH262068   1.615   4.377  13.813  0.2137  0.3801 -0.2710
13526TIP3    H162069   1.647   4.425  13.890 -0.5919  1.0261 -0.3339
13526TIP3    H262070   1.640   4.431  13.739  0.3290  0.1218 -0.4220
13527TIP3   OH262071   5.793   2.543   2.415  0.2570 -0.1190 -0.7690
13527TIP3    H162072   5.866   2.495   2.376 -0.3255 -1.2176 -0.5419
13527TIP3    H262073   5.834   2.602   2.478  0.9978 -0.2861 -1.0960
13528TIP3   OH262074   1.099   4.652  14.563 -0.0927  0.0622 -0.6633
13528TIP3    H162075   1.161   4.603  14.616 -0.0243  1.0246  0.1615
13528TIP3    H262076   1.038   4.586  14.530  0.3443 -0.6551 -0.0508
13529TIP3   OH262077   5.720   6.005  15.340 -0.1506 -0.5834 -0.6516
13529TIP3    H162078   5.742   5.912  15.353 -0.7757 -0.5558  0.5839
13529TIP3    H262079   5.642   6.003  15.285 -0.5947 -0.8128 -0.0224
13530TIP3   OH262080   1.090   0.782   2.184 -0.2997  0.4525 -0.1206
13530TIP3    H162081   1.037   0.836   2.125 -1.4060  1.3416  1.6481
13530TIP3    H262082   1.092   0.696   2.142  1.5348  1.8149 -2.9993
13531TIP3   OH262083   5.071   2.913  12.646 -0.2742 -0.2151 -0.2566
13531TIP3    H162084   4.994   2.873  12.685 -1.0801  1.7138  0.1987
13531TIP3    H262085   5.072   3.002  12.680  2.3849 -0.3207  0.0503
13532TIP3   OH262086   3.578   3.335  13.239 -0.2810 -0.0025 -0.0469
13532TIP3    H162087   3.588   3.353  13.145  0.9123  0.9965  0.2551
13532TIP3    H262088   3.564   3.421  13.278  0.1282 -0.3188  0.7951
13533TIP3   OH262089   2.197   0.692   4.350  0.5748 -0.6782 -0.1841
13533TIP3    H162090   2.207   0.780   4.386  1.6649 -1.8532  2.5529
13533TIP3    H262091   2.275   0.678   4.297  1.2768 -0.6216  0.8204
13534TIP3   OH262092   2.376   0.744   3.710 -0.2117  0.4877  0.3649
13534TIP3    H162093   2.423   0.692   3.775 -0.3338  0.1755  0.2020
13534TIP3    H262094   2.427   0.735   3.630  0.5341  1.7465  0.6824
13535TIP3   OH262095   3.280   1.032   5.742 -0.2626  0.4266  0.3010
13535TIP3    H162096   3.273   1.111   5.689 -0.6765  0.6292  0.6533
13535TIP3    H262097   3.357   1.046   5.797 -0.9989  1.0831  1.1809
13536TIP3   OH262098   3.867   3.149  15.060  0.0882 -0.0145  0.1966
13536TIP3    H162099   3.774   3.172  15.058  0.2650  0.6813 -0.1813
13536TIP3    H262100   3.873   3.082  15.129 -0.3596  1.4198  1.6649
13537TIP3   OH262101   4.883   6.067  15.349  0.4034  0.0496  0.1695
13537TIP3    H162102   4.911   5.999  15.287 -1.6698 -0.6564 -0.0157
13537TIP3    H262103   4.884   6.147  15.298  1.4012 -0.0787 -0.0203
13538TIP3   OH262104   2.925   1.823  17.147 -0.4339 -0.3550 -0.0060
13538TIP3    H162105   2.982   1.768  17.093  0.0116 -0.8546  0.9481
13538TIP3    H262106   2.911   1.772  17.227 -0.8728  0.4781  0.4614
13539TIP3   OH262107   5.442   4.583  15.988  0.1158  0.6526 -0.1564
13539TIP3    H162108   5.397   4.576  15.904  0.2408 -0.6098 -0.1383
13539TIP3    H262109   5.450   4.492  16.018  2.0954  0.8923  0.1383
13540TIP3   OH262110   2.674   5.061  11.963  0.0496 -1.0302 -0.1038
13540TIP3    H162111   2.667   4.966  11.953 -0.7165 -0.8691 -1.1608
13540TIP3    H262112   2.627   5.080  12.045 -1.0346 -1.4054 -0.6306
13541TIP3   OH262113   4.511   2.079  13.177  0.3984 -0.3659  0.3614
13541TIP3    H162114   4.550   2.166  13.188  0.8075 -0.5926  0.7241
13541TIP3    H262115   4.422   2.088  13.210  1.1924 -0.6981  2.6893
13542TIP3   OH262116   3.216   1.245  16.252 -0.4273  0.4229  0.0130
13542TIP3    H162117   3.147   1.246  16.186 -0.1212  0.0468 -0.3141
13542TIP3    H262118   3.192   1.316  16.312 -1.1889  0.1907 -0.0031
13543TIP3   OH262119   1.472   3.777   1.164 -0.0427  0.1866  0.2684
13543TIP3    H162120   1.465   3.854   1.107  0.7541  0.8124  0.9899
13543TIP3    H262121   1.564   3.775   1.190 -0.3345 -0.2391  1.3069
13544TIP3   OH262122   0.856   2.875  16.072  0.2568 -0.0999  0.1619
13544TIP3    H162123   0.939   2.849  16.114 -0.0419 -0.7637  0.3608
13544TIP3    H262124   0.881   2.900  15.983  0.6865 -0.2375  0.2417
13545TIP3   OH262125   3.254   0.716  16.362  0.4708 -0.3647  0.4633
13545TIP3    H162126   3.174   0.767  16.347 -0.4821 -1.5259  1.4445
13545TIP3    H262127   3.286   0.747  16.447  1.9328  1.1843 -0.6235
13546TIP3   OH262128   5.013   5.586  17.059  0.2672 -0.4403 -0.1752
13546TIP3    H162129   5.054   5.559  17.141 -0.3421  0.3141  0.3831
13546TIP3    H262130   4.980   5.505  17.021  1.6252 -0.9572 -0.2766
13547TIP3   OH262131   0.505   6.044  11.616 -0.0335 -0.5097  0.8143
13547TIP3    H162132   0.458   6.105  11.673 -0.3248 -0.1511  0.1889
13547TIP3    H262133   0.443   6.025  11.545  0.1562 -1.3159  0.8627
13548TIP3   OH262134   0.470   2.676  14.287 -0.5599  0.2377  0.7283
13548TIP3    H162135   0.507   2.605  14.234  0.2523  0.4518  0.9958
13548TIP3    H262136   0.497   2.756  14.241  1.2138  0.4698  2.1200
13549TIP3   OH262137   3.286   2.532  16.091  0.6966 -0.8471 -0.6470
13549TIP3    H162138   3.206   2.551  16.042  0.0650 -2.1624 -0.1644
13549TIP3    H262139   3.266   2.450  16.137  1.4621  0.0766  1.3729
13550TIP3   OH262140   1.878   3.881  14.644  0.3130 -0.2612 -0.2633
13550TIP3    H162141   1.970   3.856  14.635  0.9749  2.7774 -2.4287
13550TIP3    H262142   1.858   3.865  14.737  2.4576 -2.6212 -0.1519
13551TIP3   OH262143   3.979   0.102   1.668 -0.8637  0.0105  0.0876
13551TIP3    H162144   4.012   0.104   1.758  2.0761  0.0959 -0.9277
13551TIP3    H262145   3.940   0.016   1.659  0.2620 -0.6135  0.9920
13552TIP3   OH262146   4.700   5.756  16.419  0.3683 -0.1357  0.3315
13552TIP3    H162147   4.642   5.709  16.478  1.3337  0.1344  1.5073
13552TIP3    H262148   4.785   5.712  16.427  0.5964  0.1105 -0.5965
13553TIP3   OH262149   3.905   4.586  16.943 -0.3999 -0.3245 -0.9710
13553TIP3    H162150   3.812   4.590  16.923 -0.6024  0.6708  0.1316
13553TIP3    H262151   3.910   4.540  17.026 -0.0698  1.2488 -0.0893
13554TIP3   OH262152   5.204   5.126  12.574  0.2323 -0.1391 -0.3065
13554TIP3    H162153   5.262   5.054  12.547 -0.5112 -0.6293 -0.6021
13554TIP3    H262154   5.256   5.176  12.637  1.4759  0.2041 -1.5628
13555TIP3   OH262155   2.490   4.798   2.826 -0.4910  0.5402  0.3225
13555TIP3    H162156   2.403   4.785   2.788  0.1815  1.5110 -1.6682
13555TIP3    H262157   2.540   4.723   2.796 -0.2681  0.7231  0.2346
13556TIP3   OH262158   4.699   3.223  16.396 -0.0855  0.2158  0.1346
13556TIP3    H162159   4.630   3.221  16.462 -1.2005 -0.6512 -1.0288
13556TIP3    H262160   4.683   3.144  16.343  1.5618  0.2137 -0.3752
13557TIP3   OH262161   2.410   3.695   1.635 -0.2494  0.3072 -0.2014
13557TIP3    H162162   2.485   3.646   1.669 -1.1450 -1.1737 -0.3540
13557TIP3    H262163   2.414   3.779   1.681  1.0633 -0.0463  0.3473
13558TIP3   OH262164   4.938   0.293  12.801  0.1097  0.0561  0.7606
13558TIP3    H162165   4.855   0.262  12.764  0.2978 -0.1781  0.5314
13558TIP3    H262166   4.918   0.380  12.835  0.3498  1.0450 -1.4992
13559TIP3   OH262167   5.646   3.069   4.546  0.5638 -0.7461  0.4743
13559TIP3    H162168   5.694   3.000   4.592 -0.1267 -1.3775  0.2615
13559TIP3    H262169   5.596   3.023   4.478  0.9280  0.0827 -0.3717
13560TIP3   OH262170   1.358   3.902   1.992  0.1915  0.1415  0.1295
13560TIP3    H162171   1.416   3.947   2.055  1.4141 -2.0212  0.5982
13560TIP3    H262172   1.413   3.833   1.954 -1.5009 -0.6384 -0.9517
13561TIP3   OH262173   0.367   6.201  16.002  0.7300  0.3761  1.2689
13561TIP3    H162174   0.273   6.212  15.985  0.6152  0.3335  1.8562
13561TIP3    H262175   0.400   6.290  16.009  0.9692  0.4061 -0.1773
13562TIP3   OH262176   2.036   0.477   6.800  0.3446 -0.3488 -0.1253
13562TIP3    H162177   1.983   0.408   6.761 -0.4214  0.4160 -0.4577
13562TIP3    H262178   1.975   0.523   6.859  1.5213 -1.6184  2.1453
13563TIP3   OH262179   6.115   1.795  11.837 -0.3272 -0.1043 -0.0930
13563TIP3    H162180   6.027   1.815  11.805 -0.0868  0.8077 -0.2022
13563TIP3    H262181   6.101   1.766  11.928 -0.6131  1.4230  0.3630
13564TIP3   OH262182   6.113   0.433  13.173 -0.1908 -0.1920  0.6782
13564TIP3    H162183   6.071   0.502  13.122 -0.2868 -1.0627 -0.4427
13564TIP3    H262184   6.207   0.446  13.158 -0.2538 -1.0898 -0.6056
13565TIP3   OH262185   2.860   6.175  13.629 -0.1229  0.7727  0.9925
13565TIP3    H162186   2.810   6.129  13.696 -1.9185  2.3325  0.7262
13565TIP3    H262187   2.825   6.142  13.546 -0.9844  2.1331  0.8030
13566TIP3   OH262188   3.100   2.685   3.372  0.1343  0.3149  0.2950
13566TIP3    H162189   3.188   2.696   3.336 -0.3448 -0.2938 -1.1076
13566TIP3    H262190   3.045   2.746   3.323 -0.4573 -0.2286  0.2600
13567TIP3   OH262191   4.120   6.028   5.744  0.4507  0.0175 -0.3760
13567TIP3    H162192   4.136   5.947   5.696  0.5168 -0.0339 -0.2662
13567TIP3    H262193   4.024   6.035   5.749  0.3964  1.1255 -2.4010
13568TIP3   OH262194   0.561   3.515   1.805  0.1424  0.4109 -0.3537
13568TIP3    H162195   0.591   3.499   1.894 -1.5918 -0.1835  0.1381
13568TIP3    H262196   0.474   3.477   1.801 -1.0398  3.1085 -1.3985
13569TIP3   OH262197   6.655   5.389   2.338 -0.6340 -0.2708 -0.2167
13569TIP3    H162198   6.711   5.326   2.384 -1.2442 -0.3778  0.3918
13569TIP3    H262199   6.635   5.347   2.255 -0.5525 -0.6219 -0.0602
13570TIP3   OH262200   1.541   4.015   2.585  0.3994 -0.8179 -0.8227
13570TIP3    H162201   1.473   4.078   2.563 -0.8074 -2.3262 -1.4826
13570TIP3    H262202   1.515   3.980   2.670  0.6835 -0.9557 -0.7891
13571TIP3   OH262203   0.695   2.793  12.961  0.8088  0.3564  0.3074
13571TIP3    H162204   0.703   2.834  13.048 -0.6270  1.2528  0.0463
13571TIP3    H262205   0.772   2.822  12.913  0.7132  1.3331  0.7182
13572TIP3   OH262206   0.707   3.929  14.566 -0.4650  0.2038  0.1378
13572TIP3    H162207   0.680   3.853  14.616 -0.5161  0.8865  1.1591
13572TIP3    H262208   0.642   3.936  14.495 -1.3742  0.2172  0.9653
13573TIP3   OH262209   1.093   4.786   5.081 -0.6445  0.9042  0.0866
13573TIP3    H162210   1.017   4.840   5.055 -0.4861  1.9016  1.6458
13573TIP3    H262211   1.055   4.702   5.105 -1.1615  1.0868 -0.0745
13574TIP3   OH262212   3.134   0.761  14.955 -0.2331 -0.8110 -0.3152
13574TIP3    H162213   3.067   0.785  15.018 -0.3187  0.8058 -0.9942
13574TIP3    H262214   3.198   0.710  15.005 -0.7716 -0.3382  0.8570
13575TIP3   OH262215   5.817   5.140   0.024  0.2117 -0.1376  0.0421
13575TIP3    H162216   5.774   5.226   0.018  0.4109 -0.0350  0.0739
13575TIP3    H262217   5.871   5.146   0.103 -0.0957 -0.4388  0.2777
13576TIP3   OH262218   0.970   0.041  14.667  0.8262 -0.0935  0.4859
13576TIP3    H162219   0.895  -0.019  14.668 -0.2531  1.2484  1.3599
13576TIP3    H262220   0.981   0.064  14.575 -0.0123 -0.0694  0.3898
13577TIP3   OH262221   5.061   0.527  10.829  0.1581  0.1640 -0.0489
13577TIP3    H162222   5.128   0.586  10.861 -0.0469  1.0623 -1.2424
13577TIP3    H262223   5.074   0.525  10.734 -2.0406  1.0235 -0.3921
13578TIP3   OH262224   2.048   1.860  12.229 -0.2489  0.5184  0.2041
13578TIP3    H162225   2.035   1.776  12.273 -0.2848  0.1528 -0.4987
13578TIP3    H262226   2.143   1.868  12.222 -0.2647  0.1899 -0.3883
13579TIP3   OH262227   3.475   4.492  15.139  0.3849  0.0614  0.3148
13579TIP3    H162228   3.533   4.549  15.088  0.5863 -1.1896 -0.8879
13579TIP3    H262229   3.516   4.486  15.225  0.5679  1.4107  0.3236
13580TIP3   OH262230   6.426   4.315  13.454 -0.3199 -0.2291  0.2925
13580TIP3    H162231   6.468   4.359  13.527  0.9547 -0.1752 -0.4703
13580TIP3    H262232   6.352   4.372  13.431  0.4707  0.7947  0.2329
13581TIP3   OH262233   0.605   3.651   0.365 -0.2841 -0.6825  0.1457
13581TIP3    H162234   0.582   3.731   0.319  1.0359 -0.3425  0.0546
13581TIP3    H262235   0.666   3.606   0.306 -1.5792 -2.1147 -0.1357
13582TIP3   OH262236   5.351   4.900  14.119  0.0345 -0.4786 -0.1889
13582TIP3    H162237   5.422   4.861  14.067  1.5861  0.0244  1.4880
13582TIP3    H262238   5.302   4.825  14.152  1.1704 -0.9307  0.5066
13583TIP3   OH262239   3.869   3.556  17.214  0.3846 -0.6921 -0.4271
13583TIP3    H162240   3.894   3.527  17.301  0.5367 -0.6845 -0.4665
13583TIP3    H262241   3.844   3.476  17.168 -1.5011 -0.5086  0.2016
13584TIP3   OH262242   6.430   6.599  16.219  0.2715  0.8249 -0.5899
13584TIP3    H162243   6.443   6.599  16.124 -0.3377 -0.7891 -0.6874
13584TIP3    H262244   6.363   6.666  16.234  0.8634  1.5723 -1.2161
13585TIP3   OH262245   4.421   1.228  13.034 -0.5732 -0.0666 -0.3854
13585TIP3    H162246   4.443   1.181  13.115  1.3105  0.0762 -0.7931
13585TIP3    H262247   4.495   1.288  13.021 -1.5446  0.9139 -1.4624
13586TIP3   OH262248   3.799   6.455   0.780  0.0475  0.5324  0.0682
13586TIP3    H162249   3.705   6.442   0.779 -0.3469  2.7523  2.5462
13586TIP3    H262250   3.817   6.504   0.699 -0.5630 -1.7654 -1.5025
13587TIP3   OH262251   2.334   2.295   1.387 -0.3536  0.1976  0.5267
13587TIP3    H162252   2.333   2.289   1.482 -0.6414 -0.3141  0.4965
13587TIP3    H262253   2.426   2.303   1.364 -0.1853 -0.8521  0.7868
13588TIP3   OH262254   0.191   6.169  12.054 -0.3308 -0.0669  0.6713
13588TIP3    H162255   0.151   6.095  12.007  0.7257 -0.8619  1.0156
13588TIP3    H262256   0.128   6.240  12.043 -0.8257 -0.6778 -0.6648
13589TIP3   OH262257   3.753   3.835  11.863  0.0292 -0.2367  0.0032
13589TIP3    H162258   3.753   3.795  11.776  0.4456  1.1375 -0.6434
13589TIP3    H262259   3.785   3.766  11.921 -0.7046 -1.3097 -0.8646
13590TIP3   OH262260   4.826   6.146  11.104 -0.0860 -0.2168  0.1394
13590TIP3    H162261   4.888   6.150  11.177 -0.0659 -3.4187  0.3611
13590TIP3    H262262   4.880   6.123  11.028 -0.8045 -1.7152  0.0805
13591TIP3   OH262263   6.084   2.403  11.921 -0.3337 -0.2336 -0.1717
13591TIP3    H162264   6.029   2.330  11.947 -0.1851 -0.2880 -0.0121
13591TIP3    H262265   6.155   2.404  11.984 -0.0429 -0.2873 -0.4939
13592TIP3   OH262266   2.860   0.300   2.292  0.1935  0.5945  0.3362
13592TIP3    H162267   2.858   0.278   2.199 -1.9995  3.0381 -0.2379
13592TIP3    H262268   2.947   0.338   2.305 -0.0454  1.6593 -1.0575
13593TIP3   OH262269   3.181   6.523   5.408  0.0560 -0.1286 -0.0493
13593TIP3    H162270   3.101   6.484   5.444 -0.9424  1.3478 -0.6244
13593TIP3    H262271   3.182   6.612   5.441  1.2338  0.0062 -0.4202
13594TIP3   OH262272   4.664   2.564  11.613 -0.2457  0.7140 -0.7994
13594TIP3    H162273   4.754   2.566  11.580 -0.1771  0.3360 -0.6347
13594TIP3    H262274   4.642   2.471  11.618  0.1492  0.7171  1.3604
13595TIP3   OH262275   3.663   4.820   6.544 -0.0900 -0.0892 -0.0849
13595TIP3    H162276   3.744   4.785   6.582  1.4838  1.1984 -2.1393
13595TIP3    H262277   3.624   4.870   6.615  0.1815 -1.8384  1.3577
13596TIP3   OH262278   1.761   0.340   0.877  0.3850 -0.1891 -0.1778
13596TIP3    H162279   1.720   0.327   0.962 -0.1182  1.4123 -0.1592
13596TIP3    H262280   1.688   0.359   0.818  0.9949  1.5842 -0.3676
13597TIP3   OH262281   5.618   1.831  12.624  0.1899  0.2452 -0.0695
13597TIP3    H162282   5.675   1.755  12.630 -0.2962 -0.2455 -1.4550
13597TIP3    H262283   5.673   1.900  12.585  0.1526  0.0894 -0.4033
13598TIP3   OH262284   0.384   1.546   1.096 -0.0038 -1.0807 -0.8232
13598TIP3    H162285   0.448   1.615   1.111  0.5578 -1.9502  0.9353
13598TIP3    H262286   0.308   1.591   1.058 -0.3686  0.8621  2.0293
13599TIP3   OH262287   4.455   5.330   0.516 -0.4213  0.2878  0.0311
13599TIP3    H162288   4.414   5.332   0.430 -0.0123 -2.7859 -0.3007
13599TIP3    H262289   4.389   5.291   0.574  0.4658 -0.6957  0.4003
13600TIP3   OH262290   4.369   4.642  13.672  0.1329  0.5299  0.3332
13600TIP3    H162291   4.360   4.575  13.604 -0.1977 -0.3782  1.2488
13600TIP3    H262292   4.453   4.622  13.714  0.5148  1.3184 -0.0621
13601TIP3   OH262293   3.852   0.255   3.806 -0.2698 -0.0984  0.1912
13601TIP3    H162294   3.844   0.160   3.808 -1.8364  0.0064  0.0452
13601TIP3    H262295   3.803   0.282   3.728  1.0251  0.7590 -0.3353
13602TIP3   OH262296   3.391   3.256  11.885 -0.6153  0.1798  0.3279
13602TIP3    H162297   3.334   3.240  11.960 -0.2131 -3.7436 -0.1026
13602TIP3    H262298   3.449   3.180  11.882  1.2433  1.6077 -2.3298
13603TIP3   OH262299   2.578   3.258  14.309 -0.3462  0.3154 -0.0488
13603TIP3    H162300   2.621   3.219  14.233  1.2169  1.0124  0.4720
13603TIP3    H262301   2.499   3.205  14.321  0.4535 -1.0906 -0.8878
13604TIP3   OH262302   3.899   6.526   1.086 -0.2446 -0.3231 -0.1663
13604TIP3    H162303   3.886   6.610   1.040  1.2929 -0.6404 -1.2073
13604TIP3    H262304   3.956   6.476   1.028 -0.3474 -1.7220  0.9309
13605TIP3   OH262305   4.949   4.847   5.120  0.5932  0.6005 -0.1906
13605TIP3    H162306   4.865   4.802   5.119  1.3133 -0.8403  1.4798
13605TIP3    H262307   4.934   4.928   5.070 -1.7359  0.3337  0.0424
13606TIP3   OH262308   1.832   5.230  12.019  0.1403  0.3726  0.4416
13606TIP3    H162309   1.912   5.188  11.989 -0.0322  0.4699 -0.1496
13606TIP3    H262310   1.765   5.162  12.015 -0.4522  1.0391 -1.8432
13607TIP3   OH262311   0.695   1.746  11.887 -0.6151 -0.2523 -0.0913
13607TIP3    H162312   0.785   1.761  11.917 -0.1302 -1.5973 -0.8516
13607TIP3    H262313   0.651   1.710  11.964 -1.1670  2.6287  1.0249
13608TIP3   OH262314   2.351   0.989  15.104 -0.3453 -0.1655  0.1600
13608TIP3    H162315   2.444   0.987  15.084 -0.3741  0.3513 -0.0412
13608TIP3    H262316   2.309   1.009  15.020 -0.5180  1.3456  0.5818
13609TIP3   OH262317   5.346   6.471  12.053 -0.0205 -0.0395  0.0607
13609TIP3    H162318   5.317   6.484  11.963  1.7396  0.5259 -0.4469
13609TIP3    H262319   5.338   6.377  12.068 -2.0199  0.0896 -0.0676
13610TIP3   OH262320   2.372   4.235   0.059 -0.1397  0.3506 -0.3231
13610TIP3    H162321   2.302   4.260  -0.000  0.3340  1.0517 -0.5973
13610TIP3    H262322   2.449   4.284   0.028  0.3476 -0.0277  0.2648
13611TIP3   OH262323   0.794   4.010  13.787 -0.6625  0.6421 -0.5780
13611TIP3    H162324   0.776   4.096  13.748 -0.6868  0.9596  0.1179
13611TIP3    H262325   0.761   4.018  13.876 -2.8468 -0.8632 -1.2034
13612TIP3   OH262326   0.740   2.214   6.731  0.0594  0.2631 -0.3829
13612TIP3    H162327   0.708   2.193   6.643 -0.3352 -2.2316  0.3105
13612TIP3    H262328   0.813   2.153   6.745 -0.4865 -0.0114  1.3601
13613TIP3   OH262329   3.042   4.818   3.042 -0.1190  0.2961  0.2149
13613TIP3    H162330   3.097   4.743   3.065 -1.0987 -0.4560  0.1333
13613TIP3    H262331   3.001   4.793   2.959 -0.6096  0.8354  0.2921
13614TIP3   OH262332   0.395   4.057  15.548  0.2727 -0.8017 -0.2377
13614TIP3    H162333   0.439   4.097  15.623 -0.4740  2.3126 -1.3801
13614TIP3    H262334   0.465   4.014  15.499  1.3201  0.1029  0.4309
13615TIP3   OH262335   2.986   0.999  12.916 -0.7144 -0.4750 -0.6977
13615TIP3    H162336   2.949   1.085  12.899 -0.7358 -0.5403 -0.9715
13615TIP3    H262337   2.919   0.954  12.967 -1.1806 -0.7336 -1.5301
13616TIP3   OH262338   5.713   5.294  12.564  0.2645  0.2784  0.1657
13616TIP3    H162339   5.673   5.218  12.606 -0.8511  0.4955 -0.4794
13616TIP3    H262340   5.689   5.368  12.620 -1.2637  0.5742 -0.8565
13617TIP3   OH262341   3.814   6.085  15.293 -0.1064  0.0275  0.0918
13617TIP3    H162342   3.746   6.152  15.299  0.5880  0.7027  0.4964
13617TIP3    H262343   3.768   6.008  15.260 -0.8764  0.7520 -0.5576
13618TIP3   OH262344   2.750   5.257  14.292  0.1433 -0.2544 -0.8590
13618TIP3    H162345   2.696   5.283  14.218 -1.8353 -1.0202  0.3013
13618TIP3    H262346   2.736   5.163  14.302  0.2858 -0.1448  0.5758
13619TIP3   OH262347   0.464   3.060  10.731 -0.1260 -0.0339  0.1263
13619TIP3    H162348   0.479   2.996  10.661 -0.8474  1.9474 -1.9189
13619TIP3    H262349   0.371   3.055  10.749 -0.3581  1.0284 -0.6884
13620TIP3   OH262350   6.011   4.227   4.352  0.1916  0.4526  0.1273
13620TIP3    H162351   5.983   4.191   4.268 -1.6915  0.7353  0.6192
13620TIP3    H262352   5.984   4.319   4.349  0.2457  0.5004  0.9679
13621TIP3   OH262353   3.621   2.799   2.408 -0.7749  0.6321  0.8190
13621TIP3    H162354   3.554   2.829   2.346 -0.4954 -1.2585 -0.4383
13621TIP3    H262355   3.704   2.830   2.370 -0.3061 -3.1158 -1.4556
13622TIP3   OH262356   6.352   5.818   1.689  0.3212 -0.3072  0.6562
13622TIP3    H162357   6.285   5.884   1.708 -0.3221 -0.9407  0.6245
13622TIP3    H262358   6.434   5.867   1.686 -0.3075  0.6941 -0.6451
13623TIP3   OH262359   6.681   1.554  14.597  0.2366  0.1166  0.4038
13623TIP3    H162360   6.713   1.528  14.684  1.6497 -0.0447 -0.1566
13623TIP3    H262361   6.624   1.629  14.615 -0.5258 -0.7265  1.5982
13624TIP3   OH262362   4.160   6.063   3.826  0.3804  0.0881 -0.1326
13624TIP3    H162363   4.097   6.130   3.853 -1.1341 -1.5932  0.5971
13624TIP3    H262364   4.200   6.098   3.746 -1.2044  1.3418 -0.3996
13625TIP3   OH262365   3.297   0.917   1.640 -0.5692 -0.7873 -0.0401
13625TIP3    H162366   3.342   0.848   1.689 -0.9554 -1.1861 -0.2415
13625TIP3    H262367   3.291   0.990   1.702 -2.3602 -1.7969  1.0006
13626TIP3   OH262368   4.609   6.213   4.473 -0.0805 -0.0172  0.4330
13626TIP3    H162369   4.530   6.232   4.524 -0.9659  0.7109 -1.1630
13626TIP3    H262370   4.680   6.211   4.537 -1.0573  1.6449  1.5878
13627TIP3   OH262371   0.324   1.534   3.613  0.4433 -0.0502  0.6717
13627TIP3    H162372   0.344   1.440   3.618  0.1972 -0.0911  0.8789
13627TIP3    H262373   0.392   1.576   3.666  0.9502 -0.0541  0.0368
13628TIP3   OH262374   3.811   0.243  15.437  0.4648  0.4385  0.2722
13628TIP3    H162375   3.792   0.230  15.344 -0.6654 -2.4789  0.8754
13628TIP3    H262376   3.871   0.318  15.439  0.5033  0.5373 -2.7833
13629TIP3   OH262377   1.535   3.983   6.448  0.3622  0.2089 -0.1164
13629TIP3    H162378   1.483   4.052   6.489 -0.2768  0.1789 -0.8555
13629TIP3    H262379   1.563   3.928   6.521 -2.1475 -0.7781  0.1612
13630TIP3   OH262380   4.654   1.910  12.740 -0.0505 -1.1792 -0.7536
13630TIP3    H162381   4.647   1.922  12.645 -0.1650 -2.0917 -0.8658
13630TIP3    H262382   4.611   1.826  12.757  1.7297 -1.9774 -0.1411
13631TIP3   OH262383   5.270   3.142   5.448 -0.3318 -0.3914 -0.0906
13631TIP3    H162384   5.195   3.202   5.450 -0.2063 -0.2537  0.6679
13631TIP3    H262385   5.345   3.198   5.428 -0.3511 -0.4452 -0.3155
13632TIP3   OH262386   5.544   1.363  14.427  0.1278 -0.0601  0.1723
13632TIP3    H162387   5.505   1.423  14.490  1.2054  1.7760 -0.8627
13632TIP3    H262388   5.494   1.376  14.346  0.4874 -0.4005 -0.1118
13633TIP3   OH262389   6.442   1.313  13.004  0.5008  0.6686 -0.4694
13633TIP3    H162390   6.523   1.318  13.054  0.9108  0.9994 -1.1575
13633TIP3    H262391   6.383   1.262  13.059  1.6086 -0.7253 -0.5439
13634TIP3   OH262392   2.015   0.143  15.436  0.4836  0.2145 -0.0751
13634TIP3    H162393   2.027   0.091  15.356  2.9607  0.3217  0.2153
13634TIP3    H262394   1.947   0.095  15.485 -1.0293  0.1259 -2.1823
13635TIP3   OH262395   0.185   6.608  10.975  0.7222 -0.0822  0.3510
13635TIP3    H162396   0.201   6.514  10.965 -0.2851 -0.2099 -0.0968
13635TIP3    H262397   0.138   6.633  10.896 -0.9356  0.3522  1.4432
13636TIP3   OH262398   2.313   1.885  13.142 -0.6805 -0.2113 -0.2275
13636TIP3    H162399   2.355   1.927  13.217 -0.6409 -1.2596  0.3535
13636TIP3    H262400   2.364   1.915  13.066 -1.6229  1.9935 -0.0108
13637TIP3   OH262401   0.780   5.133  11.950 -0.2930 -0.1106 -0.0146
13637TIP3    H162402   0.793   5.129  12.044  0.2248  0.5766 -0.0520
13637TIP3    H262403   0.755   5.224  11.933  5.4867  1.4417 -1.2381
13638TIP3   OH262404   4.441   0.913   5.321 -0.3415  0.3087 -0.5880
13638TIP3    H162405   4.444   0.841   5.383 -0.5017  2.4495  2.0090
13638TIP3    H262406   4.533   0.932   5.302 -0.2367  0.6549  0.2393
13639TIP3   OH262407   0.000   5.731   1.742 -0.3701 -0.8191 -0.0857
13639TIP3    H162408  -0.022   5.760   1.830 -2.7797  0.1955 -1.0036
13639TIP3    H262409  -0.002   5.635   1.747 -0.9346 -0.7628  0.8373
13640TIP3   OH262410   6.427   4.240  11.329  0.5801 -0.4260  0.1537
13640TIP3    H162411   6.353   4.298  11.343  0.1009 -1.4545  2.0005
13640TIP3    H262412   6.423   4.217  11.236  0.1748  1.6404 -0.3599
13641TIP3   OH262413   3.445   2.781   5.785  0.2083 -0.0113  0.4868
13641TIP3    H162414   3.420   2.709   5.843 -1.3927  0.1077 -0.0400
13641TIP3    H262415   3.372   2.843   5.791  0.6528  0.6370 -0.6139
13642TIP3   OH262416   0.005   5.209   2.472  0.0524  0.7993 -0.5468
13642TIP3    H162417   0.071   5.234   2.538 -1.7158  2.6628  0.5731
13642TIP3    H262418   0.056   5.194   2.392  2.0702  0.0373  0.8193
13643TIP3   OH262419   5.113   1.215   4.648  0.4399  0.2934 -0.7511
13643TIP3    H162420   5.193   1.256   4.681 -0.1014  1.3093 -0.6732
13643TIP3    H262421   5.044   1.247   4.706  0.0603 -1.0498 -0.4507
13644TIP3   OH262422   4.956   4.738   5.405  0.1288  0.2044 -0.2904
13644TIP3    H162423   4.978   4.816   5.457  1.6362  0.4703 -1.2799
13644TIP3    H262424   4.916   4.774   5.325 -1.7745 -0.1799  0.4634
13645TIP3   OH262425   6.403   5.432   2.389  0.6737  0.0439  0.4379
13645TIP3    H162426   6.498   5.442   2.381  0.6059 -0.2624 -1.0083
13645TIP3    H262427   6.372   5.425   2.298 -0.6336 -0.7585  0.9252
13646TIP3   OH262428   1.822   2.246   1.687 -0.3897 -0.6920  0.0092
13646TIP3    H162429   1.901   2.267   1.637  0.7921  0.7169  2.3734
13646TIP3    H262430   1.854   2.215   1.772 -2.3641 -0.8002  0.7442
13647TIP3   OH262431   4.636   4.053   0.424 -0.0400  0.2946  0.0321
13647TIP3    H162432   4.649   4.076   0.516  0.2318  0.6502 -0.0910
13647TIP3    H262433   4.614   3.960   0.425 -0.1422  0.3233  0.4649
13648TIP3   OH262434   5.724   2.195  17.061 -0.5225 -0.1587  0.2295
13648TIP3    H162435   5.745   2.142  17.138 -1.6747 -0.6129  0.2281
13648TIP3    H262436   5.793   2.174  16.998  0.8176  0.7232  1.3643
13649TIP3   OH262437   5.061   0.686  13.184  0.3639  0.1250 -0.1570
13649TIP3    H162438   5.031   0.661  13.272  0.9295 -1.2738 -0.3599
13649TIP3    H262439   5.070   0.782  13.189  1.9103 -0.0768  1.7920
13650TIP3   OH262440   6.081   6.076   6.444  0.0105 -0.2807 -0.5561
13650TIP3    H162441   6.001   6.127   6.434  1.3580  2.2389  0.9887
13650TIP3    H262442   6.052   5.985   6.445 -2.7895  0.5745 -0.2847
13651TIP3   OH262443   0.977   6.159  11.210  0.3476  0.4427  0.3201
13651TIP3    H162444   0.895   6.154  11.161 -0.3989 -0.8016  1.6623
13651TIP3    H262445   0.975   6.244  11.253 -0.9160 -0.1700  1.4961
13652TIP3   OH262446   1.601   0.305   2.569  0.2676  0.2334 -0.4861
13652TIP3    H162447   1.596   0.376   2.632  2.5203 -0.7536  0.9058
13652TIP3    H262448   1.522   0.253   2.583 -0.5980  1.5683 -0.4204
13653TIP3   OH262449   2.360   0.489   2.376  0.3274  0.4169 -0.0558
13653TIP3    H162450   2.280   0.529   2.341  2.7430  2.7674 -3.3149
13653TIP3    H262451   2.364   0.518   2.467 -3.1012 -0.7295  0.5008
13654TIP3   OH262452   0.306   6.387  14.155  0.4903  0.7196 -0.0421
13654TIP3    H162453   0.328   6.294  14.157 -2.0221  0.0305 -1.9063
13654TIP3    H262454   0.282   6.408  14.245  0.1173 -0.6750  0.1956
13655TIP3   OH262455   2.521   5.866  15.574 -0.5599  0.0310  0.5501
13655TIP3    H162456   2.604   5.884  15.530 -0.8230  1.0436  0.4563
13655TIP3    H262457   2.546   5.834  15.660 -0.0846  1.5935  0.9991
13656TIP3   OH262458   6.732   1.730   1.462  0.0551 -0.3884 -0.2976
13656TIP3    H162459   6.686   1.659   1.506  0.4359 -0.8844 -0.6942
13656TIP3    H262460   6.796   1.686   1.406  1.6377  0.2940  0.9251
13657TIP3   OH262461   5.588   6.485   3.786 -0.1150 -0.7659 -0.1797
13657TIP3    H162462   5.512   6.535   3.755  1.3272  0.7948 -1.3120
13657TIP3    H262463   5.578   6.482   3.881 -0.9533  0.4863 -0.2201
13658TIP3   OH262464   3.118   1.382   2.626 -0.0499 -0.2564 -0.3559
13658TIP3    H162465   3.087   1.397   2.715  0.9631  0.2748 -0.0867
13658TIP3    H262466   3.212   1.368   2.635 -0.1448 -1.5090 -1.2021
13659TIP3   OH262467   0.623   2.149   2.091  0.1855  0.0579  0.0362
13659TIP3    H162468   0.617   2.114   2.002 -0.1689 -0.7518  0.3722
13659TIP3    H262469   0.585   2.080   2.147 -1.6864  1.4740  0.5877
13660TIP3   OH262470   3.120   5.071   4.417  0.0555  0.3861  0.2857
13660TIP3    H162471   3.162   5.080   4.503  0.7027  0.2447 -0.0098
13660TIP3    H262472   3.127   4.978   4.396 -0.1812  0.4049  0.1172
13661TIP3   OH262473   3.039   1.689   3.276  0.7656 -0.2207  0.3364
13661TIP3    H162474   3.039   1.770   3.328  1.2484  1.5452 -2.3577
13661TIP3    H262475   3.007   1.622   3.337  0.2979  1.9856  2.6012
13662TIP3   OH262476   3.983   0.415   2.625 -0.2395 -0.3103  0.3822
13662TIP3    H162477   4.007   0.508   2.623 -2.7921  0.3876  0.0018
13662TIP3    H262478   4.060   0.371   2.661 -0.1927  2.3444  3.7881
13663TIP3   OH262479   3.815   3.357  14.216  0.5013  0.2939  0.3101
13663TIP3    H162480   3.730   3.340  14.177  0.1054 -1.7514  1.9580
13663TIP3    H262481   3.843   3.440  14.178 -2.1424  0.9205 -0.3746
13664TIP3   OH262482   6.414   2.409  13.725 -0.3063 -0.4976 -0.3141
13664TIP3    H162483   6.320   2.404  13.744 -0.5353  1.6154 -0.7044
13664TIP3    H262484   6.452   2.448  13.803  0.1227 -0.5621 -0.4912
13665TIP3   OH262485   2.106   1.430  16.326 -0.2771 -0.0114  0.8911
13665TIP3    H162486   2.190   1.475  16.338 -0.8407  1.5123 -0.7475
13665TIP3    H262487   2.117   1.348  16.374  2.1378  0.1828  0.7663
13666TIP3   OH262488   5.431   3.347   5.978  0.0010 -0.2653  0.4759
13666TIP3    H162489   5.338   3.367   5.972 -0.2501 -1.1124  1.5415
13666TIP3    H262490   5.447   3.330   6.071  1.0287 -1.0147  0.1777
13667TIP3   OH262491   5.604   5.260   1.324  0.5931 -0.8646 -0.1691
13667TIP3    H162492   5.513   5.264   1.296 -0.1016 -2.6912  1.6880
13667TIP3    H262493   5.622   5.347   1.361  0.2354  0.1409 -2.2762
13668TIP3   OH262494   5.077   0.354   3.985  0.3517 -0.3845  0.0474
13668TIP3    H162495   5.029   0.324   4.062  1.2099 -0.9712  0.3633
13668TIP3    H262496   5.158   0.303   3.986  0.0475 -0.9015 -1.6561
13669TIP3   OH262497   4.202   2.161  16.722  0.0044 -0.4823  0.3274
13669TIP3    H162498   4.113   2.149  16.756 -0.5634  1.5946 -0.3697
13669TIP3    H262499   4.191   2.212  16.642  1.8168 -0.3772  0.1204
13670TIP3   OH262500   6.389   0.529   3.580 -0.4024 -0.2783  0.6911
13670TIP3    H162501   6.429   0.616   3.569  0.5663 -0.6409  1.3075
13670TIP3    H262502   6.318   0.543   3.643 -0.8791  0.2521  0.0488
13671TIP3   OH262503   6.218   1.799   5.988  0.4116  0.3732 -0.2477
13671TIP3    H162504   6.219   1.708   6.016  0.1413  0.5448  0.3484
13671TIP3    H262505   6.281   1.842   6.046 -1.6386  1.1204  1.4954
13672TIP3   OH262506   1.880   0.216   4.723 -0.1200  0.1567 -0.0535
13672TIP3    H162507   1.863   0.251   4.636  0.8708  0.0519 -0.2989
13672TIP3    H262508   1.819   0.143   4.732 -0.6000  0.5060 -0.4461
13673TIP3   OH262509   2.633   2.006   0.520  0.1476  0.1539  0.6614
13673TIP3    H162510   2.597   1.920   0.542 -1.4238  0.8238  0.8230
13673TIP3    H262511   2.556   2.064   0.516  0.9901  1.2113 -1.0751
13674TIP3   OH262512   3.674   1.393  12.495 -0.0219 -0.1393  0.4344
13674TIP3    H162513   3.704   1.478  12.524 -0.1786 -0.7785  2.5631
13674TIP3    H262514   3.646   1.406  12.404  1.7615  1.6071  0.1142
13675TIP3   OH262515   6.813   3.116  12.198 -0.3997 -0.1523 -0.0947
13675TIP3    H162516   6.906   3.097  12.210 -0.4303 -0.2182  0.0375
13675TIP3    H262517   6.770   3.031  12.200 -0.3016 -0.2377 -1.6220
13676TIP3   OH262518   0.258   4.670  14.043 -0.6127 -0.1890  0.2017
13676TIP3    H162519   0.176   4.644  14.084 -0.9715  0.2351 -0.2348
13676TIP3    H262520   0.261   4.622  13.960 -0.6059  0.0781  0.0432
13677TIP3   OH262521   2.535   0.622  12.955 -1.3050  0.0937 -0.5981
13677TIP3    H162522   2.461   0.632  13.015 -1.2830 -1.6868 -0.2343
13677TIP3    H262523   2.608   0.596  13.012 -0.6883  0.6757 -1.1081
13678TIP3   OH262524   4.027   3.428   2.653 -0.4547 -0.2964 -0.5822
13678TIP3    H162525   4.065   3.346   2.622  1.0718  0.7926 -1.6470
13678TIP3    H262526   3.979   3.463   2.578 -0.3971  0.2133 -0.3887
13679TIP3   OH262527   4.331   5.892   3.987  0.9668  0.0344 -0.2738
13679TIP3    H162528   4.269   5.943   3.936  1.0996  0.4946  0.0241
13679TIP3    H262529   4.363   5.952   4.054  0.5579 -0.6503  0.5494
13680TIP3   OH262530   0.120   5.848   5.268 -0.3703 -0.3230 -0.1022
13680TIP3    H162531   0.150   5.787   5.335  0.8010  0.7147  0.3314
13680TIP3    H262532   0.184   5.840   5.197 -0.8054 -0.3666 -0.4969
13681TIP3   OH262533   1.515   6.605   1.882 -0.0671  0.0212 -0.0862
13681TIP3    H162534   1.519   6.560   1.967 -1.1820 -0.0176 -0.0432
13681TIP3    H262535   1.514   6.698   1.904  1.4102  0.0669 -0.1415
13682TIP3   OH262536   5.800   2.020  11.095  0.0880 -0.1879 -0.7824
13682TIP3    H162537   5.855   2.020  11.017  1.0866  0.4049 -0.0900
13682TIP3    H262538   5.831   1.947  11.148 -0.3653 -0.3876 -0.7909
13683TIP3   OH262539   1.858   4.730   4.964 -0.5764  0.3278 -0.3374
13683TIP3    H162540   1.786   4.673   4.991  0.0427 -0.0496  0.5221
13683TIP3    H262541   1.912   4.674   4.908  1.0434 -0.5076  2.0205
13684TIP3   OH262542   4.306   0.384   3.275  0.4464 -0.3720  0.3096
13684TIP3    H162543   4.332   0.360   3.186  1.3778 -2.5250  1.1361
13684TIP3    H262544   4.343   0.316   3.330 -2.1882 -0.4297  2.1216
13685TIP3   OH262545   1.200   2.010  12.749 -0.0706  0.0210 -0.0626
13685TIP3    H162546   1.275   1.953  12.733  1.3201  1.3580  1.4099
13685TIP3    H262547   1.226   2.095  12.713 -1.8952 -0.1125 -1.7643
13686TIP3   OH262548   0.905   4.108   4.701 -0.0030  0.1632 -0.4301
13686TIP3    H162549   0.980   4.138   4.649  0.2312  0.3616  0.0115
13686TIP3    H262550   0.919   4.014   4.712 -0.9396 -0.1991 -2.1431
13687TIP3   OH262551   5.556   5.113   5.607  0.1704  0.3458 -0.1754
13687TIP3    H162552   5.472   5.081   5.640  1.1405 -0.8786  1.1746
13687TIP3    H262553   5.590   5.041   5.554  1.1363  0.1505  0.6830
13688TIP3   OH262554   0.629   2.826  11.274 -0.3204 -0.7232 -0.0444
13688TIP3    H162555   0.607   2.886  11.203 -1.4593 -0.5861  0.4121
13688TIP3    H262556   0.719   2.848  11.296 -0.1993 -0.2599 -0.9440
13689TIP3   OH262557   3.366   4.640  13.517 -0.8135  0.3356  0.0482
13689TIP3    H162558   3.437   4.680  13.567  1.2989 -1.0837 -1.7041
13689TIP3    H262559   3.287   4.661  13.567  0.8511  1.6390  2.2579
13690TIP3   OH262560   6.384   1.840   3.180  0.0090 -0.1646  0.0191
13690TIP3    H162561   6.448   1.770   3.172 -0.0521 -0.3699  1.2439
13690TIP3    H262562   6.320   1.823   3.111  0.0760 -1.2296  0.2171
13691TIP3   OH262563   4.364   2.432  13.898  0.0834 -0.6475 -0.1617
13691TIP3    H162564   4.401   2.437  13.986  1.0418  0.1959 -0.6099
13691TIP3    H262565   4.273   2.405  13.912  0.3207 -0.8378  1.0629
13692TIP3   OH262566   1.383   6.349   6.639 -0.3819  0.1486  0.6453
13692TIP3    H162567   1.306   6.405   6.630  1.2058  2.3504  0.3592
13692TIP3    H262568   1.399   6.315   6.551 -1.5364 -1.0641  0.8823
13693TIP3   OH262569   5.154   4.309  15.526 -0.4416 -0.7824 -0.3717
13693TIP3    H162570   5.230   4.340  15.575 -0.7548 -0.9450  0.2226
13693TIP3    H262571   5.163   4.348  15.439 -1.0242  1.2804  0.4639
13694TIP3   OH262572   0.895   4.416   4.307 -0.0760  0.0051 -0.3059
13694TIP3    H162573   0.873   4.412   4.214 -1.5473 -2.0319  0.0837
13694TIP3    H262574   0.832   4.477   4.344 -0.6544 -0.5521 -0.3599
13695TIP3   OH262575   6.370   6.697   2.205 -0.0376  0.2044 -0.2582
13695TIP3    H162576   6.308   6.712   2.277 -0.1709 -1.6047  0.0446
13695TIP3    H262577   6.325   6.633   2.149  1.0482 -0.1845 -0.6908
13696TIP3   OH262578   5.094   4.564  11.659  0.8902  0.2957  0.1914
13696TIP3    H162579   5.124   4.645  11.700 -1.4537  0.7255  1.0996
13696TIP3    H262580   5.015   4.588  11.612 -0.0426 -1.5362  0.7636
13697TIP3   OH262581   4.830   2.983  15.549  0.2121 -0.1974  0.1203
13697TIP3    H162582   4.862   3.067  15.516 -1.6638 -0.1417 -1.6965
13697TIP3    H262583   4.873   2.918  15.494 -0.0213 -0.3107  0.0705
13698TIP3   OH262584   4.803   0.038   5.386 -1.1999 -0.2770 -0.0168
13698TIP3    H162585   4.802   0.132   5.369  0.4078 -0.2607 -0.1212
13698TIP3    H262586   4.854   0.028   5.466  0.5179 -1.1933 -1.1732
13699TIP3   OH262587   5.888   0.439   5.535 -0.3196 -0.1063 -0.1707
13699TIP3    H162588   5.950   0.512   5.537 -0.8480  0.3442 -0.1741
13699TIP3    H262589   5.849   0.437   5.622  1.4205 -1.8973  0.6082
13700TIP3   OH262590   1.266   3.128  12.686  0.5235  0.0320 -0.0581
13700TIP3    H162591   1.201   3.199  12.684 -1.3809 -1.7030 -1.6127
13700TIP3    H262592   1.238   3.072  12.758  1.2464  0.1175  0.2945
13701TIP3   OH262593   6.032   0.256   3.126 -0.0694 -0.0550  0.0742
13701TIP3    H162594   6.011   0.335   3.077 -3.0844 -0.6959  0.2398
13701TIP3    H262595   6.101   0.283   3.187  1.2020  1.6216 -2.0378
13702TIP3   OH262596   3.737   1.475   3.901  1.0278 -0.1355  0.3581
13702TIP3    H162597   3.687   1.551   3.931 -0.0679 -1.0985  0.9757
13702TIP3    H262598   3.716   1.406   3.963  0.0284 -1.6838 -1.6353
13703TIP3   OH262599   6.338   2.424  15.348  0.2162  0.0254 -0.2482
13703TIP3    H162600   6.307   2.396  15.434 -1.1707  0.7252 -0.5127
13703TIP3    H262601   6.259   2.446  15.299  0.8978 -1.8027 -2.2256
13704TIP3   OH262602   4.142   0.644   5.554 -0.4717 -0.4959  0.1430
13704TIP3    H162603   4.219   0.699   5.565 -0.0084 -1.3868  1.3646
13704TIP3    H262604   4.167   0.582   5.485 -1.1981  1.1439 -1.6599
13705TIP3   OH262605   6.168   4.471  10.348 -0.6579 -0.1223 -0.0423
13705TIP3    H162606   6.251   4.467  10.396 -0.0688  1.2513 -0.9138
13705TIP3    H262607   6.153   4.381  10.319  1.2935 -0.1243 -1.1386
13706TIP3   OH262608   4.210   5.880  16.286 -0.2998 -0.1651  0.0948
13706TIP3    H162609   4.165   5.816  16.230 -0.4407  0.4973 -0.5535
13706TIP3    H262610   4.268   5.827  16.340  0.0196 -0.7967 -0.8474
13707TIP3   OH262611   1.040   1.273  16.997  0.0613 -0.2945 -0.2084
13707TIP3    H162612   0.966   1.310  17.046  0.7331 -0.1966  0.7557
13707TIP3    H262613   1.043   1.324  16.916  0.0635  0.7966  0.4598
13708TIP3   OH262614   0.914   1.585   2.666  0.1202 -0.3385 -0.7962
13708TIP3    H162615   1.006   1.595   2.691 -0.3206 -0.0806  0.7124
13708TIP3    H262616   0.917   1.524   2.592  1.4775 -0.5768 -0.5662
13709TIP3   OH262617   4.465   6.267   3.195 -0.2156 -0.2513  0.6217
13709TIP3    H162618   4.453   6.361   3.188 -1.0465 -0.4000 -0.0624
13709TIP3    H262619   4.501   6.253   3.283  0.3434  0.7322  0.5533
13710TIP3   OH262620   3.387   3.175   1.401  0.0677 -0.3288  0.7548
13710TIP3    H162621   3.400   3.192   1.308  0.7565 -0.0654  0.8950
13710TIP3    H262622   3.307   3.122   1.405 -0.5878  0.6097  0.1085
13711TIP3   OH262623   3.882   0.112  10.722 -0.0407  0.5551 -0.0283
13711TIP3    H162624   3.946   0.044  10.743  0.9818  1.5547  0.1734
13711TIP3    H262625   3.818   0.107  10.793  0.4493  0.3107  0.4076
13712TIP3   OH262626   5.218   0.887  13.681 -0.2232 -0.4070 -0.3149
13712TIP3    H162627   5.287   0.938  13.725  1.9023 -3.0312 -0.4452
13712TIP3    H262628   5.169   0.951  13.630  2.2420  1.5336 -0.3409
13713TIP3   OH262629   1.337   2.978  14.568  0.1751 -0.2448  0.1859
13713TIP3    H162630   1.267   2.994  14.632 -0.9331 -0.4456 -0.9660
13713TIP3    H262631   1.318   2.890  14.534  0.7581 -0.1359 -0.4172
13714TIP3   OH262632   4.157   3.504   1.600 -0.4245  0.5245 -0.7312
13714TIP3    H162633   4.189   3.535   1.515 -1.4471 -1.7029 -1.9876
13714TIP3    H262634   4.100   3.573   1.631  0.0406  1.4131 -1.8231
13715TIP3   OH262635   4.901   0.581   4.809 -0.3375 -0.0605 -0.7988
13715TIP3    H162636   4.821   0.634   4.809 -0.2584  0.0760 -2.2318
13715TIP3    H262637   4.934   0.587   4.719  1.6034  0.3424 -0.0813
13716TIP3   OH262638   0.027   1.467  13.844  0.0631  0.2712  0.1527
13716TIP3    H162639  -0.003   1.558  13.853  0.2597  0.5305 -1.5375
13716TIP3    H262640  -0.049   1.414  13.869 -0.2557  0.9152  0.5588
13717TIP3   OH262641   1.850   2.995   1.447  0.1627 -0.2419 -0.0286
13717TIP3    H162642   1.757   3.007   1.466  0.5076  0.3666  1.3065
13717TIP3    H262643   1.895   3.045   1.515  1.4488  0.7110 -1.5439
13718TIP3   OH262644   5.113   1.930  13.618 -0.4201 -0.4263  0.4966
13718TIP3    H162645   5.163   1.974  13.550 -0.2930  1.2133  1.5986
13718TIP3    H262646   5.021   1.944  13.594 -0.3645 -1.3824 -0.2703
13719TIP3   OH262647   3.278   3.032   4.188  0.1684 -0.1437 -0.3357
13719TIP3    H162648   3.259   3.125   4.175  0.5180 -0.0555 -0.2102
13719TIP3    H262649   3.260   3.016   4.280  1.2287  0.0688 -0.0798
13720TIP3   OH262650   4.066   5.312  11.780  0.4916 -0.2618 -0.8935
13720TIP3    H162651   4.006   5.332  11.852  0.1425 -1.4750 -0.8281
13720TIP3    H262652   4.142   5.368  11.796  0.5480 -0.7362  0.6148
13721TIP3   OH262653   0.294   6.102   5.659  0.2038 -0.1180  0.4918
13721TIP3    H162654   0.239   6.155   5.716 -1.5319 -0.3328 -0.9575
13721TIP3    H262655   0.383   6.119   5.691 -0.4672  2.0890  1.3345
13722TIP3   OH262656   1.016   3.782   1.650  0.2796 -0.3058  0.1416
13722TIP3    H162657   1.057   3.823   1.727  0.7935 -2.0391  0.8139
13722TIP3    H262658   0.956   3.717   1.686 -2.3325  1.4561 -0.8754
13723TIP3   OH262659   3.888   3.368  14.684 -0.3068 -0.4560 -0.4984
13723TIP3    H162660   3.970   3.326  14.709 -0.1247  0.4398  0.4366
13723TIP3    H262661   3.822   3.298  14.692  0.0060 -0.5909  0.9569
13724TIP3   OH262662   5.362   1.359  15.694 -0.7649 -0.0206 -0.0130
13724TIP3    H162663   5.303   1.381  15.766 -0.8010  0.1177 -0.0840
13724TIP3    H262664   5.372   1.264  15.699  0.5439  0.1620  1.2081
13725TIP3   OH262665   2.888   3.586   3.427  0.0384 -0.1980  0.1181
13725TIP3    H162666   2.937   3.668   3.435  0.1891 -0.5410  3.2974
13725TIP3    H262667   2.905   3.557   3.337  1.4260  2.3285 -0.4918
13726TIP3   OH262668   6.001   3.203   6.157 -0.5167  0.0318 -0.3162
13726TIP3    H162669   6.094   3.183   6.170 -1.2276 -1.6244  2.9928
13726TIP3    H262670   5.991   3.291   6.192 -0.0891  0.4066 -1.1404
13727TIP3   OH262671   4.766   6.713   3.458  0.0031  0.4292 -0.6469
13727TIP3    H162672   4.775   6.806   3.439 -0.8254  0.4707 -0.8475
13727TIP3    H262673   4.760   6.671   3.372  2.0149  0.0117 -0.6043
13728TIP3   OH262674   3.732   3.590  15.968  0.9708 -0.2708 -0.5888
13728TIP3    H162675   3.655   3.600  16.024 -0.3892 -0.2307 -2.4104
13728TIP3    H262676   3.733   3.497  15.945  0.7621 -0.0537 -1.5134
13729TIP3   OH262677   3.440   5.927   2.177 -0.0024 -0.3112 -0.2500
13729TIP3    H162678   3.494   5.953   2.252  0.2298 -0.7427 -0.2626
13729TIP3    H262679   3.478   5.974   2.103 -0.8830  0.9308  0.0727
13730TIP3   OH262680   3.191   1.661   5.778  0.0697 -0.4896 -0.2565
13730TIP3    H162681   3.110   1.699   5.742  1.2191  2.2030 -0.1332
13730TIP3    H262682   3.252   1.662   5.704  0.5040 -0.9555  0.0954
13731TIP3   OH262683   4.916   1.772  11.796 -0.1755 -0.1390 -0.4407
13731TIP3    H162684   4.829   1.802  11.771  0.7206  1.7796 -1.4102
13731TIP3    H262685   4.959   1.751  11.713  0.9492  0.8575 -0.1271
13732TIP3   OH262686   1.161   5.568  14.249 -0.2613 -0.8092 -0.3135
13732TIP3    H162687   1.067   5.561  14.269 -0.1921 -1.3162 -0.1670
13732TIP3    H262688   1.184   5.483  14.213  0.2204 -0.7963 -0.0317
13733TIP3   OH262689   2.004   3.532  13.968  0.4484 -0.8084  0.0036
13733TIP3    H162690   2.032   3.587  13.894  0.9600 -1.2532 -0.1337
13733TIP3    H262691   2.000   3.444  13.931  0.2513 -0.9601  0.3899
13734TIP3   OH262692   6.666   1.975  15.164  0.2949 -0.3821 -0.0990
13734TIP3    H162693   6.631   1.992  15.076 -0.6360  0.3845  0.4100
13734TIP3    H262694   6.746   2.026  15.169 -0.6103  1.0528  0.1383
13735TIP3   OH262695   0.640   3.930  17.112  0.4075  0.0790 -0.4123
13735TIP3    H162696   0.558   3.881  17.114  0.6124 -0.2306  0.3005
13735TIP3    H262697   0.650   3.964  17.201 -0.0518  1.9454 -1.0427
13736TIP3   OH262698   2.873   2.388   1.758  0.1582  0.1640 -0.4183
13736TIP3    H162699   2.791   2.436   1.773 -0.0224 -0.4911  0.7811
13736TIP3    H262700   2.856   2.335   1.680 -0.7177 -0.2739  0.0541
13737TIP3   OH262701   2.102   3.389  14.807  0.1804  0.2029 -0.3950
13737TIP3    H162702   2.160   3.408  14.734  2.0576 -0.5460  0.8551
13737TIP3    H262703   2.151   3.415  14.885 -1.2902 -0.1254  0.6760
13738TIP3   OH262704   6.037   3.397  14.233 -0.3584 -0.2376 -0.5550
13738TIP3    H162705   6.031   3.446  14.315  0.1048  0.8275 -1.1362
13738TIP3    H262706   5.993   3.453  14.169 -0.6150 -1.0044 -1.0571
13739TIP3   OH262707   1.673   5.669  12.351  0.5821  0.3408  0.0411
13739TIP3    H162708   1.668   5.746  12.295  0.8802  1.0387  0.9569
13739TIP3    H262709   1.582   5.638  12.357  0.4730  0.5688 -0.3938
13740TIP3   OH262710   6.220   4.431   1.354 -0.4772  0.1204  0.6168
13740TIP3    H162711   6.307   4.453   1.386 -0.6378 -0.3916  1.4111
13740TIP3    H262712   6.191   4.359   1.410 -1.4248  0.3121  0.3754
13741TIP3   OH262713   5.043   0.831   3.976  0.1492 -0.5437 -0.0720
13741TIP3    H162714   5.074   0.865   4.060 -0.0313  0.2655 -0.3286
13741TIP3    H262715   5.087   0.885   3.910 -0.4439 -0.5535 -0.4769
13742TIP3   OH262716   1.924   5.475   3.028  0.1475 -0.1252 -0.6046
13742TIP3    H162717   1.837   5.440   3.046  0.4557  0.3209  1.9003
13742TIP3    H262718   1.923   5.563   3.065  1.8216 -0.2824 -0.1291
13743TIP3   OH262719   6.388   3.402   2.046  0.1405  0.1598 -0.0367
13743TIP3    H162720   6.338   3.321   2.042  0.7716 -0.1500 -3.7753
13743TIP3    H262721   6.322   3.470   2.062 -0.7217 -0.8450  0.6876
13744TIP3   OH262722   0.615   0.679   4.364  0.3769  0.1651 -0.4612
13744TIP3    H162723   0.561   0.687   4.442  1.0015 -0.4019  0.0345
13744TIP3    H262724   0.632   0.769   4.336  0.2021  0.3643  0.0848
13745TIP3   OH262725   0.173   1.858   3.185  0.5465 -0.5158  0.5480
13745TIP3    H162726   0.185   1.764   3.198 -2.1278 -0.6384  2.4216
13745TIP3    H262727   0.100   1.882   3.242 -1.6277  1.9114 -3.0619
13746TIP3   OH262728   4.031   2.908  16.093 -0.3449  0.3307 -0.5671
13746TIP3    H162729   3.976   2.837  16.060  0.0785  0.2496 -1.1147
13746TIP3    H262730   3.974   2.984  16.097 -1.2990 -0.4904  1.8379
13747TIP3   OH262731   1.422   3.330  12.753  0.4228  0.3260  0.0999
13747TIP3    H162732   1.378   3.248  12.733 -0.2396  0.4520  1.0097
13747TIP3    H262733   1.514   3.313  12.736  0.2230 -0.4286 -0.2604
13748TIP3   OH262734   2.574   4.378   6.152 -0.2885  0.5736  0.6509
13748TIP3    H162735   2.537   4.345   6.070 -1.5831  2.0770  0.5955
13748TIP3    H262736   2.668   4.359   6.146 -0.8169 -2.0654  0.1736
13749TIP3   OH262737   6.550   0.872   2.286  0.4740 -0.6318 -0.3697
13749TIP3    H162738   6.639   0.840   2.293  0.9851  0.9164  0.4244
13749TIP3    H262739   6.556   0.966   2.302 -1.3716 -0.5934  0.2770
13750TIP3   OH262740   0.297   5.038  16.696  0.5989  0.5015  0.3561
13750TIP3    H162741   0.265   4.959  16.653  1.4631  0.1301  0.3825
13750TIP3    H262742   0.235   5.053  16.767  0.5446 -0.2847  0.4867
13751TIP3   OH262743   3.617   4.195   1.231 -0.5817 -0.2321  0.1425
13751TIP3    H162744   3.523   4.214   1.227 -0.6615 -0.5700  0.3942
13751TIP3    H262745   3.653   4.238   1.153 -0.7941  0.7039  0.5471
13752TIP3   OH262746   5.870   5.784  16.338  0.0478  0.6260  0.1257
13752TIP3    H162747   5.921   5.717  16.385 -0.1998  1.0773  1.0458
13752TIP3    H262748   5.847   5.742  16.255  0.4498 -0.2029  0.4232
13753TIP3   OH262749   6.367   0.975   3.494  0.2711  0.1731 -0.8417
13753TIP3    H162750   6.290   0.925   3.523 -0.8125  2.5697  0.5768
13753TIP3    H262751   6.441   0.933   3.537 -0.3888 -1.3668 -1.1880
13754TIP3   OH262752   5.597   0.471   4.239  0.0686  0.1410 -0.5978
13754TIP3    H162753   5.615   0.473   4.333 -0.9255  2.1708 -0.4290
13754TIP3    H262754   5.629   0.555   4.207 -0.0018 -0.3616 -2.0040
13755TIP3   OH262755   2.991   1.121   1.164  0.0599 -0.5105  0.3725
13755TIP3    H162756   2.996   1.045   1.222  0.0153 -1.2319 -0.5490
13755TIP3    H262757   3.081   1.153   1.159  0.3521 -1.4194 -0.4181
13756TIP3   OH262758   3.585   1.541   0.416  0.1730  1.0719 -0.2414
13756TIP3    H162759   3.650   1.592   0.368  1.0121 -0.4569 -0.7881
13756TIP3    H262760   3.619   1.451   0.413 -0.9482  0.5810  1.2142
13757TIP3   OH262761   6.806   3.783  12.317  0.3330  0.0041 -0.2111
13757TIP3    H162762   6.721   3.822  12.296  0.2754  0.9517  1.5931
13757TIP3    H262763   6.786   3.712  12.378  0.6480 -1.2666 -1.5815
13758TIP3   OH262764   2.774   1.875  16.371 -0.1533  0.1075 -0.0771
13758TIP3    H162765   2.754   1.847  16.282  0.1304  0.2459 -0.1856
13758TIP3    H262766   2.813   1.962  16.360  2.1612 -0.8718 -0.0319
13759TIP3   OH262767   1.973   2.595  14.777 -0.9423  0.4641  0.0847
13759TIP3    H162768   2.057   2.616  14.735 -0.3838  1.2056  1.5228
13759TIP3    H262769   1.937   2.680  14.801 -1.6527  0.0872  0.3489
13760TIP3   OH262770   4.379   0.814  17.280 -0.4925 -0.1143  0.5459
13760TIP3    H162771   4.379   0.808  17.376  0.5308  0.7940  0.6003
13760TIP3    H262772   4.360   0.725  17.251  0.5881 -0.6888  1.5723
13761TIP3   OH262773   4.667   1.820   4.336  0.3720  0.4477 -0.5971
13761TIP3    H162774   4.603   1.817   4.407 -0.1736 -0.6089 -1.1260
13761TIP3    H262775   4.745   1.780   4.372  0.7953  1.8547  0.0924
13762TIP3   OH262776   2.048   5.917   2.046  0.5942  0.2205  0.0075
13762TIP3    H162777   2.010   5.832   2.065 -1.5352  1.3460  0.9694
13762TIP3    H262778   2.104   5.935   2.121 -3.6284  2.2589  2.8727
13763TIP3   OH262779   3.377   0.723  16.043 -0.3359 -0.2182  0.3760
13763TIP3    H162780   3.383   0.789  16.112  0.3172 -0.4459  0.5281
13763TIP3    H262781   3.362   0.640  16.089 -0.8328 -0.2318  0.1974
13764TIP3   OH262782   1.387   4.101   4.751  0.2025  0.4942  0.3196
13764TIP3    H162783   1.441   4.033   4.793  1.5263  0.5265 -1.3024
13764TIP3    H262784   1.436   4.182   4.764 -0.5469  0.8878  0.7464
13765TIP3   OH262785   0.286   5.741  17.100 -0.2899  0.4178  0.0137
13765TIP3    H162786   0.322   5.679  17.036  1.4842 -0.1782  1.5432
13765TIP3    H262787   0.363   5.784  17.137 -1.3660  1.5542  0.9632
13766TIP3   OH262788   1.056   5.149  14.873  0.0722 -0.9159  0.1718
13766TIP3    H162789   1.111   5.121  14.800 -0.2908 -0.4283 -0.2879
13766TIP3    H262790   0.990   5.206  14.834  0.6790  0.4394  1.0476
13767TIP3   OH262791   0.756   3.697   3.543 -0.4698  0.2903  1.0140
13767TIP3    H162792   0.786   3.630   3.482 -1.4986  0.4882  0.2747
13767TIP3    H262793   0.736   3.650   3.624  0.1183 -0.0952  0.9341
13768TIP3   OH262794   1.043   4.312   2.386 -0.0881 -0.1779  0.3532
13768TIP3    H162795   1.065   4.357   2.468  1.2140 -0.0859 -0.0216
13768TIP3    H262796   0.958   4.347   2.361 -0.9198 -0.9048  2.1528
13769TIP3   OH262797   1.278   6.680   1.043 -0.2452  0.1214 -0.2595
13769TIP3    H162798   1.323   6.596   1.054  0.1394  0.2773 -0.6370
13769TIP3    H262799   1.189   6.656   1.017 -0.5382 -0.1990  0.9999
13770TIP3   OH262800   1.143   2.755  11.635 -0.7538  0.5609 -0.2296
13770TIP3    H162801   1.048   2.764  11.639 -0.8966 -1.0108  0.1771
13770TIP3    H262802   1.158   2.691  11.566 -0.1354 -1.2270  1.5231
13771TIP3   OH262803   1.032   4.797   3.008  0.3107  0.7740 -0.5375
13771TIP3    H162804   1.056   4.799   2.916 -1.2224 -2.2270 -1.0557
13771TIP3    H262805   0.961   4.734   3.013  0.9603  0.2237  2.8414
13772TIP3   OH262806   2.971   5.568  12.110  0.8487 -0.5004 -0.1778
13772TIP3    H162807   3.005   5.657  12.118 -0.8280  0.2711 -1.2858
13772TIP3    H262808   3.033   5.514  12.159  1.2347  1.4297  1.5318
13773TIP3   OH262809   4.210   0.551  15.117 -0.7891 -0.3044  0.5579
13773TIP3    H162810   4.259   0.560  15.035 -1.0552  1.5675  0.5871
13773TIP3    H262811   4.121   0.529  15.089 -0.4700 -1.4683  0.4253
13774TIP3   OH262812   1.238   3.836  16.212 -0.7849 -0.6035 -0.1671
13774TIP3    H162813   1.256   3.752  16.171  0.9218 -1.3747  2.0537
13774TIP3    H262814   1.289   3.835  16.294 -3.2676  1.2566  1.4842
13775TIP3   OH262815   4.538   6.213  14.468 -0.4069  0.2195 -0.8534
13775TIP3    H162816   4.520   6.274  14.396 -0.4986  1.7311  0.4258
13775TIP3    H262817   4.614   6.164  14.439 -1.8464 -0.8183 -2.9894
13776TIP3   OH262818   5.641   0.727  16.761  0.4013  0.3870  0.1046
13776TIP3    H162819   5.618   0.677  16.840 -0.1005 -0.2542 -0.4427
13776TIP3    H262820   5.734   0.711  16.749  0.9753  2.2744  1.8246
13777TIP3   OH262821   3.342   0.532   4.349  0.0938  0.5518  0.3170
13777TIP3    H162822   3.377   0.449   4.379  0.2182 -0.0554 -1.4794
13777TIP3    H262823   3.416   0.592   4.352  1.0237 -0.4122 -2.2370
13778TIP3   OH262824   4.531   3.159  17.258 -0.2101 -0.1358  0.3693
13778TIP3    H162825   4.590   3.127  17.326 -0.3795  0.4485  0.7900
13778TIP3    H262826   4.501   3.244  17.289 -0.0737  0.2644 -0.5591
13779TIP3   OH262827   6.325   6.235  12.139  0.6077 -0.1432 -0.5207
13779TIP3    H162828   6.340   6.241  12.045  2.1851  0.4380 -0.2495
13779TIP3    H262829   6.326   6.141  12.158 -1.6638 -0.3563 -1.3675
13780TIP3   OH262830   2.532   6.755   0.236  0.1664  0.1906  0.4458
13780TIP3    H162831   2.556   6.772   0.145 -0.4590  1.1737  0.4558
13780TIP3    H262832   2.614   6.725   0.277  0.1263 -1.6240 -0.7517
13781TIP3   OH262833   6.585   3.388   5.016  0.1258  0.3084 -0.8241
13781TIP3    H162834   6.639   3.365   4.940 -1.1513  0.9404 -1.9351
13781TIP3    H262835   6.630   3.463   5.056  1.2796 -0.5824 -0.4271
13782TIP3   OH262836   4.678   1.228   2.656 -0.4871  0.0023  0.0810
13782TIP3    H162837   4.621   1.247   2.582 -0.8568  0.7561  0.5604
13782TIP3    H262838   4.709   1.314   2.685 -1.3208 -0.1906  1.5850
13783TIP3   OH262839   2.600   2.271   2.268  0.3356  1.1183  0.0426
13783TIP3    H162840   2.603   2.179   2.241  0.8348  0.3953  2.4997
13783TIP3    H262841   2.506   2.290   2.277  0.2880 -0.0615  2.4557
13784TIP3   OH262842   5.940   4.477   1.329  0.3121  0.5523  0.1434
13784TIP3    H162843   6.035   4.466   1.326  0.3182  0.1960  1.4278
13784TIP3    H262844   5.917   4.507   1.241  1.5047 -0.1562 -0.4281
13785TIP3   OH262845   0.086   1.825  10.786  0.1515 -0.1215  0.1170
13785TIP3    H162846   0.097   1.738  10.825 -0.4066  0.7522  2.3357
13785TIP3    H262847   0.056   1.808  10.697 -2.0161 -2.1981  1.1726
13786TIP3   OH262848   5.185   6.125   1.997  0.4457  0.0525 -0.2661
13786TIP3    H162849   5.137   6.043   2.002  2.1333 -0.8619  2.1404
13786TIP3    H262850   5.152   6.168   1.918 -2.2457 -1.7798 -0.1921
13787TIP3   OH262851   6.681   1.001   5.608  0.3766  0.3576 -0.3385
13787TIP3    H162852   6.644   0.918   5.577 -1.3949  1.3154 -0.8873
13787TIP3    H262853   6.693   0.988   5.702  2.6119 -1.4140 -0.8352
13788TIP3   OH262854   0.824   2.858   4.084 -0.3623 -0.2377  0.3957
13788TIP3    H162855   0.780   2.903   4.012 -1.2590  0.2787  1.2625
13788TIP3    H262856   0.862   2.780   4.043 -2.4633 -0.9429 -0.3047
13789TIP3   OH262857   2.646   5.972   2.402 -0.2500 -0.5641  0.0821
13789TIP3    H162858   2.695   5.952   2.322 -0.1540 -2.4563  0.5716
13789TIP3    H262859   2.621   5.886   2.436 -0.6102  0.2388  1.8923
13790TIP3   OH262860   5.128   2.390   5.545  0.6246  0.0569 -0.7426
13790TIP3    H162861   5.097   2.364   5.632 -0.0593  2.0263 -0.3582
13790TIP3    H262862   5.219   2.362   5.542 -0.3840 -3.4785 -0.8705
13791TIP3   OH262863   0.682   5.650  11.566  0.2061  0.1284  0.4030
13791TIP3    H162864   0.603   5.602  11.542  0.6016 -1.1206  1.5110
13791TIP3    H262865   0.751   5.612  11.512  0.4830 -0.4372  1.1398
13792TIP3   OH262866   2.857   0.978   1.906 -0.1302 -0.2623  0.4165
13792TIP3    H162867   2.945   1.015   1.903  0.0511 -0.6821  0.6195
13792TIP3    H262868   2.833   0.982   1.998  0.7952 -2.7973  0.8036
13793TIP3   OH262869   0.923   0.679  15.360 -0.5353  0.4079  0.4095
13793TIP3    H162870   0.914   0.750  15.423 -0.2173  0.2138  0.6782
13793TIP3    H262871   0.843   0.683  15.307 -0.2855  1.2823  0.0929
13794TIP3   OH262872   3.110   0.784  16.608  0.5240 -0.0308 -0.4670
13794TIP3    H162873   3.026   0.757  16.643  0.8326 -0.8934 -0.3840
13794TIP3    H262874   3.160   0.703  16.600  0.8541  0.3028 -1.8340
13795TIP3   OH262875   5.976   0.248  11.832 -0.6356  0.2331  0.0476
13795TIP3    H162876   5.907   0.185  11.809 -1.0144  0.6750 -0.0272
13795TIP3    H262877   5.968   0.259  11.927 -0.0936 -0.3894  0.1664
13796TIP3   OH262878   1.247   2.136   3.716 -0.0339 -0.1209 -0.0984
13796TIP3    H162879   1.165   2.149   3.669 -0.4122 -1.4059  0.1883
13796TIP3    H262880   1.309   2.196   3.673 -0.7968 -0.0653 -1.1350
13797TIP3   OH262881   5.857   3.931  11.569  0.3665  0.3117 -0.2851
13797TIP3    H162882   5.838   3.924  11.663 -1.3728  3.8402 -0.2906
13797TIP3    H262883   5.938   3.982  11.565 -0.3061  1.3611 -0.7065
13798TIP3   OH262884   2.962   0.834   2.372  0.5719 -0.4089  0.3953
13798TIP3    H162885   2.898   0.763   2.375  0.0762  0.0343  0.4516
13798TIP3    H262886   3.001   0.835   2.459 -1.5650  1.3268  1.3900
13799TIP3   OH262887   3.201   2.552  11.983 -0.8651  0.4644  0.7628
13799TIP3    H162888   3.200   2.495  11.906  1.0783 -0.0565  1.0880
13799TIP3    H262889   3.111   2.551  12.016 -1.3806 -0.4592 -0.6498
13800TIP3   OH262890   1.768   2.619  11.889 -0.1072  0.8318 -0.4412
13800TIP3    H162891   1.819   2.695  11.915 -1.4172  1.6367 -0.1436
13800TIP3    H262892   1.690   2.623  11.945 -0.6474 -0.1806 -1.1079
13801TIP3   OH262893   0.185   4.015   1.121  0.4259 -0.4943 -0.2054
13801TIP3    H162894   0.213   4.052   1.205  1.0837 -0.2466 -0.5265
13801TIP3    H262895   0.125   4.080   1.085  0.4885 -0.3914 -0.1256
13802TIP3   OH262896   3.261   1.922  16.423 -0.4866 -0.0580 -0.2662
13802TIP3    H162897   3.319   1.857  16.463 -1.4497 -0.6700  0.1394
13802TIP3    H262898   3.294   1.932  16.334 -1.0277 -1.9562 -0.7004
13803TIP3   OH262899   0.471   0.773   4.135 -0.1966  0.4192 -0.1024
13803TIP3    H162900   0.502   0.734   4.216  1.2614  1.5045 -0.1040
13803TIP3    H262901   0.390   0.727   4.114  0.3943 -1.1290  0.9854
13804TIP3   OH262902   4.318   2.173   4.176 -0.4609 -0.8171  0.0958
13804TIP3    H162903   4.223   2.169   4.174 -0.5594  1.2794 -0.5204
13804TIP3    H262904   4.339   2.217   4.259 -0.1923  1.6071 -1.2039
13805TIP3   OH262905   4.466   5.916  11.734  0.7822 -0.3716  0.4176
13805TIP3    H162906   4.542   5.975  11.729  1.3829 -1.0385  1.4314
13805TIP3    H262907   4.409   5.944  11.662  1.4717  0.8604  0.3306
13806TIP3   OH262908   2.762   0.695  12.588 -0.1508  0.0381  0.0775
13806TIP3    H162909   2.671   0.670  12.607 -0.8481  1.1749 -1.6875
13806TIP3    H262910   2.771   0.782  12.627  0.0404  0.1081 -0.1216
13807TIP3   OH262911   4.691   3.506  13.124  0.6975  0.2685  0.4031
13807TIP3    H162912   4.640   3.447  13.180  1.2843  0.3086  0.9794
13807TIP3    H262913   4.653   3.494  13.036 -0.0868  0.0540  0.7655
13808TIP3   OH262914   0.844   3.433  14.399 -0.0744 -0.1643 -0.0734
13808TIP3    H162915   0.932   3.418  14.365 -0.0319 -0.3230  0.1097
13808TIP3    H262916   0.857   3.453  14.491 -0.2996 -0.9963  0.1410
13809TIP3   OH262917   1.821   4.287   5.913 -0.4252  0.0567 -0.4646
13809TIP3    H162918   1.821   4.359   5.850  0.3358  1.3385  0.9778
13809TIP3    H262919   1.777   4.323   5.990 -1.1853 -1.4425 -0.1830
13810TIP3   OH262920   3.721   5.502   0.501  0.0482  0.3009  0.1401
13810TIP3    H162921   3.809   5.501   0.464 -0.1153  0.0804 -0.2491
13810TIP3    H262922   3.718   5.427   0.560 -0.6038 -1.0508 -1.5708
13811TIP3   OH262923   3.027   0.924  14.159  0.2522 -0.2533  0.1613
13811TIP3    H162924   2.983   0.936  14.243  0.0360 -0.5147  0.0870
13811TIP3    H262925   2.981   0.983  14.099  1.2658  0.9248  0.5266
13812TIP3   OH262926   1.895   3.032   3.056 -0.1978  0.5801  0.5707
13812TIP3    H162927   1.960   3.014   3.124  1.3175  0.7422 -0.8074
13812TIP3    H262928   1.926   3.113   3.014  0.5439 -1.0845 -2.2432
13813TIP3   OH262929   4.157   3.803   1.399 -0.0356  0.7157 -0.2466
13813TIP3    H162930   4.110   3.805   1.482  1.0019  3.4875  0.3327
13813TIP3    H262931   4.239   3.757   1.419 -0.3326  0.2809 -0.0315
13814TIP3   OH262932   4.736   4.165  13.370  0.0296  0.3421  0.2745
13814TIP3    H162933   4.814   4.132  13.414 -2.0982  0.5405  4.4460
13814TIP3    H262934   4.736   4.259  13.390 -0.2975  0.6824 -1.2969
13815TIP3   OH262935   0.037   0.839  13.030 -0.3961 -0.0716 -0.5117
13815TIP3    H162936  -0.044   0.831  13.081 -0.1908  0.5471 -0.0836
13815TIP3    H262937   0.074   0.923  13.057  1.7928 -1.5720  1.3107
13816TIP3   OH262938   4.373   1.385   5.356 -0.1039  0.3110  0.2002
13816TIP3    H162939   4.389   1.477   5.378  0.1705  0.2847  0.1189
13816TIP3    H262940   4.444   1.363   5.295  1.3649 -0.6830  2.1995
13817TIP3   OH262941   0.678   5.811  15.951 -0.9730  0.1853  0.2258
13817TIP3    H162942   0.729   5.848  15.879  0.2190  1.0275  1.4556
13817TIP3    H262943   0.590   5.846  15.938 -0.7899  0.2632 -0.8573
13818TIP3   OH262944   5.166   2.916   0.614  0.5378 -0.3297 -0.1572
13818TIP3    H162945   5.200   2.866   0.688 -0.7737 -1.3204 -0.2048
13818TIP3    H262946   5.082   2.874   0.594 -0.3190  1.5408 -0.5490
13819TIP3   OH262947   5.697   5.294  13.213 -0.2143  0.1252  0.5030
13819TIP3    H162948   5.661   5.372  13.256  1.1028  0.8314  0.3635
13819TIP3    H262949   5.676   5.222  13.272 -2.6898  0.3430 -0.0316
13820TIP3   OH262950   5.429   2.532   5.265  0.5051  0.6260 -0.4593
13820TIP3    H162951   5.439   2.447   5.223  0.1924  0.9151 -1.1343
13820TIP3    H262952   5.517   2.571   5.264  1.3294 -0.9583  2.6814
13821TIP3   OH262953   5.192   5.259   4.470  0.2318  0.2007 -0.8140
13821TIP3    H162954   5.275   5.265   4.517  1.5326 -1.5957 -2.7881
13821TIP3    H262955   5.140   5.196   4.521  0.9553 -0.3852 -0.7904
13822TIP3   OH262956   0.037   0.967   0.644 -0.0475 -0.1747  0.2781
13822TIP3    H162957  -0.057   0.975   0.625  0.3214  1.4970 -0.8812
13822TIP3    H262958   0.063   0.887   0.599 -1.0250 -1.0130  1.1432
13823TIP3   OH262959   5.903   2.606   0.866 -0.2213  0.3818  0.1357
13823TIP3    H162960   5.913   2.549   0.790  2.0325 -0.3496  0.9265
13823TIP3    H262961   5.809   2.620   0.874 -0.6372 -1.2690 -1.5019
13824TIP3   OH262962   0.027   0.561   2.038  0.5077  0.8513  0.7915
13824TIP3    H162963   0.054   0.470   2.028  0.1700  0.8567 -0.2534
13824TIP3    H262964  -0.066   0.557   2.060 -0.2298  0.9903 -2.0590
13825TIP3   OH262965   3.849   1.407  16.702 -0.6620 -0.7603  0.0240
13825TIP3    H162966   3.859   1.320  16.663 -0.6008 -0.8175  0.1678
13825TIP3    H262967   3.760   1.407  16.738 -1.5726  0.1082 -2.1541
13826TIP3   OH262968   1.118   2.554  13.129  0.1383 -0.0447  0.1725
13826TIP3    H162969   1.073   2.469  13.131  2.0544 -1.1220 -0.5348
13826TIP3    H262970   1.134   2.574  13.221  0.2230 -0.7614  0.3216
13827TIP3   OH262971   1.955   5.933  15.427  0.1142 -0.5411  0.1381
13827TIP3    H162972   1.956   5.964  15.337  1.7807  1.8479  0.9253
13827TIP3    H262973   2.036   5.883  15.435 -0.3813 -1.3573  0.1357
13828TIP3   OH262974   6.162   4.042   1.788  0.8289  0.4000  0.3750
13828TIP3    H162975   6.213   4.102   1.734 -2.1884  2.9254  0.1761
13828TIP3    H262976   6.181   4.069   1.878  1.0106  0.3594  0.3481
13829TIP3   OH262977   4.637   2.982   1.178  0.5866 -0.4215 -0.4115
13829TIP3    H162978   4.661   2.923   1.250  3.1633 -0.1176 -0.9607
13829TIP3    H262979   4.581   2.930   1.121 -0.5423 -1.0198  1.2331
13830TIP3   OH262980   6.346   5.556   3.420 -0.7431 -0.6832 -1.0240
13830TIP3    H162981   6.335   5.555   3.515  3.2642 -2.4252 -0.4978
13830TIP3    H262982   6.358   5.648   3.398 -0.9287 -0.3568  0.2234
13831TIP3   OH262983   0.313   3.433  16.734  0.1421 -0.2523 -0.8579
13831TIP3    H162984   0.229   3.413  16.695 -0.6805  3.0209 -0.9380
13831TIP3    H262985   0.297   3.512  16.787  3.0248  0.1445 -0.4822
13832TIP3   OH262986   0.253   0.863   2.396 -0.2102  0.5776 -0.6369
13832TIP3    H162987   0.249   0.868   2.301  0.0156  1.2989 -0.6070
13832TIP3    H262988   0.214   0.944   2.427  0.5200  0.7450 -0.1289
13833TIP3   OH262989   6.644   3.412  16.237  0.2295  0.0120 -0.0257
13833TIP3    H162990   6.720   3.392  16.292 -0.7727 -1.1046  0.9909
13833TIP3    H262991   6.615   3.498  16.268 -0.4039 -0.6693  1.2955
13834TIP3   OH262992   5.729   0.513   1.468 -0.2725  0.1384  0.1536
13834TIP3    H162993   5.641   0.542   1.444 -0.3423 -0.4327 -0.3112
13834TIP3    H262994   5.766   0.585   1.518 -1.6604 -0.3138  1.8901
13835TIP3   OH262995   0.828   3.806   2.508  0.1388 -0.2661  0.5724
13835TIP3    H162996   0.860   3.822   2.597  1.6180 -0.4607  0.0804
13835TIP3    H262997   0.827   3.892   2.467 -0.1045 -0.2394  0.6348
13836TIP3   OH262998   3.895   4.242   0.528 -1.1320 -0.1601  0.0787
13836TIP3    H162999   3.984   4.274   0.540 -1.3375  0.3266  0.3206
13836TIP3    H263000   3.877   4.258   0.435 -1.4593  1.0110  0.3414
13837TIP3   OH263001   2.521   6.336  12.885  0.6824  0.0704 -0.3669
13837TIP3    H163002   2.601   6.389  12.875 -0.0083  0.7811 -2.2996
13837TIP3    H263003   2.550   6.259  12.933  2.0243  1.5009  1.1756
13838TIP3   OH263004   0.752   0.854   0.242 -0.2733  0.0382  0.2827
13838TIP3    H163005   0.804   0.825   0.167  0.4972  1.1881  0.3624
13838TIP3    H263006   0.782   0.799   0.314  0.6384  0.4945  0.2628
13839TIP3   OH263007   1.817   6.734  13.907  0.5548 -0.5137  0.4878
13839TIP3    H163008   1.892   6.685  13.872  0.3418  0.7802 -1.9087
13839TIP3    H263009   1.853   6.821  13.925 -0.5364  0.3756 -1.5062
13840TIP3   OH263010   1.379   2.712   0.904  0.0270 -0.1682  0.4940
13840TIP3    H163011   1.449   2.647   0.909  0.0168 -0.1910  0.3302
13840TIP3    H263012   1.396   2.771   0.978  1.1160  0.7238 -0.4634
13841TIP3   OH263013   2.326   5.538   6.043 -0.2727  0.9331  0.0674
13841TIP3    H163014   2.327   5.564   5.950 -1.0354  0.4025 -0.0897
13841TIP3    H263015   2.284   5.611   6.087  2.6942  2.5175  0.4149
13842TIP3   OH263016   2.828   6.286   0.253 -0.1611 -0.2923 -0.3516
13842TIP3    H163017   2.870   6.364   0.216  0.6360 -0.1738  0.7874
13842TIP3    H263018   2.787   6.244   0.178  0.1234  0.7724 -1.1246
13843TIP3   OH263019   3.773   3.996  10.880  0.0217 -0.1012 -0.3824
13843TIP3    H163020   3.829   4.069  10.909 -0.6875  2.1260 -4.1876
13843TIP3    H263021   3.828   3.947  10.819  0.0888 -2.1169  1.2611
13844TIP3   OH263022   0.808   6.177   3.393  0.2602  0.3945 -0.2257
13844TIP3    H163023   0.758   6.181   3.475  0.1757  0.4581 -0.2806
13844TIP3    H263024   0.805   6.266   3.358  0.3041  0.3689 -0.2934
13845TIP3   OH263025   0.714   1.874   4.257  0.0623  0.3753  0.5946
13845TIP3    H163026   0.673   1.887   4.343 -1.8739 -1.4172 -0.0083
13845TIP3    H263027   0.653   1.915   4.195  3.3086  5.0746  0.3209
13846TIP3   OH263028   3.941   0.005  13.109 -0.1073 -0.0965 -0.0312
13846TIP3    H163029   3.926  -0.064  13.044  0.7344 -0.4518  0.1548
13846TIP3    H263030   3.853   0.037  13.130 -0.7823 -3.1741  2.1514
13847TIP3   OH263031   4.854   3.683  12.425  0.4407  0.2260 -0.6399
13847TIP3    H163032   4.813   3.599  12.446  0.1772  0.0779 -1.7181
13847TIP3    H263033   4.801   3.748  12.470  2.3149 -0.3638  2.6114
13848TIP3   OH263034   6.074   0.500  15.399 -0.2440  0.3094  0.1272
13848TIP3    H163035   6.030   0.537  15.476 -0.4416  1.7006 -0.6366
13848TIP3    H263036   6.003   0.471  15.342 -0.1363  0.4935 -0.1048
13849TIP3   OH263037   6.207   6.794   1.860  0.1561 -0.2410  0.1513
13849TIP3    H163038   6.127   6.839   1.834 -0.5865 -1.1313  0.8399
13849TIP3    H263039   6.225   6.733   1.788 -0.9932 -1.5533  0.9439
13850TIP3   OH263040   4.251   3.520  11.789 -0.5325  0.0280  0.0365
13850TIP3    H163041   4.309   3.456  11.750  0.4123  0.4048  0.8168
13850TIP3    H263042   4.177   3.469  11.822  0.1673 -0.6404  0.5677
13851TIP3   OH263043   2.107   6.668  16.545 -0.3368  0.1530  0.6616
13851TIP3    H163044   2.044   6.716  16.490 -0.2228 -0.3917  0.0524
13851TIP3    H263045   2.089   6.699  16.633 -0.9110  0.6190  0.3869
13852TIP3   OH263046   3.805   6.560  15.686  0.0740 -0.2702  0.0041
13852TIP3    H163047   3.731   6.500  15.683 -0.9991  1.1102 -1.2967
13852TIP3    H263048   3.868   6.523  15.624 -0.7883  0.2007 -1.1629
13853TIP3   OH263049   1.046   6.023  14.073 -0.5828  0.2137 -0.0499
13853TIP3    H163050   1.058   6.040  13.979 -0.0128 -2.3338 -0.4774
13853TIP3    H263051   1.108   5.953  14.093 -2.2804 -0.8420  1.7172
13854TIP3   OH263052   5.879   1.737   5.100 -0.2182 -0.3238  0.0492
13854TIP3    H163053   5.881   1.698   5.013 -0.1661  0.0755 -0.1312
13854TIP3    H263054   5.965   1.777   5.110  0.2459 -1.5106  0.8170
13855TIP3   OH263055   3.812   6.107   0.258  0.5153 -0.0364 -0.0086
13855TIP3    H163056   3.717   6.099   0.245  0.2609  0.4489  1.4042
13855TIP3    H263057   3.835   6.033   0.315  0.9109  0.0907 -0.0006
13856TIP3   OH263058   4.411   4.814  16.736  0.5237  0.2955 -0.5644
13856TIP3    H163059   4.369   4.734  16.705 -1.7813  1.5705 -0.8274
13856TIP3    H263060   4.467   4.786  16.808 -2.9199 -1.0746  1.6585
13857TIP3   OH263061   3.130   5.666  14.785 -0.1099  0.1604  0.0906
13857TIP3    H163062   3.037   5.690  14.785 -0.3333 -0.6757  0.2926
13857TIP3    H263063   3.139   5.607  14.711 -0.0412 -0.8844  0.9181
13858TIP3   OH263064   5.541   0.298   3.199 -0.3870  0.5625 -0.3418
13858TIP3    H163065   5.524   0.212   3.160 -0.1341  1.1727 -1.8148
13858TIP3    H263066   5.607   0.281   3.266 -1.0569 -0.5475  0.0525
13859TIP3   OH263067   0.564   0.500  11.740  0.1911  0.0151 -0.1587
13859TIP3    H163068   0.521   0.528  11.821  1.5761  0.3095  0.5016
13859TIP3    H263069   0.500   0.515  11.672 -0.3019  1.6287  0.6405
13860TIP3   OH263070   0.302   3.718   0.804  0.0216  0.6167  0.3423
13860TIP3    H163071   0.373   3.782   0.799 -0.5560  1.2179 -0.1337
13860TIP3    H263072   0.342   3.641   0.845  0.4726  1.6361  1.8460
13861TIP3   OH263073   4.621   2.298   1.864 -0.3022 -0.0673  0.0405
13861TIP3    H163074   4.659   2.230   1.920 -0.8774  0.1617  0.7173
13861TIP3    H263075   4.552   2.254   1.815 -0.2268 -0.1222 -0.0166
13862TIP3   OH263076   5.423   5.789   2.176  0.1488 -0.3413 -0.0521
13862TIP3    H163077   5.449   5.857   2.238 -2.4399 -0.5854  1.3685
13862TIP3    H263078   5.354   5.831   2.123  0.9541 -0.7731 -1.4753
13863TIP3   OH263079   6.166   1.718  13.962 -0.3923 -0.0910 -0.2197
13863TIP3    H163080   6.147   1.806  13.929 -2.6561 -0.8157 -0.9394
13863TIP3    H263081   6.221   1.733  14.039  0.1467  1.8936 -0.9623
13864TIP3   OH263082   4.041   5.011   4.099  0.0401  0.8165 -0.2656
13864TIP3    H163083   4.080   4.927   4.125 -1.4729  0.4786  0.9993
13864TIP3    H263084   3.999   5.044   4.179 -0.8195  1.9700 -1.1675
13865TIP3   OH263085   5.786   3.740   1.374  0.1946 -0.2172 -0.4483
13865TIP3    H163086   5.757   3.726   1.464  1.8583 -1.4938 -0.0937
13865TIP3    H263087   5.817   3.831   1.372  1.9912 -0.7777  0.7954
13866TIP3   OH263088   0.849   6.253  16.277  0.3522  0.1340 -0.5088
13866TIP3    H163089   0.899   6.210  16.208  0.3277 -2.2725  0.9401
13866TIP3    H263090   0.915   6.289  16.336  0.3823 -0.1530 -0.3660
13867TIP3   OH263091   5.726   1.391  17.093  0.5407  0.3619  0.2701
13867TIP3    H163092   5.637   1.397  17.129  0.0541 -0.0098 -0.8675
13867TIP3    H263093   5.747   1.481  17.069 -0.1813  0.1928 -1.0185
13868TIP3   OH263094   0.279   1.825   1.116  0.9709 -0.1356 -0.3312
13868TIP3    H163095   0.285   1.845   1.023 -1.9409  2.0990 -0.1203
13868TIP3    H263096   0.295   1.909   1.160  0.5516 -0.7803  1.0932
13869TIP3   OH263097   1.658   1.731   3.212 -0.0508  0.5732 -0.2769
13869TIP3    H163098   1.716   1.685   3.272 -0.2977 -0.0563 -0.5117
13869TIP3    H263099   1.716   1.781   3.155  0.2020  0.8431  0.2186
13870TIP3   OH263100   5.095   6.264  15.823  0.3939 -0.4532  0.2944
13870TIP3    H163101   5.089   6.296  15.733  0.7274 -0.6558  0.2014
13870TIP3    H263102   5.029   6.315  15.871  1.2839  0.7577  0.2578
13871TIP3   OH263103   4.266   5.184  13.400  0.1413  0.7656  0.5316
13871TIP3    H163104   4.302   5.098  13.420 -0.1727  0.9153  1.7430
13871TIP3    H263105   4.210   5.169  13.324  1.8905  0.3322 -0.6999
13872TIP3   OH263106   4.208   0.852  12.937 -0.3939  0.1733  0.1294
13872TIP3    H163107   4.188   0.946  12.941 -0.7855  0.0468  1.3583
13872TIP3    H263108   4.224   0.827  13.028  4.9758  0.1513 -0.6949
13873TIP3   OH263109   2.497   2.924   4.931  0.5507  0.4910 -0.3511
13873TIP3    H163110   2.469   2.833   4.942 -2.9011  1.4101 -0.8940
13873TIP3    H263111   2.503   2.959   5.020 -2.9603  1.0432 -0.2688
13874TIP3   OH263112   6.401   6.224  11.896 -0.2645 -0.1541 -0.1869
13874TIP3    H163113   6.443   6.147  11.858  1.5985 -0.7575  2.9124
13874TIP3    H263114   6.458   6.297  11.873  0.0997 -0.3040  0.2350
13875TIP3   OH263115   6.476   1.796  12.954 -0.5057 -0.2130  0.4288
13875TIP3    H163116   6.440   1.713  12.984 -0.3875 -1.3422 -2.3339
13875TIP3    H263117   6.401   1.854  12.946 -1.1255 -1.1870 -1.0457
13876TIP3   OH263118   6.508   6.129   2.791 -0.1816  0.3700  0.2968
13876TIP3    H163119   6.589   6.156   2.835  0.5463  0.4297 -1.0565
13876TIP3    H263120   6.529   6.043   2.754 -0.8698  0.2134  0.2713
13877TIP3   OH263121   5.828   5.268  13.728 -0.7033 -0.0292 -0.1234
13877TIP3    H163122   5.779   5.281  13.647  1.3655  0.9155 -1.2668
13877TIP3    H263123   5.870   5.182  13.717 -0.2932  0.1708 -0.1285
13878TIP3   OH263124   4.618   2.484   3.471 -0.3418  0.5806  0.2042
13878TIP3    H163125   4.668   2.545   3.524 -0.6911 -0.0373  1.2445
13878TIP3    H263126   4.681   2.416   3.447  0.4543  2.0793 -2.2304
13879TIP3   OH263127   1.732   2.049   1.269  0.2783  0.0405  0.5880
13879TIP3    H163128   1.667   2.097   1.217  0.3404  0.2246  0.6799
13879TIP3    H263129   1.773   2.116   1.324 -1.0576 -0.4376  2.2004
13880TIP3   OH263130   0.606   0.650  15.738 -0.3981 -0.0757  0.1216
13880TIP3    H163131   0.555   0.724  15.772 -1.5421  0.6837 -3.1351
13880TIP3    H263132   0.557   0.573  15.765 -0.5376  0.4400  1.3891
13881TIP3   OH263133   0.296   3.094  14.063 -0.1804 -0.0322  0.0039
13881TIP3    H163134   0.227   3.028  14.054 -0.9716  0.8352 -0.3481
13881TIP3    H263135   0.376   3.043  14.073 -1.0053 -1.0815  1.5618
13882TIP3   OH263136   4.098   3.981   0.708  0.4756 -0.0211  0.2631
13882TIP3    H163137   4.051   4.035   0.772 -1.7024  0.5834 -1.7936
13882TIP3    H263138   4.188   4.012   0.713 -0.0721  1.4383  1.5732
13883TIP3   OH263139   1.366   1.500   4.371 -0.1882  0.3712 -0.1147
13883TIP3    H163140   1.377   1.437   4.299 -0.8854 -1.0800  1.0012
13883TIP3    H263141   1.455   1.519   4.400  0.2176  2.2775 -2.4048
13884TIP3   OH263142   3.566   6.094  12.069 -0.1966  0.1922  0.2482
13884TIP3    H163143   3.515   6.159  12.118  0.4342  1.0427 -0.2095
13884TIP3    H263144   3.521   6.086  11.985 -0.8301 -0.6905  0.6597
13885TIP3   OH263145   6.643   4.950   5.396  0.2681  0.3824  0.6240
13885TIP3    H163146   6.708   4.881   5.408 -0.9656 -0.8641  0.2893
13885TIP3    H263147   6.558   4.904   5.399 -0.4695  1.3924 -2.6948
13886TIP3   OH263148   1.468   2.360   6.172 -0.3412 -0.1478 -0.0517
13886TIP3    H163149   1.451   2.454   6.165 -0.1008  0.0029  1.3888
13886TIP3    H263150   1.406   2.330   6.238  1.6897 -0.4494  1.7541
13887TIP3   OH263151   1.357   4.912  16.549  0.1107 -0.0903  0.0342
13887TIP3    H163152   1.262   4.906  16.562  0.3498 -0.2219  1.7466
13887TIP3    H263153   1.390   4.825  16.569  0.6702  0.1273  0.0674
13888TIP3   OH263154   5.807   3.368   5.348  0.2053 -0.6625  0.0872
13888TIP3    H163155   5.829   3.409   5.264 -0.2313  0.1777  0.3802
13888TIP3    H263156   5.767   3.284   5.324  1.3071 -1.0272 -0.5089
13889TIP3   OH263157   0.063   5.594   4.375 -0.5701 -0.3615  0.4880
13889TIP3    H163158   0.031   5.504   4.372 -2.0389  0.1321  0.8242
13889TIP3    H263159   0.028   5.629   4.457  0.7637  0.2414  0.8180
13890TIP3   OH263160   2.193   4.769  15.266  0.6092  0.0479 -0.3081
13890TIP3    H163161   2.261   4.705  15.285  1.3173  0.5724 -1.0344
13890TIP3    H263162   2.238   4.838  15.218 -0.3904  0.5234 -0.5747
13891TIP3   OH263163   3.636   1.468   2.138  0.1989 -0.0479  0.2280
13891TIP3    H163164   3.695   1.531   2.178 -2.0029  1.6585  0.8887
13891TIP3    H263165   3.609   1.411   2.211  0.1864 -0.1672  0.1304
13892TIP3   OH263166   4.098   6.272  16.862 -0.0116 -0.5017 -0.0524
13892TIP3    H163167   4.100   6.215  16.785  0.2706 -2.5516  1.4367
13892TIP3    H263168   4.005   6.281  16.883  0.0090 -1.5547  0.5198
13893TIP3   OH263169   2.913   5.462   2.368 -0.0018 -0.0229 -0.5520
13893TIP3    H163170   2.918   5.416   2.284 -3.0646 -0.6083 -0.4783
13893TIP3    H263171   2.975   5.416   2.424  0.4202 -1.0686 -1.8476
13894TIP3   OH263172   3.015   3.632  11.773  0.1513 -0.5786  0.2247
13894TIP3    H163173   2.968   3.629  11.857  0.4605 -3.2742  0.3440
13894TIP3    H263174   3.107   3.624  11.797  0.1772 -2.4742 -0.3825
13895TIP3   OH263175   2.321   0.598  11.849 -0.1632  0.1083 -0.4255
13895TIP3    H163176   2.318   0.640  11.935 -2.5821  0.6147 -0.7330
13895TIP3    H263177   2.243   0.542  11.847  0.7097 -1.1068 -1.7009
13896TIP3   OH263178   3.929   2.580  13.104 -0.6577 -0.7533  0.1622
13896TIP3    H163179   4.025   2.571  13.108 -0.5075  1.3445  2.2427
13896TIP3    H263180   3.896   2.505  13.153  0.0033 -0.2103  1.4584
13897TIP3   OH263181   2.673   3.908   4.491  0.0909  0.6247 -0.1173
13897TIP3    H163182   2.580   3.916   4.511  0.1315  2.5657 -0.5252
13897TIP3    H263183   2.717   3.934   4.571  0.2752  0.2515 -0.0985
13898TIP3   OH263184   5.158   2.073  11.115  0.0068 -0.0442  0.0208
13898TIP3    H163185   5.166   2.034  11.028 -1.3359 -0.8853  0.2479
13898TIP3    H263186   5.087   2.137  11.106 -1.5470 -1.5711  0.9491
13899TIP3   OH263187   5.326   6.551  14.493 -0.4793  0.2499  0.0303
13899TIP3    H163188   5.414   6.560  14.458 -0.9410  0.1348 -1.1819
13899TIP3    H263189   5.330   6.591  14.580  0.4156  1.5069 -0.5859
13900TIP3   OH263190   4.109   3.104  15.395  0.6662 -0.0016  0.4740
13900TIP3    H163191   4.039   3.085  15.458  1.2085  0.2339  1.1600
13900TIP3    H263192   4.079   3.065  15.313  0.5637 -1.4976  1.2015
13901TIP3   OH263193   6.467   6.211  14.427  0.1962 -0.5015  0.1330
13901TIP3    H163194   6.443   6.261  14.349  1.0019 -0.1985  0.0778
13901TIP3    H263195   6.445   6.121  14.404 -0.3356 -0.3054 -0.1397
13902TIP3   OH263196   0.095   2.585   3.453 -0.1675 -0.1521 -0.3870
13902TIP3    H163197   0.190   2.587   3.442 -0.2102  3.2359 -0.5666
13902TIP3    H263198   0.081   2.541   3.537  1.6155  0.4159  0.2152
13903TIP3   OH263199   0.666   5.916   2.065 -0.2179  0.3802 -0.1798
13903TIP3    H163200   0.760   5.934   2.055  0.1756 -1.2531  0.2708
13903TIP3    H263201   0.632   5.991   2.112  1.3120  0.0188  1.5893
13904TIP3   OH263202   6.812   2.033   0.635  0.0927  0.5997 -0.0700
13904TIP3    H163203   6.834   1.949   0.594  0.2869 -0.2636  1.7207
13904TIP3    H263204   6.739   2.067   0.583  0.2911 -0.4729 -1.0823
13905TIP3   OH263205   5.974   0.402   4.906 -0.7818  0.0565  0.5132
13905TIP3    H163206   6.057   0.366   4.936  0.1504  0.7039 -1.2561
13905TIP3    H263207   5.931   0.330   4.861  0.7924  0.8986 -2.4453
13906TIP3   OH263208   4.229   4.058  16.071  0.3144 -0.4775 -0.7088
13906TIP3    H163209   4.312   4.071  16.024 -0.1563  0.7455 -1.2113
13906TIP3    H263210   4.241   4.101  16.155  0.4594 -0.9739 -0.4733
13907TIP3   OH263211   5.031   1.930   3.768 -0.0104 -0.1312  0.5748
13907TIP3    H163212   5.033   1.908   3.861  1.2338 -1.3713  0.2881
13907TIP3    H263213   5.064   1.851   3.725 -2.5355 -0.3421 -1.0798
13908TIP3   OH263214   6.054   3.364   1.951 -0.2605 -0.8726  0.0753
13908TIP3    H163215   6.080   3.455   1.966  0.5025 -0.9823 -0.4950
13908TIP3    H263216   6.111   3.313   2.008  0.6499 -1.0977 -0.9909
13909TIP3   OH263217   0.308   2.653   2.746 -0.7376  0.2666 -0.5378
13909TIP3    H163218   0.264   2.738   2.749  0.6124  0.9382  1.8346
13909TIP3    H263219   0.382   2.662   2.806 -1.1028 -2.8616  0.5079
13910TIP3   OH263220   2.703   2.752   3.932  0.7647 -0.1000  0.1701
13910TIP3    H163221   2.784   2.746   3.982  0.3394  0.9001  0.9973
13910TIP3    H263222   2.658   2.669   3.949  0.8932 -0.0055  0.9755
13911TIP3   OH263223   2.785   0.890   0.951 -0.2511  0.2972 -0.2679
13911TIP3    H163224   2.818   0.980   0.943  0.0566  0.2319  0.2152
13911TIP3    H263225   2.744   0.872   0.867  1.1263  0.3179 -0.9576
13912TIP3   OH263226   5.673   6.025  10.732  0.5140  0.1707  0.4978
13912TIP3    H163227   5.585   6.006  10.699  0.1218  0.8903  1.1089
13912TIP3    H263228   5.729   6.019  10.655 -0.2588  0.9159 -0.1365
13913TIP3   OH263229   0.891   1.394  12.592  0.1306 -0.0168 -0.3311
13913TIP3    H163230   0.893   1.485  12.620  0.1258 -0.1264  0.0239
13913TIP3    H263231   0.814   1.388  12.535  0.0223  0.1526 -0.2004
13914TIP3   OH263232   2.893   6.776   5.148  0.3736 -0.6712  0.2852
13914TIP3    H163233   2.874   6.740   5.234  1.3204 -0.0835  0.7489
13914TIP3    H263234   2.854   6.864   5.149 -1.5842 -1.4987 -0.6992
13915TIP3   OH263235   5.705   5.815  14.400  0.0766  0.2880 -0.0548
13915TIP3    H163236   5.648   5.747  14.436 -0.1040  0.2393 -0.4307
13915TIP3    H263237   5.759   5.844  14.474  0.7826 -0.8936 -0.1024
13916TIP3   OH263238   1.712   3.795  11.310 -0.2083  0.6377 -0.1413
13916TIP3    H163239   1.724   3.890  11.309 -1.6898  0.8392 -0.7139
13916TIP3    H263240   1.625   3.783  11.349  0.0201 -0.4859  0.0299
13917TIP3   OH263241   6.162   0.899  12.185  0.2458 -0.2136 -0.0883
13917TIP3    H163242   6.074   0.863  12.198  1.0127 -1.5670  1.6277
13917TIP3    H263243   6.217   0.822  12.169  1.4685  0.4238  0.9783
13918TIP3   OH263244   4.836   6.215  12.784 -0.3436 -0.1246  0.1927
13918TIP3    H163245   4.915   6.265  12.762  0.0846 -0.5680  0.7075
13918TIP3    H263246   4.798   6.191  12.700 -0.7675  1.3996 -0.0712
13919TIP3   OH263247   6.463   4.315   3.115  0.2080  0.8698 -0.4839
13919TIP3    H163248   6.555   4.300   3.137  0.3099  0.7774 -0.9797
13919TIP3    H263249   6.414   4.258   3.175  0.5274 -0.2224 -1.2563
13920TIP3   OH263250   1.799   2.468  16.995  0.5471  0.1717  0.1769
13920TIP3    H163251   1.888   2.434  17.001  0.4604  0.1565  1.5260
13920TIP3    H263252   1.782   2.507  17.081  0.3614  2.9571 -1.0720
13921TIP3   OH263253   0.320   1.489   3.295  0.2879 -0.7242  0.1753
13921TIP3    H163254   0.412   1.515   3.284 -0.1518  0.6763 -0.2558
13921TIP3    H263255   0.298   1.516   3.384  0.0027 -0.1503 -0.0688
13922TIP3   OH263256   0.309   4.431  10.485  0.0410  0.1962 -0.2416
13922TIP3    H163257   0.385   4.373  10.484 -0.1595 -0.0693 -0.1987
13922TIP3    H263258   0.242   4.384  10.435 -0.3243  0.1177  0.3205
13923TIP3   OH263259   3.701   6.556  12.302 -0.0963  0.1098  0.3037
13923TIP3    H163260   3.712   6.477  12.355 -0.9409 -1.7024 -2.1174
13923TIP3    H263261   3.647   6.614  12.355 -0.5390 -1.4735  1.5997
13924TIP3   OH263262   5.452   5.079   3.046  0.5771 -0.0022  0.3263
13924TIP3    H163263   5.460   5.076   2.951  1.7356 -1.1702  0.4465
13924TIP3    H263264   5.513   5.012   3.078  1.7724  1.8058  1.9702
13925TIP3   OH263265   5.330   2.991   5.989 -0.3047 -0.0759 -0.6297
13925TIP3    H163266   5.290   3.015   6.073  1.6468 -0.0197  0.3042
13925TIP3    H263267   5.307   3.063   5.930  1.0094  1.4918  0.7275
13926TIP3   OH263268   5.552   6.092   3.925 -0.1282 -0.5555 -1.1306
13926TIP3    H163269   5.594   6.013   3.959  1.4162  1.1622  1.0800
13926TIP3    H263270   5.459   6.079   3.945  0.0960 -1.8172 -0.8163
13927TIP3   OH263271   2.548   3.906   6.704 -0.0547  0.0022  0.2129
13927TIP3    H163272   2.480   3.863   6.651  1.6462 -0.1347 -1.9530
13927TIP3    H263273   2.503   3.980   6.745 -1.6275 -0.3544 -0.8010
13928TIP3   OH263274   6.722   2.849   6.035  0.1981 -0.0282 -0.0619
13928TIP3    H163275   6.720   2.932   6.081  0.9236  0.3414 -0.6779
13928TIP3    H263276   6.785   2.796   6.084  1.4960  0.6071 -1.0091
13929TIP3   OH263277   4.977   0.168  12.227  0.5938 -0.2592 -0.5342
13929TIP3    H163278   4.932   0.148  12.145  1.0609 -0.8268 -0.6597
13929TIP3    H263279   5.062   0.125  12.218  1.0701  0.6039 -0.2009
13930TIP3   OH263280   4.793   3.282   5.581  0.3270  0.3975 -0.2118
13930TIP3    H163281   4.757   3.362   5.619 -1.4626 -0.3396 -0.3062
13930TIP3    H263282   4.721   3.243   5.533  1.9972  0.2433 -2.6779
13931TIP3   OH263283   2.303   5.570  14.267  0.1016  0.5166 -0.0179
13931TIP3    H163284   2.303   5.665  14.281  0.3181  0.6112 -0.6443
13931TIP3    H263285   2.286   5.533  14.354 -1.3490  1.1724 -0.0048
13932TIP3   OH263286   0.188   0.046   2.019 -0.0249  0.3102 -0.1649
13932TIP3    H163287   0.122   0.017   1.956 -0.1146  2.8858 -1.3221
13932TIP3    H263288   0.172  -0.007   2.097 -1.7990 -0.8995 -1.3233
13933TIP3   OH263289   5.102   0.845  15.601  0.1508 -0.0601 -0.1916
13933TIP3    H163290   5.123   0.924  15.650 -2.9569  1.1138 -0.6235
13933TIP3    H263291   5.166   0.843  15.530  0.1797  2.1464 -0.2586
13934TIP3   OH263292   0.010   4.224   5.515 -0.1013  0.1603 -0.4640
13934TIP3    H163293   0.092   4.272   5.507 -1.1905  2.4442  1.4552
13934TIP3    H263294  -0.053   4.275   5.465 -1.1418  0.4202  1.0727
13935TIP3   OH263295   0.662   4.146   3.992  0.2279 -0.0196  0.8861
13935TIP3    H163296   0.635   4.193   3.913 -1.6048 -0.8283  1.0253
13935TIP3    H263297   0.717   4.075   3.959  1.3131  0.9538  0.5293
13936TIP3   OH263298   5.874   3.016   1.615  0.1947  0.1794  0.3802
13936TIP3    H163299   5.959   3.039   1.578 -0.0547  2.0748  0.9516
13936TIP3    H263300   5.844   2.943   1.561  1.9972 -0.2606 -0.0789
13937TIP3   OH263301   0.552   0.226  11.175 -0.0190 -0.4760 -0.0787
13937TIP3    H163302   0.601   0.146  11.159  2.4696  0.9210  0.3631
13937TIP3    H263303   0.553   0.272  11.092  0.6379  0.2029  0.3027
13938TIP3   OH263304   2.859   3.006  14.815 -0.5315  0.1535  0.4792
13938TIP3    H163305   2.949   3.029  14.841 -1.2965  2.3092  1.3200
13938TIP3    H263306   2.851   3.040  14.726 -0.4819 -0.0932  0.3818
13939TIP3   OH263307   5.838   5.768   5.912  0.2924 -0.0985 -0.3148
13939TIP3    H163308   5.809   5.683   5.946  0.7057  0.0888  0.4971
13939TIP3    H263309   5.890   5.807   5.983  0.3066  0.7295 -0.7723
13940TIP3   OH263310   0.259   5.791   0.584 -0.5635  0.7551 -0.2193
13940TIP3    H163311   0.261   5.733   0.508 -1.5026  0.1834  0.1789
13940TIP3    H263312   0.244   5.732   0.658  1.7735  1.1271  0.6056
13941TIP3   OH263313   3.965   6.147  13.759 -0.6790 -1.0065  0.4199
13941TIP3    H163314   3.942   6.100  13.678 -0.8947 -0.6600  0.2788
13941TIP3    H263315   3.967   6.080  13.826  0.8793 -1.5378 -0.1335
13942TIP3   OH263316   1.106   3.232  10.737  0.6305 -0.2405 -0.2232
13942TIP3    H163317   1.127   3.312  10.690 -0.3224  0.1836  0.0548
13942TIP3    H263318   1.073   3.173  10.669 -0.3314  0.2194 -0.1585
13943TIP3   OH263319   6.652   4.572   3.087 -0.2755 -0.1750  0.4151
13943TIP3    H163320   6.669   4.482   3.113  0.9308 -0.2304 -0.4756
13943TIP3    H263321   6.725   4.622   3.123 -0.7844  0.4058  0.6571
13944TIP3   OH263322   3.763   2.629  14.827 -0.4826  0.5826  0.0381
13944TIP3    H163323   3.761   2.546  14.779  1.2269 -0.2651  1.3690
13944TIP3    H263324   3.672   2.657  14.830 -1.5545 -2.8247  2.2043
13945TIP3   OH263325   5.517   0.156   4.918  0.3529 -0.1797  0.0389
13945TIP3    H163326   5.463   0.208   4.978 -1.1311 -2.0617  0.3575
13945TIP3    H263327   5.570   0.101   4.975  0.7663 -0.1567 -0.3225
13946TIP3   OH263328   4.024   6.497  11.734  0.2921 -0.5823 -0.7609
13946TIP3    H163329   4.037   6.438  11.660 -2.1637 -1.1605 -0.7710
13946TIP3    H263330   3.954   6.556  11.705 -0.0383 -0.2228  0.7468
13947TIP3   OH263331   3.841   6.751  16.141  0.3068  0.0853  0.3026
13947TIP3    H163332   3.898   6.688  16.097  0.7435  0.4746  0.3075
13947TIP3    H263333   3.823   6.818  16.075 -0.0917 -0.0000  0.3206
13948TIP3   OH263334   0.878   0.503  17.143 -0.6543  0.3615 -0.7706
13948TIP3    H163335   0.841   0.483  17.057 -0.8057  2.5959 -1.2534
13948TIP3    H263336   0.961   0.546  17.124  0.3541 -1.0858  0.2598
13949TIP3   OH263337   3.033   4.441  15.191 -0.5568 -0.3586 -0.2004
13949TIP3    H163338   3.048   4.408  15.102  2.2933 -0.8185  0.3969
13949TIP3    H263339   3.082   4.523  15.195 -3.5395  1.4916 -0.1056
13950TIP3   OH263340   5.582   3.858   2.268  0.6298  0.0084  0.1080
13950TIP3    H163341   5.656   3.808   2.235  0.7797 -0.6082  1.3406
13950TIP3    H263342   5.542   3.802   2.334  0.8203  1.5243  1.5530
13951TIP3   OH263343   4.899   0.663  11.141  0.0383  0.1599  0.0483
13951TIP3    H163344   4.992   0.655  11.124  0.0747  1.1088 -0.1935
13951TIP3    H263345   4.857   0.618  11.067  0.3095 -0.9194  0.5422
13952TIP3   OH263346   3.713   1.002   3.696 -0.5984 -0.4252  0.2259
13952TIP3    H163347   3.799   1.000   3.738 -0.4122 -0.4106 -0.1512
13952TIP3    H263348   3.708   1.089   3.655 -0.8809 -0.3446  0.4344
13953TIP3   OH263349   2.934   2.961   3.918 -0.1758 -0.1991  0.3913
13953TIP3    H163350   2.958   2.898   3.987  0.1789 -1.2964 -0.7264
13953TIP3    H263351   3.016   3.005   3.897 -0.1105 -0.4791  0.0575
13954TIP3   OH263352   0.202   5.670   4.165  0.0800 -0.3102  0.0793
13954TIP3    H163353   0.201   5.681   4.070  0.1349  2.5515  0.3499
13954TIP3    H263354   0.115   5.638   4.187 -0.5367  0.7711 -0.7676
13955TIP3   OH263355   6.386   1.425  13.553 -0.0631  0.3632  0.1251
13955TIP3    H163356   6.302   1.427  13.507  0.1182 -1.4360 -0.3136
13955TIP3    H263357   6.449   1.398  13.487  0.2189 -2.0830  1.3466
13956TIP3   OH263358   5.998   1.159  12.771  0.2375  0.1561  0.1399
13956TIP3    H163359   5.990   1.067  12.747 -1.8076  0.3877 -0.1131
13956TIP3    H263360   5.990   1.160  12.866 -0.3536  0.1297  0.0916
13957TIP3   OH263361   6.479   2.751   6.210 -0.1797 -0.1305  0.1452
13957TIP3    H163362   6.462   2.720   6.121 -0.4750 -0.0398  0.1672
13957TIP3    H263363   6.574   2.760   6.215 -0.2211  0.7000 -0.4424
13958TIP3   OH263364   4.505   0.015  15.582 -0.4782  0.0137  0.3636
13958TIP3    H163365   4.578  -0.046  15.590  0.3154  0.6257 -1.9498
13958TIP3    H263366   4.436  -0.023  15.637  1.1371 -1.2048  1.5948
13959TIP3   OH263367   2.236   5.212   3.834  0.2922  0.3103 -0.3358
13959TIP3    H163368   2.147   5.241   3.852  0.0210 -1.6921  1.7177
13959TIP3    H263369   2.286   5.237   3.911  1.5630  1.5129 -1.5141
13960TIP3   OH263370   2.648   3.092  12.956 -0.6284  0.4429  0.5312
13960TIP3    H163371   2.575   3.049  13.001 -1.0689  0.1716 -0.4446
13960TIP3    H263372   2.720   3.090  13.020 -0.6782 -1.6091  0.5399
13961TIP3   OH263373   2.002   5.735  11.536  0.3558  0.7397 -0.0764
13961TIP3    H163374   2.081   5.756  11.486  1.4212  1.1444  1.7210
13961TIP3    H263375   1.987   5.642  11.519  0.9959  0.7581 -0.7501
13962TIP3   OH263376   2.169   4.655   0.479  0.2022 -0.2860  0.3164
13962TIP3    H163377   2.217   4.682   0.400  0.3212  0.8112  0.7395
13962TIP3    H263378   2.097   4.602   0.447 -0.4539  1.1350 -0.6469
13963TIP3   OH263379   5.997   0.236  10.446 -0.1177  0.3595  0.4515
13963TIP3    H163380   5.956   0.315  10.479 -1.8120 -0.7686  1.1290
13963TIP3    H263381   5.928   0.192  10.396  1.5973  0.6542 -2.2802
13964TIP3   OH263382   4.093   2.443  14.414 -0.1811  0.3985 -0.2673
13964TIP3    H163383   4.058   2.491  14.338 -1.3261 -0.5234 -0.3308
13964TIP3    H263384   4.187   2.435  14.395 -0.8245 -1.9314 -2.7727
13965TIP3   OH263385   5.634   2.785  14.568 -0.3426  0.5543 -0.9910
13965TIP3    H163386   5.670   2.824  14.648 -0.7312 -1.2652  0.0964
13965TIP3    H263387   5.542   2.809  14.569 -0.1934  1.1649 -1.3037
13966TIP3   OH263388   5.351   2.208   0.600 -0.3175  0.0289 -0.1731
13966TIP3    H163389   5.437   2.172   0.622  0.2246  1.5407  0.2223
13966TIP3    H263390   5.335   2.274   0.667 -1.7635 -0.1767 -0.2898
13967TIP3   OH263391   3.221   0.395   5.366  0.3498 -0.2071  0.1025
13967TIP3    H163392   3.224   0.441   5.282 -1.2830  0.9206  0.6289
13967TIP3    H263393   3.266   0.453   5.427  3.6881 -2.1113 -0.4184
13968TIP3   OH263394   6.446   1.143  14.549 -0.0322 -0.3154  0.7843
13968TIP3    H163395   6.436   1.239  14.545  2.5404 -0.1133 -2.9863
13968TIP3    H263396   6.375   1.110  14.494 -1.2580 -0.6604  2.5292
13969TIP3   OH263397   4.726   2.143   4.782  0.4350  0.1973 -0.4850
13969TIP3    H163398   4.795   2.087   4.818 -0.6340  0.3231  1.8566
13969TIP3    H263399   4.756   2.232   4.800 -0.2277  0.2548  0.3774
13970TIP3   OH263400   1.094   1.147   5.993 -0.1104  0.3030 -0.3547
13970TIP3    H163401   1.096   1.058   5.959 -1.0647  0.5525 -1.0650
13970TIP3    H263402   1.175   1.187   5.960  0.6580 -0.4925  0.5293
13971TIP3   OH263403   5.138   5.370   1.066 -0.1386  0.2054 -0.2823
13971TIP3    H163404   5.100   5.403   0.985 -0.8224  1.2671  0.4487
13971TIP3    H263405   5.084   5.408   1.135  1.5984  0.8792  0.7461
13972TIP3   OH263406   3.429   4.651  16.556  0.2027 -0.3183 -0.7007
13972TIP3    H163407   3.389   4.648  16.643  0.6508 -1.4060 -0.5191
13972TIP3    H263408   3.357   4.633  16.496 -0.3553  1.6385 -0.6524
13973TIP3   OH263409   5.416   1.457   5.838 -0.0108  0.2604  0.4937
13973TIP3    H163410   5.402   1.480   5.930  0.3208  0.1020  0.5853
13973TIP3    H263411   5.413   1.361   5.836 -0.3766  0.2728  0.2798
13974TIP3   OH263412   0.404   2.884  13.828  0.3710  0.1703  0.4835
13974TIP3    H163413   0.468   2.878  13.898 -0.1493  0.5632  0.9930
13974TIP3    H263414   0.370   2.974  13.833  1.0200  0.5097 -0.8733
13975TIP3   OH263415   4.851   6.460  10.863 -0.1912 -0.3032  0.0626
13975TIP3    H163416   4.795   6.481  10.939 -0.5987  0.1759 -0.3654
13975TIP3    H263417   4.789   6.444  10.792  0.0865 -3.1276  0.3854
13976TIP3   OH263418   2.504   6.156  16.207 -0.1474  0.2549  0.5180
13976TIP3    H163419   2.505   6.243  16.168 -1.8143  1.3018  2.6848
13976TIP3    H263420   2.559   6.163  16.285  1.1759 -1.1321 -0.2787
13977TIP3   OH263421   4.268   3.555   2.732 -0.4807  0.6954  0.2086
13977TIP3    H163422   4.228   3.581   2.815 -0.1599  0.0594  0.5691
13977TIP3    H263423   4.195   3.536   2.674 -0.7073  1.2914  0.3008
13978TIP3   OH263424   3.259   1.214  13.308  0.6018  0.6204 -0.2521
13978TIP3    H163425   3.195   1.148  13.335  0.2465  0.6175 -1.0964
13978TIP3    H263426   3.291   1.182  13.223  1.6120  0.6935  0.0942
13979TIP3   OH263427   4.002   3.677  14.977  0.7447 -0.2188 -0.2434
13979TIP3    H163428   3.928   3.697  14.920 -0.6395 -1.7307  0.9725
13979TIP3    H263429   3.996   3.582  14.991  1.3597  0.0550  1.9914
13980TIP3   OH263430   0.995   1.895  15.780 -0.3862  0.2580  0.6386
13980TIP3    H163431   0.903   1.868  15.785 -0.0159 -1.1054  0.4935
13980TIP3    H263432   1.000   1.948  15.701 -1.4744  2.1656  1.8177
13981TIP3   OH263433   2.419   0.185   0.302  0.3506 -0.2549 -0.4404
13981TIP3    H163434   2.340   0.185   0.356  0.1788 -1.3075 -0.6780
13981TIP3    H263435   2.454   0.097   0.312  2.7863  0.8795  1.5093
13982TIP3   OH263436   3.486   3.850  14.647 -0.3410  0.2440  0.3364
13982TIP3    H163437   3.571   3.890  14.659 -0.3519 -0.5505  3.6155
13982TIP3    H263438   3.430   3.891  14.713 -1.8491 -0.9725 -0.1394
13983TIP3   OH263439   3.427   2.114  13.766 -0.5827 -0.5477  0.0381
13983TIP3    H163440   3.501   2.159  13.806 -0.6961  1.4791 -1.9034
13983TIP3    H263441   3.434   2.024  13.796  2.2902 -0.2391  0.4163
13984TIP3   OH263442   6.195   5.696  16.991  0.3596 -0.2232 -0.4654
13984TIP3    H163443   6.115   5.748  16.986 -0.7432 -1.6738  1.2659
13984TIP3    H263444   6.245   5.735  17.063  0.3723 -0.4701 -0.3422
13985TIP3   OH263445   5.591   3.009  12.994 -0.4014  0.4289 -0.1854
13985TIP3    H163446   5.644   3.043  13.066  0.3203  0.4631 -0.7325
13985TIP3    H263447   5.612   3.065  12.920 -0.7015  0.0245 -0.5816
13986TIP3   OH263448   1.000   4.207   0.665 -0.0272  0.3820 -0.2223
13986TIP3    H163449   1.087   4.167   0.655  0.7806  2.0551  0.0756
13986TIP3    H263450   0.955   4.150   0.727  0.8512 -0.4809 -0.3569
13987TIP3   OH263451   3.986   0.297   4.690 -0.2148  0.5153  0.0314
13987TIP3    H163452   3.917   0.363   4.699 -0.0975  1.0424 -2.6402
13987TIP3    H263453   4.065   0.347   4.669  0.4391 -0.2969  0.4874
13988TIP3   OH263454   0.553   6.767   1.748 -0.1291  0.3421 -0.6139
13988TIP3    H163455   0.585   6.850   1.714 -0.9596  0.1459 -1.8950
13988TIP3    H263456   0.604   6.701   1.702 -0.2355  0.1081 -0.3973
13989TIP3   OH263457   6.404   1.160   4.698  0.6951 -0.1002  0.1294
13989TIP3    H163458   6.312   1.177   4.680  0.3538 -1.2899  0.6805
13989TIP3    H263459   6.452   1.209   4.632 -0.3750 -0.5067 -0.9596
13990TIP3   OH263460   1.709   0.515  14.336  0.5159  0.3301  0.1593
13990TIP3    H163461   1.793   0.557  14.318 -0.2172  1.9846  0.5175
13990TIP3    H263462   1.726   0.457  14.410  1.1383  1.3499  0.8175
13991TIP3   OH263463   0.059   2.231  16.871  0.2623 -0.0039  0.3016
13991TIP3    H163464  -0.029   2.200  16.849  0.7862 -1.2540 -0.1229
13991TIP3    H263465   0.075   2.198  16.959  1.3257 -2.1490 -0.6431
13992TIP3   OH263466   0.280   6.199  14.373  0.5905 -0.0023 -0.4436
13992TIP3    H163467   0.287   6.279  14.425  1.0034  0.5036 -1.2667
13992TIP3    H263468   0.351   6.143  14.405  0.0028 -0.2430  0.4673
13993TIP3   OH263469   2.430   2.279  14.187 -0.1905 -0.7262 -0.0833
13993TIP3    H163470   2.524   2.274  14.200  0.1897 -1.4510 -2.7761
13993TIP3    H263471   2.418   2.260  14.094 -2.7818  2.0010 -0.3613
13994TIP3   OH263472   2.407   0.054   3.035 -0.0858 -0.7566  0.0734
13994TIP3    H163473   2.476  -0.010   3.017 -1.0139 -1.1604 -2.1292
13994TIP3    H263474   2.357   0.015   3.107 -0.8208 -2.6504 -1.4432
13995TIP3   OH263475   6.737   2.629   6.253  0.0673 -0.6323  0.3734
13995TIP3    H163476   6.697   2.547   6.282  0.7920 -0.9635  0.4653
13995TIP3    H263477   6.731   2.687   6.329  0.3484 -0.9010  0.6053
13996TIP3   OH263478   6.371   2.061   4.586  0.1728 -0.1453  0.3859
13996TIP3    H163479   6.384   2.122   4.659 -0.3844 -0.5383  0.8211
13996TIP3    H263480   6.377   2.115   4.507  0.1309  0.3930  0.7537
13997TIP3   OH263481   2.955   1.049  13.844 -0.3829  0.0714 -0.0798
13997TIP3    H163482   3.046   1.047  13.815 -0.8254  0.6483 -1.5777
13997TIP3    H263483   2.912   0.982  13.791 -1.4013  1.7760 -1.4536
13998TIP3   OH263484   1.629   0.009  15.553 -0.3101  0.0342 -0.6554
13998TIP3    H163485   1.577  -0.070  15.569  0.9055 -0.7788 -0.6641
13998TIP3    H263486   1.564   0.079  15.542 -1.3307 -0.5684  1.4233
13999TIP3   OH263487   5.220   6.664  12.810  0.0259 -0.3529  0.4004
13999TIP3    H163488   5.210   6.756  12.832 -1.0442 -0.8502  2.0013
13999TIP3    H263489   5.135   6.637  12.777  0.6946 -0.4566 -1.3068
14000TIP3   OH263490   1.566   0.578   1.214 -0.2178 -0.5373  0.9280
14000TIP3    H163491   1.645   0.527   1.197 -0.0404 -0.3773  1.2665
14000TIP3    H263492   1.528   0.537   1.292 -0.2376 -0.3426  1.0195
14001TIP3   OH263493   3.936   3.275  13.839 -0.2190  0.2128  0.1129
14001TIP3    H163494   3.886   3.194  13.852 -0.3152  0.4064  1.0452
14001TIP3    H263495   3.973   3.268  13.751 -0.1897 -0.8695  0.2086
14002TIP3   OH263496   2.045   6.402  15.570  0.1757  0.0315 -0.0005
14002TIP3    H163497   2.068   6.363  15.654 -1.1167  1.4771  1.0364
14002TIP3    H263498   2.108   6.363  15.508 -0.4199 -2.9292  1.1396
14003TIP3   OH263499   0.363   0.195  14.611  0.3034  0.1258  0.1721
14003TIP3    H163500   0.338   0.228  14.697 -0.2144  0.5076 -0.1186
14003TIP3    H263501   0.292   0.222  14.553  0.7446  0.0561 -0.4162
14004TIP3   OH263502   3.033   1.239  16.014  0.3531 -0.0867  0.1861
14004TIP3    H163503   2.979   1.160  16.003  1.3439 -0.7971  0.3208
14004TIP3    H263504   2.970   1.310  16.021 -0.5143 -0.6180 -1.8918
14005TIP3   OH263505   3.201   5.085   4.670 -0.2133 -0.1722  0.3876
14005TIP3    H163506   3.261   5.015   4.645 -0.5153 -0.2600 -0.1118
14005TIP3    H263507   3.135   5.042   4.725 -0.3675 -0.2743  0.1268
14006TIP3   OH263508   1.833   3.833  12.278 -0.2060 -0.3791  0.5740
14006TIP3    H163509   1.759   3.803  12.330 -0.1693  2.4013  2.3445
14006TIP3    H263510   1.900   3.766  12.292 -0.8716 -0.6767  2.5882
14007TIP3   OH263511   0.524   4.791  14.341 -0.1645  0.4121  0.2864
14007TIP3    H163512   0.519   4.696  14.336  0.4073  0.4113 -0.3980
14007TIP3    H263513   0.618   4.810  14.340 -0.2874  1.0200 -0.2788
14008TIP3   OH263514   1.543   4.749   1.337 -0.2782 -0.4185  0.6215
14008TIP3    H163515   1.482   4.797   1.393 -0.1917  0.7774 -0.2761
14008TIP3    H263516   1.621   4.805   1.333 -0.2674 -0.5171 -0.6521
14009TIP3   OH263517   1.965   0.075   1.441  0.2385 -0.9145  0.2079
14009TIP3    H163518   1.968   0.056   1.347 -0.3071 -1.6954  0.3514
14009TIP3    H263519   1.931   0.165   1.446 -1.5474 -1.5459 -0.2580
14010TIP3   OH263520   1.878   6.145   2.474 -0.2003 -0.1674 -0.1659
14010TIP3    H163521   1.834   6.230   2.471 -0.5517 -0.2732  1.8099
14010TIP3    H263522   1.960   6.161   2.519 -0.1739 -0.8458  0.0308
14011TIP3   OH263523   3.447   2.159  15.458 -0.3405 -0.1702 -0.1838
14011TIP3    H163524   3.367   2.111  15.438 -0.6658  0.4462 -0.3877
14011TIP3    H263525   3.456   2.153  15.553  1.0251 -2.8211 -0.4338
14012TIP3   OH263526   6.543   3.525   1.819 -0.0063 -0.3915 -0.6421
14012TIP3    H163527   6.485   3.595   1.789  0.6224  0.0151 -0.9238
14012TIP3    H263528   6.493   3.479   1.886 -0.3039  0.5317 -0.2232
14013TIP3   OH263529   4.979   6.281  15.197  0.1070  0.2362  0.2492
14013TIP3    H163530   5.002   6.208  15.140  0.1241 -1.2043  2.0627
14013TIP3    H263531   5.035   6.353  15.169  0.2856 -0.5179 -1.3692
14014TIP3   OH263532   6.767   4.444  13.372 -0.3633 -0.4459  0.1362
14014TIP3    H163533   6.811   4.394  13.303 -0.2629 -0.5002  0.2409
14014TIP3    H263534   6.675   4.423  13.361 -0.3989 -0.0979 -0.2798
14015TIP3   OH263535   4.475   1.550   3.362 -0.1285  0.0137 -0.5204
14015TIP3    H163536   4.422   1.602   3.422  0.5150  0.7618 -0.5805
14015TIP3    H263537   4.417   1.531   3.289  0.2974  2.7681 -1.6615
14016TIP3   OH263538   5.107   0.976  14.758  0.4912 -0.0080 -0.2983
14016TIP3    H163539   5.074   1.056  14.801 -1.3740 -1.3581  0.8895
14016TIP3    H263540   5.179   1.006  14.704 -0.1442  2.4955  0.1596
14017TIP3   OH263541   3.067   1.295  14.291  0.0674 -0.2587 -0.3303
14017TIP3    H163542   3.032   1.218  14.337 -0.2171  0.0920  0.0427
14017TIP3    H263543   3.034   1.286  14.202 -0.4106 -0.2936 -0.1536
14018TIP3   OH263544   5.624   3.531   3.320  1.0423 -0.4243  0.2907
14018TIP3    H163545   5.671   3.578   3.388  1.0406  0.4656 -0.3212
14018TIP3    H263546   5.675   3.545   3.241  1.6321 -2.3554  0.3026
14019TIP3   OH263547   0.935   0.222   3.638  0.1807  0.1966  0.2198
14019TIP3    H163548   0.868   0.153   3.645  0.8902 -0.5207  0.0700
14019TIP3    H263549   1.015   0.180   3.669  1.1292  0.2187 -2.1068
14020TIP3   OH263550   1.124   0.233   2.970 -0.0230  0.5524  0.2295
14020TIP3    H163551   1.139   0.255   3.062 -1.6601  0.5986  0.5027
14020TIP3    H263552   1.099   0.315   2.930 -1.2012  0.1708  0.1653
14021TIP3   OH263553   2.686   5.929   0.832  0.4055 -0.4888  0.4698
14021TIP3    H163554   2.752   5.884   0.885 -1.5404 -1.6361  1.9923
14021TIP3    H263555   2.679   5.876   0.753  1.4063 -0.2701  0.2237
14022TIP3   OH263556   0.354   0.856   5.842 -0.7689  0.2325  0.1543
14022TIP3    H163557   0.297   0.877   5.767 -0.1379 -1.0224 -0.7068
14022TIP3    H263558   0.442   0.882   5.813 -0.3611 -1.2343  0.0341
14023TIP3   OH263559   4.975   2.220  16.255  0.0169  0.3547  0.2262
14023TIP3    H163560   5.027   2.148  16.219  0.9261  0.2861  1.6411
14023TIP3    H263561   5.038   2.291  16.270 -0.2500  0.2526  1.9835
14024TIP3   OH263562   4.925   2.767  13.785 -0.0603 -0.0672  0.1020
14024TIP3    H163563   4.969   2.698  13.736  0.3162 -0.0984  0.4812
14024TIP3    H263564   4.931   2.844  13.728 -0.0108 -0.2110 -0.0885
14025TIP3   OH263565   5.287   6.066  11.495  0.2586 -0.6743 -1.0201
14025TIP3    H163566   5.345   5.996  11.526  0.5658  0.4379  0.9636
14025TIP3    H263567   5.340   6.145  11.500 -1.6580  0.5123  1.7182
14026TIP3   OH263568   5.441   5.678  12.611 -0.4896  0.2511 -0.4392
14026TIP3    H163569   5.450   5.768  12.579 -1.0253  0.3734 -0.2626
14026TIP3    H263570   5.415   5.687  12.702  0.6480 -0.1002 -0.0775
14027TIP3   OH263571   3.126   3.846   5.960 -0.1938  0.5238  0.2818
14027TIP3    H163572   3.203   3.836   6.016 -0.9785  0.9003  1.4316
14027TIP3    H263573   3.053   3.819   6.015 -0.7476 -1.2311 -1.2667
14028TIP3   OH263574   4.439   5.520  12.980 -0.2590  0.0871  0.1233
14028TIP3    H163575   4.482   5.477  13.055 -1.1643 -3.5547 -1.3307
14028TIP3    H263576   4.346   5.516  13.001 -0.7092 -3.0311 -2.1191
14029TIP3   OH263577   6.361   5.110  16.925  0.1299  0.0527 -0.0016
14029TIP3    H163578   6.320   5.024  16.937 -1.1747  0.4872 -1.1793
14029TIP3    H263579   6.342   5.157  17.006  1.5399 -1.0353  0.9720
14030TIP3   OH263580   2.132   2.921   4.697  0.0206  0.5711 -0.1022
14030TIP3    H163581   2.226   2.915   4.684  0.0602  1.3913 -0.2130
14030TIP3    H263582   2.116   2.875   4.779  0.4848  0.2229 -0.2068
14031TIP3   OH263583   0.720   1.436   1.502  0.0242 -0.4789  0.2381
14031TIP3    H163584   0.628   1.451   1.478  0.3663  0.0168 -0.7930
14031TIP3    H263585   0.741   1.351   1.464 -0.0699 -0.6859  0.6515
14032TIP3   OH263586   5.294   3.957  12.271 -0.4698 -0.2900 -0.4825
14032TIP3    H163587   5.251   4.041  12.254  0.1662 -0.3126 -2.2823
14032TIP3    H263588   5.221   3.897  12.288 -0.9114  0.6967  1.2360
14033TIP3   OH263589   6.789   0.712   0.813 -0.1379 -0.5787  0.1741
14033TIP3    H163590   6.875   0.752   0.820 -0.4597 -0.0035  0.8109
14033TIP3    H263591   6.785   0.650   0.886 -1.4337  1.5947  1.9923
14034TIP3   OH263592   2.823   1.984   1.383  0.3617 -0.2386  0.1926
14034TIP3    H163593   2.841   1.956   1.294 -0.5077 -0.0457 -0.0428
14034TIP3    H263594   2.733   1.956   1.400  0.1543  0.6715  0.6313
14035TIP3   OH263595   1.415   1.967   4.015 -0.2647  0.5407 -0.1938
14035TIP3    H163596   1.369   1.986   4.097  1.0228  1.1082  0.4177
14035TIP3    H263597   1.397   2.043   3.960  1.7013  1.8253  0.8506
14036TIP3   OH263598   3.434   1.018   3.809  0.1186 -0.2556  0.4409
14036TIP3    H163599   3.517   1.012   3.762 -0.4460  2.2634 -0.9681
14036TIP3    H263600   3.367   1.001   3.742 -0.6067  1.0111  0.8200
14037TIP3   OH263601   4.274   5.490  11.897 -0.1634  1.0071 -0.1198
14037TIP3    H163602   4.313   5.578  11.897  0.8278  0.5894 -1.0473
14037TIP3    H263603   4.305   5.450  11.978  1.9576  0.4357 -1.1793
14038TIP3   OH263604   4.077   0.863   1.615 -0.7765 -0.0064 -0.0427
14038TIP3    H163605   4.042   0.843   1.702 -1.8003 -0.5652 -0.5637
14038TIP3    H263606   4.038   0.947   1.592  0.0017  0.4539  0.2961
14039TIP3   OH263607   3.383   2.723  16.515 -0.2480 -0.2104  0.0717
14039TIP3    H163608   3.397   2.778  16.592  1.2920 -0.1053 -0.2638
14039TIP3    H263609   3.299   2.680  16.531 -0.9612  1.4061  0.8396
14040TIP3   OH263610   2.555   0.989   3.586 -0.6065  0.4965  0.2273
14040TIP3    H163611   2.551   0.955   3.675 -0.5956 -0.8602 -0.2789
14040TIP3    H263612   2.469   1.029   3.571 -1.0966 -0.4738  0.3849
14041TIP3   OH263613   0.972   2.492   2.115 -0.0305 -0.0288  0.4881
14041TIP3    H163614   0.990   2.585   2.132  0.7320 -0.3640  1.5575
14041TIP3    H263615   0.931   2.461   2.196 -1.8554 -0.2347 -0.4714
14042TIP3   OH263616   2.473   6.345   4.896  0.3854  0.7894 -0.4038
14042TIP3    H163617   2.524   6.421   4.923  0.9897  0.3583 -0.3060
14042TIP3    H263618   2.385   6.360   4.931  0.5294  1.3919 -0.3053
14043TIP3   OH263619   5.475   2.662  14.829  0.0111  0.6551  0.2819
14043TIP3    H163620   5.424   2.666  14.910 -0.2160  1.0084  0.1234
14043TIP3    H263621   5.556   2.710  14.849  0.9808 -1.2531  1.0299
14044TIP3   OH263622   4.493   1.306  11.995 -0.2159  0.0593  0.0815
14044TIP3    H163623   4.417   1.276  12.046  0.2120 -0.4163  0.4467
14044TIP3    H263624   4.534   1.225  11.964 -0.9571  0.3633 -1.7595
14045TIP3   OH263625   3.557   6.480  11.233  0.0289  0.4812 -0.2403
14045TIP3    H163626   3.558   6.433  11.149 -0.2206 -0.3443  0.2134
14045TIP3    H263627   3.625   6.547  11.223  0.3953  0.0281 -0.8995
14046TIP3   OH263628   4.553   0.065   5.192  0.1259  0.0699  0.6601
14046TIP3    H163629   4.493   0.000   5.157 -2.5183  2.8222 -0.1250
14046TIP3    H263630   4.594   0.023   5.268 -1.1735 -2.6100 -0.0945
14047TIP3   OH263631   1.998   0.867  12.999 -0.1636  0.2338 -0.2387
14047TIP3    H163632   2.093   0.875  13.004 -0.2029  2.0933 -1.7863
14047TIP3    H263633   1.977   0.791  13.052  2.2625 -0.6952 -0.5743
14048TIP3   OH263634   5.438   6.673  11.347  0.0137  0.4268  0.4598
14048TIP3    H163635   5.452   6.632  11.261  1.1632  1.1542  0.2799
14048TIP3    H263636   5.401   6.759  11.327 -0.4754  0.2824  0.7367
14049TIP3   OH263637   4.145   4.105  13.484  0.3412  0.7587 -0.5253
14049TIP3    H163638   4.241   4.110  13.481  0.3796 -0.0956 -0.9039
14049TIP3    H263639   4.120   4.161  13.557  1.1054  1.3260 -0.6925
14050TIP3   OH263640   4.967   5.101  12.400  0.0051 -0.0420  0.1777
14050TIP3    H163641   4.886   5.136  12.437 -0.1797  2.6962 -2.6272
14050TIP3    H263642   5.036   5.131  12.459 -0.6605  0.8627  0.4954
14051TIP3   OH263643   6.264   4.385  16.391  0.2137  0.2248 -0.2243
14051TIP3    H163644   6.254   4.455  16.456 -1.1300 -0.1626 -0.0098
14051TIP3    H263645   6.191   4.326  16.408  0.5411 -0.5018 -1.3231
14052TIP3   OH263646   6.091   4.355   2.170  0.1558 -0.2739  0.0890
14052TIP3    H163647   6.159   4.377   2.233  0.6509  1.3439 -0.9915
14052TIP3    H263648   6.129   4.285   2.117  0.3528 -0.4973  0.5238
14053TIP3   OH263649   3.078   5.849  10.911 -0.3564 -0.5296  0.0067
14053TIP3    H163650   3.108   5.900  10.836 -0.9418  0.2332  0.2808
14053TIP3    H263651   2.997   5.807  10.881 -0.1043 -0.9530 -0.0803
14054TIP3   OH263652   5.512   1.716   2.833 -0.5760 -0.4958  0.0877
14054TIP3    H163653   5.423   1.686   2.817 -1.1334  1.8835 -1.5807
14054TIP3    H263654   5.568   1.648   2.797 -1.7580 -0.9084 -0.9711
14055TIP3   OH263655   2.701   2.310  14.211  0.0749 -0.3062 -0.4985
14055TIP3    H163656   2.730   2.230  14.167  1.0585 -0.1300 -0.1957
14055TIP3    H263657   2.766   2.324  14.280 -0.8722 -0.0167  0.3584
14056TIP3   OH263658   1.779   5.197  16.577  0.3731 -0.2581 -0.2553
14056TIP3    H163659   1.844   5.145  16.530 -0.7424 -1.2063 -0.7763
14056TIP3    H263660   1.699   5.144  16.574 -1.4120  2.4376 -2.6829
14057TIP3   OH263661   1.587   5.055   4.316 -0.1111 -0.3625 -0.1095
14057TIP3    H163662   1.628   5.096   4.240 -2.6779  0.8066 -0.8888
14057TIP3    H263663   1.569   4.965   4.287 -0.0591 -0.2583 -0.4667
14058TIP3   OH263664   2.303   2.308   2.306 -0.2745  0.6546 -0.1789
14058TIP3    H163665   2.291   2.311   2.211  0.8104  1.3041 -0.3026
14058TIP3    H263666   2.298   2.214   2.327 -1.2148  0.5609 -0.7729
14059TIP3   OH263667   6.152   5.437   1.993 -0.0754 -0.1377 -0.4719
14059TIP3    H163668   6.096   5.508   1.961 -0.4070 -0.8103 -1.3912
14059TIP3    H263669   6.175   5.464   2.082 -0.3186  1.0552 -0.7516
14060TIP3   OH263670   6.124   1.451  15.652 -0.4366 -0.0277 -0.2700
14060TIP3    H163671   6.208   1.448  15.697  0.7757 -0.0952 -2.4799
14060TIP3    H263672   6.069   1.508  15.706  1.4969  1.2038  0.4277
14061TIP3   OH263673   6.014   5.596   2.401  0.2696 -0.1406  0.3731
14061TIP3    H163674   5.930   5.553   2.411  1.1585 -2.3656 -1.2013
14061TIP3    H263675   6.056   5.589   2.486 -1.2571  1.3426  1.2812
14062TIP3   OH263676   5.875   2.680  16.493 -0.5211 -0.6317  0.2806
14062TIP3    H163677   5.902   2.647  16.578 -0.0651 -2.0696 -0.4119
14062TIP3    H263678   5.800   2.737  16.512 -1.1921 -1.9092  1.5077
14063TIP3   OH263679   2.230   5.423   4.019  0.5961  0.6409 -0.3919
14063TIP3    H163680   2.222   5.502   4.073 -0.1272  1.3151 -1.4737
14063TIP3    H263681   2.141   5.388   4.015  0.7741  0.2055 -0.5877
14064TIP3   OH263682   6.498   4.461  11.573 -0.3252 -0.0909  0.0145
14064TIP3    H163683   6.476   4.542  11.528  1.9152  0.9570  0.7726
14064TIP3    H263684   6.495   4.394  11.504 -2.3266  0.5769 -0.5769
14065TIP3   OH263685   2.654   4.573   4.264  0.1946  0.0535  0.2082
14065TIP3    H163686   2.672   4.641   4.198  1.6745 -1.3552 -0.8672
14065TIP3    H263687   2.559   4.580   4.279 -0.0037  1.0653 -1.3153
14066TIP3   OH263688   6.280   1.016   4.036 -0.4635 -0.2616 -0.6127
14066TIP3    H163689   6.224   0.996   3.961 -0.4171 -0.9455 -0.4670
14066TIP3    H263690   6.311   1.105   4.020 -1.4879  0.0713 -0.7580
14067TIP3   OH263691   6.474   6.672  14.640 -0.2158  0.1245  0.1891
14067TIP3    H163692   6.408   6.633  14.697 -0.8299  0.3082 -0.3881
14067TIP3    H263693   6.552   6.618  14.653 -0.3930  0.0855  1.0981
14068TIP3   OH263694   1.707   6.696   3.160  0.2254 -0.3132 -0.0140
14068TIP3    H163695   1.691   6.763   3.093 -1.3326 -2.1056 -1.4679
14068TIP3    H263696   1.621   6.683   3.201  0.3308 -2.0415 -0.3266
14069TIP3   OH263697   5.862   0.010   3.349 -0.2279 -0.3383  0.5133
14069TIP3    H163698   5.934  -0.035   3.304 -0.5034 -0.1836 -0.0836
14069TIP3    H263699   5.905   0.069   3.410  0.1579  0.0140 -0.0975
14070TIP3   OH263700   1.727   6.239  13.527  0.3836 -0.0577  0.9222
14070TIP3    H163701   1.814   6.203  13.540 -0.0143 -1.0609  0.8458
14070TIP3    H263702   1.671   6.163  13.512 -0.3140  0.6377 -0.1028
14071TIP3   OH263703   3.264   2.593  12.251  0.0956  0.7903  0.0233
14071TIP3    H163704   3.288   2.583  12.159  3.7748  1.2041  0.8691
14071TIP3    H263705   3.289   2.511  12.292 -2.2136  0.3290  0.5515
14072TIP3   OH263706   1.862   5.554   5.480  0.2468  0.2794 -0.9228
14072TIP3    H163707   1.915   5.518   5.410 -0.8160 -0.8440 -1.1735
14072TIP3    H263708   1.919   5.617   5.524  0.5987  1.7630 -3.4246
14073TIP3   OH263709   1.590   2.280  11.713  0.1079 -0.2750  0.3215
14073TIP3    H163710   1.656   2.303  11.778  0.4788 -0.8369  0.1483
14073TIP3    H263711   1.606   2.188  11.694  0.6647  0.1222 -1.2909
14074TIP3   OH263712   2.343   6.265  13.562 -0.4721 -0.4060 -0.5733
14074TIP3    H163713   2.318   6.250  13.470  0.0165 -2.0563 -0.4491
14074TIP3    H263714   2.429   6.224  13.570  0.2814  1.2667  0.1932
14075TIP3   OH263715   0.456   4.098  16.192  0.1233 -0.5912 -0.3000
14075TIP3    H163716   0.403   4.061  16.122  0.6939 -0.5754 -0.7482
14075TIP3    H263717   0.506   4.025  16.227  1.1082 -0.2888 -1.0556
14076TIP3   OH263718   0.072   5.764  12.403  0.1744  0.0933 -0.3092
14076TIP3    H163719   0.068   5.673  12.431  0.8101 -0.3617 -1.6715
14076TIP3    H263720  -0.005   5.804  12.443  0.3503 -0.8397  0.9829
14077TIP3   OH263721   0.271   5.252  15.672  0.4376 -0.8038 -0.7370
14077TIP3    H163722   0.312   5.202  15.602 -0.1804 -2.3108 -0.0543
14077TIP3    H263723   0.254   5.187  15.741  2.3954  0.8730  1.4425
14078TIP3   OH263724   2.767   1.288  12.522 -0.3276  0.0609 -0.2736
14078TIP3    H163725   2.788   1.381  12.514 -1.0943  0.2082 -0.7034
14078TIP3    H263726   2.695   1.285  12.586 -3.1622  0.2226 -3.2952
14079TIP3   OH263727   1.346   0.637  12.730  0.1086 -0.8583  0.6351
14079TIP3    H163728   1.345   0.547  12.697 -2.2981 -1.7001  2.7717
14079TIP3    H263729   1.392   0.631  12.814  0.2403 -0.0452  0.6240
14080TIP3   OH263730   3.700   1.970   2.929  0.1900  0.2987 -0.1481
14080TIP3    H163731   3.751   1.950   2.850 -0.0976  2.5724 -0.9585
14080TIP3    H263732   3.766   1.975   2.999  0.3633 -2.4253 -0.0711
14081TIP3   OH263733   6.212   3.655   3.769 -0.1008  0.1429 -0.1166
14081TIP3    H163734   6.277   3.723   3.749 -1.1287  1.3312  0.4846
14081TIP3    H263735   6.132   3.686   3.726 -0.8297 -0.1908  0.9826
14082TIP3   OH263736   2.272   4.782  12.923 -0.3714 -0.1919  0.6908
14082TIP3    H163737   2.348   4.840  12.930 -0.7228  0.1576  1.8280
14082TIP3    H263738   2.223   4.799  13.004 -0.7623 -1.6742  0.7669
14083TIP3   OH263739   6.497   3.761   4.275 -0.4195 -0.2469 -0.4316
14083TIP3    H163740   6.587   3.784   4.251 -1.0507  3.3202  0.3466
14083TIP3    H263741   6.449   3.759   4.192 -0.3725  1.4076 -0.4991
14084TIP3   OH263742   0.458   6.708   0.727 -0.3906 -0.4063  0.2071
14084TIP3    H163743   0.446   6.743   0.639 -1.0766 -0.3383  0.3301
14084TIP3    H263744   0.478   6.785   0.780  0.1867 -0.4680  0.0803
14085TIP3   OH263745   0.514   4.632  13.294 -0.2199 -0.2815 -0.4507
14085TIP3    H163746   0.531   4.664  13.205 -1.7602 -0.6201 -0.8807
14085TIP3    H263747   0.588   4.664  13.345  0.5620  0.1301 -1.8028
14086TIP3   OH263748   4.544   1.478  13.071  0.0200  0.1393  0.6279
14086TIP3    H163749   4.604   1.515  13.135  0.9316 -0.5881  0.2229
14086TIP3    H263750   4.585   1.496  12.986 -0.2707 -0.4525  0.3515
14087TIP3   OH263751   5.203   4.781  11.212 -0.0902  0.3479 -0.4609
14087TIP3    H163752   5.236   4.842  11.146 -0.3236  0.4198 -0.5126
14087TIP3    H263753   5.125   4.742  11.171  0.2325 -0.2045 -0.5463
14088TIP3   OH263754   2.095   2.967  16.197 -0.5663 -0.2453 -0.2593
14088TIP3    H163755   2.190   2.970  16.202 -0.6042  1.9784 -0.7013
14088TIP3    H263756   2.064   3.026  16.265 -1.6593 -1.4702  0.3319
14089TIP3   OH263757   4.802   0.668  14.366  0.4261 -0.6653  0.3788
14089TIP3    H163758   4.783   0.654  14.273 -1.4426 -0.1067  0.6663
14089TIP3    H263759   4.870   0.736  14.367  3.1712 -3.2766 -0.6900
14090TIP3   OH263760   2.817   3.850  14.918 -0.0844 -0.5326  0.1147
14090TIP3    H163761   2.886   3.858  14.852  0.0653  0.1061  0.3414
14090TIP3    H263762   2.863   3.820  14.996 -0.6030 -3.4631 -0.6529
14091TIP3   OH263763   0.866   2.871   2.037  1.0199  0.6829  0.1161
14091TIP3    H163764   0.948   2.831   2.068  1.2043  1.3074  0.4344
14091TIP3    H263765   0.817   2.890   2.117 -0.7619 -2.4450 -0.1627
14092TIP3   OH263766   4.935   4.441  16.667  0.5888 -0.4718  0.4244
14092TIP3    H163767   4.992   4.500  16.617 -0.5941  1.4888  1.3296
14092TIP3    H263768   4.854   4.438  16.616  0.8807 -1.9032  0.0213
14093TIP3   OH263769   2.932   1.708   0.120  0.6745  0.0927 -0.0045
14093TIP3    H163770   2.950   1.686   0.211 -1.2433  0.0220  0.3770
14093TIP3    H263771   2.837   1.708   0.114  0.7592  1.7997 -1.6104
14094TIP3   OH263772   4.031   1.858   2.473 -0.4588 -0.5236  0.2047
14094TIP3    H163773   4.057   1.791   2.411 -1.1812 -0.3086 -0.3360
14094TIP3    H263774   4.112   1.907   2.491 -0.2349 -0.6144 -0.5302
14095TIP3   OH263775   6.502   5.533  15.990 -0.0428  0.2965 -0.6378
14095TIP3    H163776   6.432   5.468  15.988  0.1644  0.0534 -0.1170
14095TIP3    H263777   6.570   5.497  15.933  1.1939 -1.2387  1.7406
14096TIP3   OH263778   2.756   4.094  17.279  0.2409  0.2531 -0.1140
14096TIP3    H163779   2.760   4.184  17.312 -2.6434  0.2982  0.2733
14096TIP3    H263780   2.682   4.093  17.219  0.5224 -1.7588 -0.4910
14097TIP3   OH263781   3.604   4.399   2.848  0.0127  0.3349  0.2627
14097TIP3    H163782   3.695   4.387   2.823  0.4273  1.4642  1.1892
14097TIP3    H263783   3.571   4.310   2.860  1.2540 -0.0624  0.8475
14098TIP3   OH263784   4.153   0.619  12.776  0.2408 -0.3701  0.1031
14098TIP3    H163785   4.200   0.639  12.696 -1.6989  2.0062 -0.5125
14098TIP3    H263786   4.177   0.689  12.837 -0.0093 -0.9219  0.8528
14099TIP3   OH263787   2.677   6.438  15.641  0.6983 -0.4825  0.0719
14099TIP3    H163788   2.765   6.435  15.680  1.2562 -1.1475 -1.2163
14099TIP3    H263789   2.633   6.508  15.689  1.9018 -0.1893  0.7937
14100TIP3   OH263790   6.792   4.883  17.049  0.0893  0.0172  0.9361
14100TIP3    H163791   6.765   4.952  17.109  0.0952  1.1909 -0.3700
14100TIP3    H263792   6.711   4.855  17.006  0.6016  2.1776 -1.5776
14101TIP3   OH263793   3.601   2.526   4.000  0.0524 -0.1329 -0.1629
14101TIP3    H163794   3.633   2.441   4.031 -0.4993 -0.9894 -1.9148
14101TIP3    H263795   3.512   2.531   4.034 -1.0145 -1.6499 -2.6255
14102TIP3   OH263796   3.838   6.383  16.209  0.4780  0.2073  0.5107
14102TIP3    H163797   3.786   6.413  16.284 -0.1489  1.9841 -0.6119
14102TIP3    H263798   3.921   6.429  16.217  0.6262 -0.0450  0.4330
14103TIP3   OH263799   2.926   3.258   0.105  0.1294  0.3150  0.0572
14103TIP3    H163800   2.879   3.186   0.149 -0.5694 -0.2600 -1.5855
14103TIP3    H263801   3.010   3.220   0.080 -0.1148  0.1539 -0.5296
14104TIP3   OH263802   3.962   2.580   2.040  0.0104  0.2882 -0.0204
14104TIP3    H163803   4.049   2.602   2.073 -0.8986  0.4470  2.4084
14104TIP3    H263804   3.967   2.487   2.018  1.2358  0.6809 -1.4372
14105TIP3   OH263805   0.954   3.052  15.867  0.3019 -0.1336  0.0033
14105TIP3    H163806   0.922   3.035  15.778  1.1821 -1.1193 -0.1289
14105TIP3    H263807   1.049   3.062  15.856  0.2944  0.7150  0.6928
14106TIP3   OH263808   5.588   2.227   0.205 -0.0795 -0.3365 -0.1066
14106TIP3    H163809   5.496   2.205   0.199 -0.1175 -0.2212  0.0513
14106TIP3    H263810   5.632   2.144   0.224  0.2736 -1.1045 -3.9205
14107TIP3   OH263811   6.432   2.114  11.247  0.6150 -0.0663 -0.4564
14107TIP3    H163812   6.354   2.167  11.261  0.6895 -0.0622 -0.0550
14107TIP3    H263813   6.399   2.025  11.234  0.6833 -0.5962  2.5768
14108TIP3   OH263814   1.976   6.230  14.205 -0.2114 -0.4996  0.3897
14108TIP3    H163815   1.972   6.234  14.301  1.5351 -0.5409  0.4920
14108TIP3    H263816   2.045   6.293  14.182 -2.1175  1.1277 -0.9976
14109TIP3   OH263817   1.593   1.743  11.609 -0.0689 -0.2665  0.0745
14109TIP3    H163818   1.579   1.657  11.568 -1.4977  0.4409 -1.0019
14109TIP3    H263819   1.530   1.800  11.564  1.8077  1.6366 -0.1682
14110TIP3   OH263820   5.344   4.502  11.174 -0.0073 -0.1119  0.1847
14110TIP3    H163821   5.295   4.562  11.229 -0.9441  0.5615 -1.3275
14110TIP3    H263822   5.380   4.557  11.104  0.0407 -1.1117 -0.6013
14111TIP3   OH263823   1.148   4.666   3.701 -0.1493 -0.9087 -0.7813
14111TIP3    H163824   1.090   4.649   3.628 -0.4457 -0.5091 -0.6453
14111TIP3    H263825   1.091   4.664   3.778 -0.3015  1.1449 -0.8096
14112TIP3   OH263826   1.906   0.782   1.455 -0.3569 -0.5939  0.2517
14112TIP3    H163827   1.866   0.834   1.385 -0.5400 -1.6608 -0.4416
14112TIP3    H263828   1.995   0.765   1.425 -0.2742 -0.6219  0.5091
14113TIP3   OH263829   4.751   5.151   0.912 -0.2212 -0.0016 -0.2767
14113TIP3    H163830   4.792   5.115   0.990  0.2609  0.5144 -0.2861
14113TIP3    H263831   4.750   5.079   0.849  1.8779  0.3400 -0.7421
14114TIP3   OH263832   5.291   6.546   6.198 -0.3289 -0.0830 -0.4468
14114TIP3    H163833   5.370   6.576   6.242 -1.3226  2.4405 -0.2526
14114TIP3    H263834   5.244   6.495   6.263  0.3620 -0.2130 -0.0464
14115TIP3   OH263835   2.601   6.540   1.430  0.3529 -0.4867 -0.2190
14115TIP3    H163836   2.616   6.525   1.523  0.5635 -0.3589 -0.2309
14115TIP3    H263837   2.557   6.625   1.426 -2.0935 -1.7080 -0.0564
14116TIP3   OH263838   4.738   4.698   4.133  0.4985 -0.0906 -0.1166
14116TIP3    H163839   4.749   4.635   4.204  1.2041 -0.5188 -0.5920
14116TIP3    H263840   4.676   4.657   4.073 -0.9919  0.7777  0.8165
14117TIP3   OH263841   1.566   6.528  13.663 -0.4272 -0.5954  0.1838
14117TIP3    H163842   1.484   6.493  13.628  0.0314 -0.9344 -0.5742
14117TIP3    H263843   1.590   6.467  13.732 -2.0493  0.8292  2.0769
14118TIP3   OH263844   3.533   2.163  15.723  0.2323  0.4724  0.4562
14118TIP3    H163845   3.569   2.252  15.719  0.7769  0.2848  0.9598
14118TIP3    H263846   3.461   2.169  15.786  0.0210  0.6360  0.2002
14119TIP3   OH263847   4.049   3.730  12.742  0.0181  0.5350 -0.5286
14119TIP3    H163848   4.119   3.781  12.701  0.1292  0.1902 -0.7770
14119TIP3    H263849   4.096   3.668  12.799 -0.0643  0.0712 -0.9602
14120TIP3   OH263850   5.117   6.258  12.930  0.9714 -0.3051  0.0500
14120TIP3    H163851   5.209   6.241  12.948  1.2651 -1.0113 -2.0074
14120TIP3    H263852   5.071   6.228  13.009  2.4356 -0.4221  0.8750
14121TIP3   OH263853   5.307   1.224   0.304 -0.4096 -0.5797  0.0453
14121TIP3    H163854   5.377   1.159   0.303 -0.1836 -0.3455  0.2807
14121TIP3    H263855   5.231   1.177   0.337  0.1619 -0.3246  1.7628
14122TIP3   OH263856   1.218   5.957  12.849  0.1849 -0.3562 -0.1508
14122TIP3    H163857   1.272   6.035  12.864  0.6391 -0.5393 -0.8298
14122TIP3    H263858   1.132   5.981  12.884  0.5638  0.1183  0.4727
14123TIP3   OH263859   0.917   5.225   2.497 -0.0511  0.3208  0.1557
14123TIP3    H163860   1.010   5.242   2.510 -0.1194  1.8404 -1.2578
14123TIP3    H263861   0.873   5.305   2.525 -1.0583 -0.8291  2.0148
14124TIP3   OH263862   6.383   2.405  16.419  0.0998  0.0910 -0.2568
14124TIP3    H163863   6.397   2.363  16.334  0.5450  1.7403 -1.0169
14124TIP3    H263864   6.444   2.360  16.478  1.1501  0.1942 -1.2350
14125TIP3   OH263865   2.989   4.788  15.358 -0.3381  0.5504 -0.6339
14125TIP3    H163866   2.968   4.869  15.405 -1.4675  0.2962 -0.6738
14125TIP3    H263867   2.948   4.798  15.273 -0.3065  0.0238 -0.7132
14126TIP3   OH263868   4.483   4.363   3.008 -0.4281  0.0261  0.2500
14126TIP3    H163869   4.483   4.395   2.918  0.8462 -0.2281  0.1452
14126TIP3    H263870   4.426   4.423   3.055 -0.5546  0.5730 -0.5882
14127TIP3   OH263871   2.393   4.821  12.365 -0.0199 -0.5919  0.7698
14127TIP3    H163872   2.334   4.891  12.337 -0.5284 -1.3675 -0.1443
14127TIP3    H263873   2.475   4.866  12.386 -0.7949  0.4475  1.6643
14128TIP3   OH263874   5.067   5.904   1.722 -0.8876  0.3099 -0.1560
14128TIP3    H163875   5.065   5.950   1.806  0.2678  0.0735  0.0191
14128TIP3    H263876   4.991   5.845   1.724  0.1776 -1.0542  1.5343
14129TIP3   OH263877   5.090   3.206  11.967 -0.3544 -0.2165 -0.1533
14129TIP3    H163878   5.171   3.254  11.985 -1.0425  0.9514 -0.1281
14129TIP3    H263879   5.021   3.272  11.974 -1.1935 -0.9256 -1.4187
14130TIP3   OH263880   2.435   2.322   6.698  0.1932 -0.3662 -0.0461
14130TIP3    H163881   2.392   2.404   6.721  0.6345 -0.2804  0.5154
14130TIP3    H263882   2.367   2.269   6.656  0.6347  1.3902 -3.1270
14131TIP3   OH263883   3.811   1.700   2.014 -0.5054 -0.5022  0.0154
14131TIP3    H163884   3.780   1.702   2.105 -0.4913 -1.5824  0.0604
14131TIP3    H263885   3.740   1.738   1.963 -0.3980  0.3683  0.5138
14132TIP3   OH263886   2.633   1.629   6.043  0.7020  0.5023 -0.6604
14132TIP3    H163887   2.718   1.608   6.005  2.6423 -1.5845  4.4363
14132TIP3    H263888   2.646   1.714   6.087 -0.3436  0.9852 -1.2582
14133TIP3   OH263889   4.164   3.621   2.973 -0.4462 -0.5251 -0.5141
14133TIP3    H163890   4.134   3.533   2.997  0.7369 -0.6448  0.5498
14133TIP3    H263891   4.198   3.658   3.054 -2.3123  1.5023 -0.6232
14134TIP3   OH263892   4.206   0.034   5.455 -0.3522  0.0606 -0.4645
14134TIP3    H163893   4.132   0.091   5.431 -0.3976 -0.1587 -0.8592
14134TIP3    H263894   4.185   0.003   5.543 -1.1310 -0.6275 -0.8804
14135TIP3   OH263895   5.262   1.140   3.484  0.1642 -0.3288 -0.3446
14135TIP3    H163896   5.220   1.125   3.400 -0.4666 -1.3113  0.1354
14135TIP3    H263897   5.228   1.225   3.513 -3.2367 -2.0861  1.0466
14136TIP3   OH263898   1.607   6.806  14.436 -0.0220  0.0508 -0.1371
14136TIP3    H163899   1.570   6.775  14.353 -2.2727 -0.2595  0.9350
14136TIP3    H263900   1.584   6.737  14.499  1.4997  0.3774  0.7833
14137TIP3   OH263901   3.768   3.273   3.814  0.6628  0.2532  0.1225
14137TIP3    H163902   3.721   3.268   3.731 -0.0111 -0.5740  0.5464
14137TIP3    H263903   3.788   3.182   3.836  1.5467  0.5215  0.4694
14138TIP3   OH263904   6.253   4.805   2.638  0.9305  0.2969  0.6780
14138TIP3    H163905   6.335   4.848   2.662  0.7474  0.0697  1.7295
14138TIP3    H263906   6.279   4.738   2.575  1.5047  0.4548  0.7401
14139TIP3   OH263907   2.194   5.034   4.894  0.2431  0.4161  0.3599
14139TIP3    H163908   2.103   5.065   4.884  0.0237 -0.6496 -1.2267
14139TIP3    H263909   2.234   5.051   4.809  0.3296 -2.8869 -0.3212
14140TIP3   OH263910   3.961   3.990   1.268  0.7419 -0.3858 -0.3953
14140TIP3    H163911   4.027   3.958   1.329 -0.5477 -2.8428 -0.2591
14140TIP3    H263912   4.000   4.070   1.231  2.1558  0.3159  2.4790
14141TIP3   OH263913   5.978   2.574  15.476  0.0121  0.1314  0.0829
14141TIP3    H163914   5.997   2.620  15.394  2.2243 -3.3268 -1.4475
14141TIP3    H263915   6.048   2.601  15.535 -0.3217  0.9059  0.1320
14142TIP3   OH263916   2.040   5.717   5.136  0.1328  0.4498 -0.5122
14142TIP3    H163917   1.988   5.789   5.174  0.6007  0.7071 -0.3608
14142TIP3    H263918   1.982   5.678   5.070 -0.7958 -0.1810  0.6529
14143TIP3   OH263919   6.695   1.498   3.138  0.3744 -0.2550 -0.4342
14143TIP3    H163920   6.785   1.529   3.132  1.1096 -2.2645 -0.0029
14143TIP3    H263921   6.685   1.436   3.065 -0.3377 -0.7945  0.1051
14144TIP3   OH263922   2.266   4.599   0.097 -0.3082 -0.2028  0.0662
14144TIP3    H163923   2.256   4.629   0.007  2.6074  0.6515  0.0031
14144TIP3    H263924   2.321   4.521   0.091 -0.5976 -0.4987  1.0824
14145TIP3   OH263925   2.223   3.315  16.060  0.6452  0.0579 -0.2063
14145TIP3    H163926   2.183   3.247  16.006 -0.8199  0.1121  0.7855
14145TIP3    H263927   2.150   3.358  16.103  1.7368  0.3645  1.4042
14146TIP3   OH263928   2.603   2.532  11.453 -0.4415  0.4149 -0.3863
14146TIP3    H163929   2.574   2.622  11.464  2.4948  0.9992  3.6630
14146TIP3    H263930   2.531   2.479  11.489 -0.6569  1.3366  0.5656
14147TIP3   OH263931   6.373   0.099   3.611  0.2870 -0.4125 -0.1057
14147TIP3    H163932   6.326   0.040   3.670 -0.3647 -1.0931 -1.2723
14147TIP3    H263933   6.341   0.075   3.523  0.9311  0.8494 -0.6963
14148TIP3   OH263934   1.522   0.948  12.200  0.0858  0.3281  0.1854
14148TIP3    H163935   1.511   0.997  12.281 -1.5635  1.4105 -0.6754
14148TIP3    H263936   1.433   0.931  12.169  0.4403 -5.5871  1.8353
14149TIP3   OH263937   2.742   0.418  13.948 -0.0440 -0.6784  0.0333
14149TIP3    H163938   2.688   0.366  13.888 -1.9124  0.3241  0.8195
14149TIP3    H263939   2.804   0.355  13.984 -2.6982 -2.5713  1.4791
14150TIP3   OH263940   2.216   1.927   1.112 -0.0832 -0.3982  0.4920
14150TIP3    H163941   2.200   1.935   1.018  1.5430  2.1623  0.4150
14150TIP3    H263942   2.198   2.014   1.148  3.1180 -0.2894  1.9689
14151TIP3   OH263943   5.428   0.748   1.014 -0.1610 -0.4418 -0.7275
14151TIP3    H163944   5.490   0.741   1.087 -1.9818 -0.8477  0.8193
14151TIP3    H263945   5.372   0.821   1.038 -1.4059 -1.2213 -1.2366
14152TIP3   OH263946   3.018   5.992   0.821  0.4007  0.6763 -0.1619
14152TIP3    H163947   3.038   6.068   0.876  0.1067 -0.3609  1.3974
14152TIP3    H263948   2.975   5.930   0.880  1.6104 -1.1450 -1.1716
14153TIP3   OH263949   5.096   3.678   0.882  0.3303 -0.4435 -0.1653
14153TIP3    H163950   5.092   3.583   0.894 -2.4192 -0.0526  2.6536
14153TIP3    H263951   5.008   3.702   0.853  0.0804  1.5840  2.1232
14154TIP3   OH263952   2.616   4.228  16.114  0.1893  0.2039  0.0453
14154TIP3    H163953   2.589   4.146  16.073  0.8003  0.4616 -0.9065
14154TIP3    H263954   2.665   4.202  16.191 -1.5264 -0.2846  0.9980
14155TIP3   OH263955   4.133   2.370  14.104  0.5362  0.3671  0.4741
14155TIP3    H163956   4.084   2.444  14.142  0.8728  0.8554 -0.0323
14155TIP3    H263957   4.066   2.304  14.085  0.0329  1.1339 -0.4594
14156TIP3   OH263958   0.485   1.340  12.278  0.1651 -0.0476  0.2536
14156TIP3    H163959   0.437   1.305  12.203 -2.1384  0.8842  1.2325
14156TIP3    H263960   0.552   1.397  12.239  0.9109 -1.8371 -1.1649
14157TIP3   OH263961   0.487   1.859  13.644 -0.3356 -0.1999  0.5351
14157TIP3    H163962   0.533   1.938  13.614 -1.0937 -0.0733 -0.3293
14157TIP3    H263963   0.496   1.797  13.572 -2.0220  0.0388  0.0986
14158TIP3   OH263964   6.698   1.343   0.679 -0.1994  0.0843  0.1373
14158TIP3    H163965   6.657   1.342   0.766  0.3364  0.6902  0.4026
14158TIP3    H263966   6.782   1.298   0.692 -1.0574 -1.7712 -0.5538
14159TIP3   OH263967   1.671   5.712  15.163  0.1836  0.2261  0.5942
14159TIP3    H163968   1.580   5.714  15.132  0.3471 -1.5765 -0.0891
14159TIP3    H263969   1.665   5.673  15.250  0.3348 -0.3503  0.3527
14160TIP3   OH263970   5.088   5.154   1.329  0.2565 -0.8289 -0.2552
14160TIP3    H163971   5.011   5.116   1.372 -0.6949 -0.9774 -2.0375
14160TIP3    H263972   5.071   5.248   1.329 -0.1372 -0.9002 -1.0517
14161TIP3   OH263973   1.025   2.737   5.675  0.6176  0.1433  0.2828
14161TIP3    H163974   1.011   2.684   5.597 -0.1827  0.9678 -0.1441
14161TIP3    H263975   1.046   2.824   5.642  0.8115  0.3628  0.9793
14162TIP3   OH263976   2.420   6.488  17.069 -0.0722  0.0838  0.1070
14162TIP3    H163977   2.358   6.559  17.087 -1.0793 -0.7510  0.0430
14162TIP3    H263978   2.365   6.409  17.070  1.0668 -0.7055  0.3866
14163TIP3   OH263979   1.592   4.227  11.243  0.1518 -0.4363 -0.4595
14163TIP3    H163980   1.593   4.198  11.151  0.2680 -0.6283 -0.3979
14163TIP3    H263981   1.535   4.304  11.243  0.5930 -0.1054 -0.7958
14164TIP3   OH263982   1.311   3.592   1.014 -0.0878 -0.2170 -0.1288
14164TIP3    H163983   1.243   3.559   1.072  0.5260  0.8724  1.2297
14164TIP3    H263984   1.371   3.640   1.071  1.3322 -0.3836 -1.4332
14165TIP3   OH263985   2.795   5.099   0.525 -0.1683  0.4851 -0.6456
14165TIP3    H163986   2.861   5.076   0.460 -0.3992 -0.7411 -0.4548
14165TIP3    H263987   2.725   5.141   0.475  1.2004  2.7838 -0.7165
14166TIP3   OH263988   2.290   0.028  14.955 -0.5484 -0.2994 -0.0364
14166TIP3    H163989   2.314   0.117  14.928 -2.4129  0.2012 -0.1103
14166TIP3    H263990   2.354  -0.029  14.912  1.4507  1.0813  1.0244
14167TIP3   OH263991   4.208   1.574  11.919  0.7815  0.0022  0.3790
14167TIP3    H163992   4.277   1.525  11.964  2.4210  0.4153 -1.6351
14167TIP3    H263993   4.207   1.659  11.961  0.1740 -0.6289  1.6790
14168TIP3   OH263994   3.690   0.847  16.250 -0.0629 -0.2440  0.7614
14168TIP3    H163995   3.770   0.800  16.271  0.2607  0.7477  1.8236
14168TIP3    H263996   3.623   0.808  16.306 -0.4437 -1.3953 -0.4707
14169TIP3   OH263997   6.345   2.028  12.405  0.3592 -0.1039  0.2790
14169TIP3    H163998   6.251   2.014  12.421 -0.0394  0.1216 -1.6801
14169TIP3    H263999   6.387   1.947  12.435 -0.6365 -0.8272 -0.2486
14170TIP3   OH264000   2.317   0.608   1.184  0.1381 -0.2720  0.1349
14170TIP3    H164001   2.233   0.585   1.225  0.5092 -0.5348  0.7437
14170TIP3    H264002   2.308   0.578   1.093 -0.7740  0.5273 -0.0522
14171TIP3   OH264003   6.034   5.011  11.372  0.7592  0.1227 -0.4917
14171TIP3    H164004   6.034   5.004  11.468  3.7925 -0.5240 -0.4888
14171TIP3    H264005   6.100   4.948  11.344 -2.1105 -1.8332 -3.2510
14172TIP3   OH264006   6.269   2.650  13.714  0.0531  0.0348 -0.3931
14172TIP3    H164007   6.206   2.583  13.740  1.2275 -0.5475  1.0474
14172TIP3    H264008   6.297   2.624  13.627 -0.1158 -0.8792 -0.1781
14173TIP3   OH264009   0.549   4.472  12.377  0.7675 -0.8049 -0.5333
14173TIP3    H164010   0.510   4.439  12.457 -1.9588  0.1624 -1.4265
14173TIP3    H264011   0.641   4.489  12.400  1.0937 -4.5599  1.1631
14174TIP3   OH264012   1.100   3.367  14.297 -0.0268 -0.5915 -0.5737
14174TIP3    H164013   1.181   3.416  14.306 -0.1570 -0.2932 -1.0062
14174TIP3    H264014   1.127   3.281  14.266  0.2572 -1.0072  0.8085
14175TIP3   OH264015   1.333   4.759   4.910  0.0740 -0.0974  0.2051
14175TIP3    H164016   1.360   4.851   4.919  0.8527 -0.6170  3.7087
14175TIP3    H264017   1.243   4.758   4.942 -1.3006  0.0245 -3.3325
14176TIP3   OH264018   3.388   4.801   3.621 -0.6277  0.1228 -0.4551
14176TIP3    H164019   3.425   4.713   3.607 -1.6309 -0.1940 -1.1541
14176TIP3    H264020   3.299   4.795   3.587 -1.1193  1.0642  0.6542
14177TIP3   OH264021   1.712   6.486   1.115 -0.3165 -0.2354 -0.4700
14177TIP3    H164022   1.652   6.505   1.043 -0.1457 -1.0290 -0.8226
14177TIP3    H264023   1.718   6.569   1.164 -0.8187  0.1607 -1.0773
14178TIP3   OH264024   5.561   3.361   2.897 -0.6695 -0.0309  0.1473
14178TIP3    H164025   5.504   3.319   2.961 -0.7429 -0.3071 -0.0959
14178TIP3    H264026   5.572   3.450   2.929 -3.2533  0.7773 -1.1218
14179TIP3   OH264027   3.135   5.452  13.324 -0.1465 -0.3733  0.1413
14179TIP3    H164028   3.041   5.456  13.341 -0.8561 -0.6893 -3.3321
14179TIP3    H264029   3.149   5.367  13.283  1.6404 -0.2331  0.3986
14180TIP3   OH264030   3.864   6.001   5.691  0.0978 -0.2232  0.5635
14180TIP3    H164031   3.785   6.056   5.693 -0.3948 -0.8638 -0.7958
14180TIP3    H264032   3.882   5.988   5.598  1.5331 -0.4953  0.8679
14181TIP3   OH264033   2.748   0.873  12.989  0.2302  0.2116  0.0638
14181TIP3    H164034   2.760   0.793  13.040 -0.7532 -0.2769 -0.4575
14181TIP3    H264035   2.675   0.918  13.033  1.1040  1.0884  0.6650
14182TIP3   OH264036   6.690   2.164  16.341  0.7437  0.3505  0.0584
14182TIP3    H164037   6.680   2.164  16.245  1.6085 -1.7202 -0.0489
14182TIP3    H264038   6.779   2.134  16.356  0.1176 -0.8074  1.5628
14183TIP3   OH264039   3.302   1.212   2.071 -0.0194  0.3045 -0.2322
14183TIP3    H164040   3.222   1.160   2.064  1.1170 -1.3653 -1.2492
14183TIP3    H264041   3.312   1.228   2.165 -1.2513  0.0607 -0.0495
14184TIP3   OH264042   2.787   4.630   3.199  0.2350 -0.2784 -0.4633
14184TIP3    H164043   2.736   4.682   3.262  0.6629  0.9257 -1.0954
14184TIP3    H264044   2.761   4.664   3.113  1.3042 -0.3913 -0.8407
14185TIP3   OH264045   0.116   4.831  13.841 -0.1815 -0.0340  0.3783
14185TIP3    H164046   0.163   4.913  13.827 -0.0844 -0.3014 -0.9500
14185TIP3    H264047   0.185   4.766  13.852 -0.2609  0.1161  1.7298
14186TIP3   OH264048   2.310   0.427   6.784 -0.3975  0.2123  0.3593
14186TIP3    H164049   2.296   0.400   6.693  0.1207  0.7720  0.1115
14186TIP3    H264050   2.223   0.451   6.816 -0.9725 -2.2867  0.7723
14187TIP3   OH264051   6.441   3.981  11.939 -0.0901 -0.2420  0.0650
14187TIP3    H164052   6.347   3.993  11.955 -0.2850 -0.4371 -0.8666
14187TIP3    H264053   6.467   3.913  12.001 -0.8944 -1.2531 -0.6923
14188TIP3   OH264054   6.206   0.417   3.392  0.0386 -0.1184  0.0572
14188TIP3    H164055   6.141   0.457   3.449  0.7561 -0.7786  1.3513
14188TIP3    H264056   6.289   0.455   3.420  0.4450 -0.7681 -0.2684
14189TIP3   OH264057   4.355   6.203  13.952 -0.1939  0.3632  0.1870
14189TIP3    H164058   4.336   6.287  13.994 -1.9978  0.0541  0.0253
14189TIP3    H264059   4.339   6.218  13.859 -0.3503 -0.1177  0.1348
14190TIP3   OH264060   6.408   2.720  10.454 -0.2335  0.1911  0.1857
14190TIP3    H164061   6.327   2.677  10.481 -1.9459  1.5811 -2.5778
14190TIP3    H264062   6.411   2.800  10.507 -1.7682  1.1820 -1.1958
14191TIP3   OH264063   5.222   0.430   0.959 -0.5223  0.1126  0.0509
14191TIP3    H164064   5.210   0.479   0.878 -1.7730  0.4382  0.4316
14191TIP3    H264065   5.317   0.424   0.969 -0.3212 -1.4032 -2.3299
14192TIP3   OH264066   0.818   4.845  11.441  0.3743  0.0294  0.1230
14192TIP3    H164067   0.817   4.940  11.435  0.0856 -0.0357 -0.9650
14192TIP3    H264068   0.743   4.817  11.389  0.5599 -0.7998  0.2971
14193TIP3   OH264069   0.317   6.183  13.572 -0.0451 -0.2282 -0.7121
14193TIP3    H164070   0.258   6.231  13.514  0.7476  0.4602 -0.9652
14193TIP3    H264071   0.404   6.217  13.550  0.6492 -2.5498 -1.6424
14194TIP3   OH264072   3.299   4.510  12.148 -0.9488 -0.2280 -0.5866
14194TIP3    H164073   3.274   4.595  12.113 -0.1366  0.4197  0.3786
14194TIP3    H264074   3.356   4.472  12.080  0.5566  0.9860 -0.0173
14195TIP3   OH264075   6.242   2.649  14.341  0.1278 -0.0042 -0.5572
14195TIP3    H164076   6.207   2.738  14.352  0.6018  0.2606 -1.1638
14195TIP3    H264077   6.326   2.662  14.298  0.8943 -0.6609  0.7100
14196TIP3   OH264078   5.023   6.562  15.129 -0.1641  0.5369 -0.0305
14196TIP3    H164079   4.995   6.550  15.219  1.1138 -0.7357  0.2149
14196TIP3    H264080   5.003   6.654  15.109 -2.3240  0.2844  0.8669
14197TIP3   OH264081   6.487   1.419   0.514 -0.2916 -0.4458  0.1181
14197TIP3    H164082   6.459   1.335   0.477  0.4956 -0.6582 -0.0007
14197TIP3    H264083   6.554   1.395   0.578  0.8550  0.1729 -0.8186
14198TIP3   OH264084   2.768   5.037  11.319  0.3668  0.5750 -0.4032
14198TIP3    H164085   2.781   5.062  11.228  0.1263 -0.8851 -0.8548
14198TIP3    H264086   2.785   4.942  11.320  0.4923  0.6030  1.0859
14199TIP3   OH264087   0.473   2.031  14.689 -0.8096 -0.3801  0.5009
14199TIP3    H164088   0.511   2.113  14.723 -2.3388 -0.6848  3.0873
14199TIP3    H264089   0.526   1.962  14.729 -1.2825 -0.7113  0.5550
14200TIP3   OH264090   3.350   1.812   6.146  0.4966 -0.4543  0.0486
14200TIP3    H164091   3.292   1.866   6.092 -2.0217 -0.8006  2.2998
14200TIP3    H264092   3.400   1.874   6.198  0.6290 -0.1900 -0.3977
14201TIP3   OH264093   5.913   5.348  13.446 -0.0523 -0.0665  0.5825
14201TIP3    H164094   5.822   5.322  13.454 -0.0549  0.2986  1.8205
14201TIP3    H264095   5.928   5.356  13.352 -0.6559 -2.3864  0.2739
14202TIP3   OH264096   3.720   5.629   1.007 -0.5013 -0.0669 -0.3687
14202TIP3    H164097   3.661   5.628   0.932  0.2690 -0.5462 -0.9699
14202TIP3    H264098   3.783   5.559   0.990  1.2956  1.5633 -0.5959
14203TIP3   OH264099   0.253   5.117  11.279  0.9768  0.1623  0.1164
14203TIP3    H164100   0.247   5.027  11.248  2.0575  0.3607 -0.7127
14203TIP3    H264101   0.241   5.111  11.373  0.1441 -0.7447 -0.0368
14204TIP3   OH264102   2.733   6.584   1.206  0.0830 -0.3081  0.2661
14204TIP3    H164103   2.678   6.646   1.157  0.8353  0.9474  0.9872
14204TIP3    H264104   2.684   6.568   1.287 -0.2628 -0.8979 -0.0626
14205TIP3   OH264105   5.873   3.099  14.417 -1.3402 -0.6478 -0.3414
14205TIP3    H164106   5.842   3.149  14.492  0.8993 -0.0212  0.1913
14205TIP3    H264107   5.954   3.058  14.446 -1.0554 -1.3514 -2.0389
14206TIP3   OH264108   0.218   4.597  14.486 -0.9534  0.0944 -0.4070
14206TIP3    H164109   0.280   4.645  14.540 -2.2587  1.1008  0.2160
14206TIP3    H264110   0.273   4.537  14.435  0.3615 -0.3341  1.4489
14207TIP3   OH264111   2.375   1.464   5.269  0.0169  0.0971  0.1383
14207TIP3    H164112   2.400   1.376   5.240  4.3512  0.3423  2.6937
14207TIP3    H264113   2.384   1.518   5.190 -0.0246 -1.2717 -0.8238
14208TIP3   OH264114   6.141   0.388  10.845  0.1240 -0.3053 -0.1899
14208TIP3    H164115   6.221   0.374  10.896 -1.0746 -1.1056  1.5273
14208TIP3    H264116   6.093   0.455  10.895 -1.7969 -2.2522  0.6320
14209TIP3   OH264117   4.932   0.537   0.803 -0.0811 -0.6971  0.0484
14209TIP3    H164118   5.027   0.549   0.809 -0.2704 -0.3518  3.1500
14209TIP3    H264119   4.920   0.476   0.731  2.5513 -1.1311 -0.0631
14210TIP3   OH264120   5.764   5.505  11.761 -0.0305  0.2678 -0.2601
14210TIP3    H164121   5.854   5.476  11.777  0.1719  1.1440  0.2264
14210TIP3    H264122   5.713   5.424  11.754  0.1661 -0.2175  3.1571
14211TIP3   OH264123   3.194   3.743   4.379  0.3552 -0.0355 -0.4989
14211TIP3    H164124   3.251   3.669   4.402  0.1994 -0.4271 -1.3322
14211TIP3    H264125   3.150   3.765   4.461  1.7236  0.2991  0.1673
14212TIP3   OH264126   4.105   3.908  12.386  0.1183 -0.6489  0.1045
14212TIP3    H164127   4.033   3.846  12.395 -1.6426  1.2241 -0.5777
14212TIP3    H264128   4.184   3.854  12.386 -1.3052 -2.7788  0.5209
14213TIP3   OH264129   4.933   4.567  14.329 -0.5564  0.1010 -0.3210
14213TIP3    H164130   4.955   4.594  14.240 -0.0720  0.2212 -0.1664
14213TIP3    H264131   4.841   4.591  14.340 -0.9383 -0.9587 -1.1786
14214TIP3   OH264132   4.661   1.013  15.414 -0.3798 -0.0416 -0.5946
14214TIP3    H164133   4.663   1.104  15.385  1.0427 -0.4052 -1.7401
14214TIP3    H264134   4.721   1.010  15.489 -1.9402  0.3423  0.6948
14215TIP3   OH264135   2.903   5.342   4.054 -0.4432 -0.1793 -0.1048
14215TIP3    H164136   2.853   5.300   3.983 -1.8283 -0.3543  0.9485
14215TIP3    H264137   2.961   5.274   4.086 -0.4220 -0.3539 -0.5144
14216TIP3   OH264138   3.209   3.888  13.440 -0.5448 -0.2778  0.3927
14216TIP3    H164139   3.145   3.825  13.474 -1.1128  1.0460  1.8131
14216TIP3    H264140   3.159   3.968  13.428  0.0817 -0.2016 -1.8232
14217TIP3   OH264141   3.636   2.937   4.602 -0.3766 -0.8058 -0.2386
14217TIP3    H164142   3.579   3.007   4.572 -0.1004 -0.6220 -0.3359
14217TIP3    H264143   3.614   2.925   4.694  0.2264  0.0441  0.0203
14218TIP3   OH264144   3.025   4.599   2.549 -0.3340 -0.1174  0.0779
14218TIP3    H164145   3.024   4.508   2.518 -0.4073 -1.9590  4.9732
14218TIP3    H264146   2.934   4.627   2.541 -0.2027 -0.2022 -2.0542
14219TIP3   OH264147   3.556   2.785   5.546  0.3493 -0.3030 -0.4318
14219TIP3    H164148   3.516   2.703   5.517 -0.5562  0.6168 -1.8400
14219TIP3    H264149   3.517   2.802   5.631  0.7984 -1.5029  0.0256
14220TIP3   OH264150   5.799   5.752  15.431 -0.0294  0.1412  0.1984
14220TIP3    H164151   5.861   5.722  15.497 -1.5813  0.3697  1.7865
14220TIP3    H264152   5.777   5.673  15.381 -0.4082 -0.4390  1.2700
14221TIP3   OH264153   5.324   6.422   5.398  0.9715  0.2440 -0.3865
14221TIP3    H164154   5.307   6.336   5.437  0.9334  0.5691  0.3119
14221TIP3    H264155   5.343   6.479   5.472 -2.1164  1.5830 -0.5587
14222TIP3   OH264156   3.155   4.138  10.402 -0.7063 -0.5199  0.3966
14222TIP3    H164157   3.112   4.206  10.454  3.2508  1.0192  1.8318
14222TIP3    H264158   3.149   4.059  10.455  0.6680  0.3475  1.8919
14223TIP3   OH264159   4.120   2.403  15.563 -0.6400 -0.3075  0.2273
14223TIP3    H164160   4.158   2.483  15.528 -1.3599  0.0440  0.2328
14223TIP3    H264161   4.111   2.419  15.657  1.7278 -1.4281  0.6640
14224TIP3   OH264162   0.948   2.600   5.899 -0.6564  0.5231  0.6187
14224TIP3    H164163   0.959   2.634   5.810  0.1409  1.4395  1.0622
14224TIP3    H264164   0.986   2.667   5.956 -1.2049 -0.0323  1.6593
14225TIP3   OH264165   5.486   3.523  15.669 -0.2700 -0.0667  0.4899
14225TIP3    H164166   5.525   3.585  15.731  0.4232  0.6282 -0.6267
14225TIP3    H264167   5.415   3.572  15.627 -0.1547 -0.2441  0.0860
14226TIP3   OH264168   1.392   4.105   3.361  0.1853 -0.3411  0.1919
14226TIP3    H164169   1.411   4.025   3.312 -1.6723 -1.8860  1.9276
14226TIP3    H264170   1.446   4.098   3.440 -0.2382 -0.0178  0.5092
14227TIP3   OH264171   2.660   3.260   5.741 -0.2612  0.0287  0.2259
14227TIP3    H164172   2.748   3.277   5.708 -0.1621 -0.2450  0.3456
14227TIP3    H264173   2.673   3.238   5.833 -0.5513  0.9648  0.4989
14228TIP3   OH264174   3.025   4.186  16.246 -0.3837  0.0045  0.0450
14228TIP3    H164175   3.045   4.092  16.246 -1.1773 -0.1711  0.7945
14228TIP3    H264176   2.951   4.195  16.305 -1.7061  0.8102 -1.6852
14229TIP3   OH264177   6.172   2.556   4.341 -0.3109  0.3653 -0.0573
14229TIP3    H164178   6.173   2.494   4.268  3.8857  1.6565 -1.2691
14229TIP3    H264179   6.103   2.619   4.319 -1.3764 -1.1890 -1.1899
14230TIP3   OH264180   4.708   6.705  14.055  0.1018 -1.0181  0.1287
14230TIP3    H164181   4.755   6.787  14.039 -1.2797 -0.1922  0.2366
14230TIP3    H264182   4.712   6.695  14.150 -1.6831  0.1339  0.3518
14231TIP3   OH264183   3.679   1.658  15.081  0.0549  0.5291  0.0340
14231TIP3    H164184   3.702   1.751  15.087  0.3715  0.4623 -0.1604
14231TIP3    H264185   3.612   1.654  15.012  0.0434  0.6118  0.0401
14232TIP3   OH264186   1.007   6.560  12.704 -0.1342  0.4982 -0.0419
14232TIP3    H164187   1.000   6.479  12.755 -0.1804  0.2125 -0.5073
14232TIP3    H264188   1.098   6.564  12.678 -0.0041  0.8858  0.4535
14233TIP3   OH264189   4.464   6.114  15.274 -0.0256 -0.1645  0.1628
14233TIP3    H164190   4.409   6.193  15.273  2.0601  1.3306 -1.3040
14233TIP3    H264191   4.549   6.145  15.304  1.1568 -1.6145 -1.5867
14234TIP3   OH264192   3.696   2.554   4.296 -0.1725 -0.5781 -0.2270
14234TIP3    H164193   3.621   2.607   4.268 -1.0822 -1.5642  0.2867
14234TIP3    H264194   3.682   2.469   4.254 -0.0044 -1.1494  0.8337
14235TIP3   OH264195   3.429   6.314  13.223  0.2553 -0.2122 -0.2402
14235TIP3    H164196   3.369   6.297  13.295 -1.0412  1.1001 -0.9833
14235TIP3    H264197   3.378   6.367  13.161  2.9529  3.3655  0.4137
14236TIP3   OH264198   5.213   0.689  11.381 -0.1715  0.0138  0.6174
14236TIP3    H164199   5.178   0.777  11.397  1.3749  0.2092  3.2806
14236TIP3    H264200   5.307   0.697  11.398  0.0857 -2.0149  0.3136
14237TIP3   OH264201   3.942   1.440  11.635  0.0352 -0.1117 -0.1238
14237TIP3    H164202   3.893   1.448  11.553 -0.1668  0.7899  0.0724
14237TIP3    H264203   3.896   1.371  11.683  0.5883 -1.1486 -1.0595
14238TIP3   OH264204   5.379   5.960  13.598  0.1283  0.9035  0.1240
14238TIP3    H164205   5.318   6.023  13.637 -1.4315 -0.0817 -0.6542
14238TIP3    H264206   5.359   5.962  13.504 -1.2779 -2.0534  0.2718
14239TIP3   OH264207   0.210   2.689  11.371 -0.4137  0.3891  0.3959
14239TIP3    H164208   0.207   2.759  11.305 -2.9204 -0.6069 -0.5636
14239TIP3    H264209   0.255   2.617  11.327  0.6041  0.7523  0.8113
14240TIP3   OH264210   0.091   2.958   3.329  0.0633 -0.0940 -0.0415
14240TIP3    H164211   0.147   2.934   3.256  0.8597 -1.1591  0.9022
14240TIP3    H264212   0.013   2.995   3.288 -0.1904 -2.1432 -1.4952
14241TIP3   OH264213   1.315   3.398  15.902 -0.0677  0.4701 -0.0808
14241TIP3    H164214   1.407   3.370  15.906 -0.3482 -0.6709 -1.1856
14241TIP3    H264215   1.303   3.452  15.980  1.7117  1.1512 -0.2541
14242TIP3   OH264216   0.550   0.043  12.285  0.5950 -0.0977  0.2807
14242TIP3    H164217   0.612   0.091  12.340  1.9358 -1.0085 -0.3944
14242TIP3    H264218   0.506   0.111  12.234  1.9930  0.4882 -0.1836
14243TIP3   OH264219   6.209   4.093  11.189 -0.3892 -0.2121 -0.3397
14243TIP3    H164220   6.194   4.169  11.133 -1.6783  0.4996  0.9408
14243TIP3    H264221   6.132   4.038  11.178 -0.2078 -0.5403 -0.0085
14244TIP3   OH264222   1.142   0.884   4.494 -0.4145 -0.0836  0.0863
14244TIP3    H164223   1.132   0.972   4.530  2.0468  0.3001 -0.0932
14244TIP3    H264224   1.170   0.830   4.568 -2.1670 -0.8100  0.2542
14245TIP3   OH264225   3.398   3.154   5.273  0.3655 -0.1319  0.2909
14245TIP3    H164226   3.456   3.078   5.267 -0.4498 -0.7657  0.2878
14245TIP3    H264227   3.433   3.205   5.346  2.4242  0.7998 -1.2890
14246TIP3   OH264228   0.301   1.969   5.524 -0.3035  0.2978  0.1444
14246TIP3    H164229   0.234   1.910   5.491  0.2621 -0.1876 -0.1557
14246TIP3    H264230   0.379   1.914   5.532 -0.3181  0.4998  1.8681
14247TIP3   OH264231   0.311   4.386  15.092 -0.4081  0.0823 -0.0614
14247TIP3    H164232   0.367   4.461  15.112 -2.0632  1.1693  0.5774
14247TIP3    H264233   0.300   4.389  14.997 -0.6265  0.7647 -0.0189
14248TIP3   OH264234   2.894   4.377   0.534 -0.0500 -0.8556 -0.0116
14248TIP3    H164235   2.821   4.428   0.569 -2.0485 -1.9593 -2.3968
14248TIP3    H264236   2.972   4.422   0.564 -1.7435  2.4795 -0.4340
14249TIP3   OH264237   2.250   6.129   5.881 -0.7610 -0.3442 -0.1352
14249TIP3    H164238   2.314   6.058   5.872 -1.4302 -0.9357 -0.3416
14249TIP3    H264239   2.204   6.109   5.963 -0.3922  0.3161  0.2324
14250TIP3   OH264240   0.960   3.126   1.089 -0.4227 -0.3482 -0.4417
14250TIP3    H164241   1.008   3.077   1.021  0.8218  1.5304 -0.9641
14250TIP3    H264242   1.014   3.116   1.168 -0.0922  0.2788 -0.5846
14251TIP3   OH264243   5.446   0.386   1.183  0.5820  0.4777 -0.3570
14251TIP3    H164244   5.447   0.321   1.253 -1.5854  0.9904  0.1815
14251TIP3    H264245   5.374   0.444   1.205  0.8230  1.5305 -2.2344
14252TIP3   OH264246   3.230   2.774  12.570  0.0249 -0.1827 -0.2728
14252TIP3    H164247   3.153   2.761  12.515 -0.1351  0.7662 -0.2867
14252TIP3    H264248   3.205   2.845  12.630  0.8953  0.1759 -0.3180
14253TIP3   OH264249   6.086   3.277   3.679  0.0302 -0.2049  0.2335
14253TIP3    H164250   6.113   3.338   3.611  0.6328 -1.4922 -0.6909
14253TIP3    H264251   6.018   3.224   3.638  0.0510 -0.6686  0.7889
14254TIP3   OH264252   4.721   5.649  11.668 -0.0815  0.9199 -0.1377
14254TIP3    H164253   4.635   5.636  11.630 -0.4431  1.6472  0.4047
14254TIP3    H264254   4.706   5.712  11.739  0.9461  1.3103 -0.2622
14255TIP3   OH264255   3.524   2.249  14.499 -0.1182  0.2340 -0.3090
14255TIP3    H164256   3.484   2.276  14.417 -0.6527  1.3436  0.3009
14255TIP3    H264257   3.453   2.210  14.549  0.1156 -0.0656 -0.2087
14256TIP3   OH264258   5.016   0.993  13.174 -0.6687  0.0836  0.4100
14256TIP3    H164259   4.974   1.044  13.104 -1.4520  1.3339  1.7716
14256TIP3    H264260   5.079   1.053  13.213 -1.2730 -0.1403  1.7421
14257TIP3   OH264261   0.972   4.553  12.866  0.2538  0.0560  0.0947
14257TIP3    H164262   1.014   4.477  12.825 -0.2571 -2.0695  3.3341
14257TIP3    H264263   0.887   4.520  12.895  0.5699  1.4647  2.7653
14258TIP3   OH264264   1.817   3.745  15.996  0.1757  0.6867 -0.7362
14258TIP3    H164265   1.824   3.665  16.048  3.0250  1.8241  0.7584
14258TIP3    H264266   1.871   3.729  15.919 -1.2362  0.2936 -1.6634
14259TIP3   OH264267   4.716   4.588  14.991 -0.2156 -0.0055  0.1573
14259TIP3    H164268   4.705   4.599  15.085 -1.5014 -2.8667  0.3778
14259TIP3    H264269   4.685   4.671  14.954 -1.3852  0.4850  2.1495
14260TIP3   OH264270   1.956   6.475  15.109  0.7083 -0.2398 -0.4171
14260TIP3    H164271   1.933   6.479  15.202  0.8679  0.5998 -0.4065
14260TIP3    H264272   2.052   6.479  15.109  0.8065 -2.1821 -0.5282
14261TIP3   OH264273   6.198   0.746   1.932  0.2260  0.3779  0.0668
14261TIP3    H164274   6.183   0.816   1.996  0.9685 -0.0773  0.7528
14261TIP3    H264275   6.138   0.677   1.958  1.7854 -0.5153  1.3814
14262TIP3   OH264276   4.917   3.671   2.638 -0.5147 -0.3162 -0.3769
14262TIP3    H164277   4.916   3.726   2.716  0.6229 -0.0580 -0.5450
14262TIP3    H264278   4.987   3.608   2.653 -0.1942 -0.1815 -1.2545
14263TIP3   OH264279   1.546   2.615   3.320  0.1486 -0.3360 -0.4078
14263TIP3    H164280   1.476   2.601   3.256 -0.7022  0.5057  0.3306
14263TIP3    H264281   1.501   2.624   3.404  1.1442  0.1794  0.0777
14264TIP3   OH264282   2.500   0.463  12.552 -0.2172  0.0482  0.6495
14264TIP3    H164283   2.594   0.446  12.545 -0.6106 -2.1706  0.5932
14264TIP3    H264284   2.465   0.443  12.465 -0.6409  1.5729  0.4580
14265TIP3   OH264285   6.170   1.206   1.570  0.3800 -0.2397  0.8981
14265TIP3    H164286   6.242   1.219   1.509  0.8031 -1.2533  1.1620
14265TIP3    H264287   6.189   1.122   1.612 -0.0038  0.3436  2.2870
14266TIP3   OH264288   3.288   3.666  15.366  0.2847 -0.3976  0.6619
14266TIP3    H164289   3.314   3.702  15.451 -0.8313  1.0285  0.4206
14266TIP3    H264290   3.356   3.697  15.305 -0.5948  1.2832  0.4805
14267TIP3   OH264291   2.487   3.933   5.855  0.0509  0.2882  0.2366
14267TIP3    H164292   2.409   3.969   5.896  0.5344  0.9062  0.6309
14267TIP3    H264293   2.458   3.901   5.770 -0.8013 -0.2642  0.7282
14268TIP3   OH264294   5.099   3.056   1.957  0.9247  0.0316 -0.4517
14268TIP3    H164295   5.117   3.049   1.864 -1.9739  0.0648 -1.0720
14268TIP3    H264296   5.060   3.143   1.968  0.2604 -0.3755  0.5892
14269TIP3   OH264297   0.464   5.991  13.232 -0.2562  0.0929  0.2962
14269TIP3    H164298   0.445   6.081  13.207 -1.4480  0.4410  2.3679
14269TIP3    H264299   0.548   5.996  13.278 -0.0639  0.0736 -0.0554
14270TIP3   OH264300   4.924   1.689   4.418  0.1079  0.2900  0.3064
14270TIP3    H164301   4.899   1.674   4.509  0.1473 -0.0309  0.2647
14270TIP3    H264302   5.017   1.666   4.414 -0.3564 -1.5781 -0.2473
14271TIP3   OH264303   1.560   4.090   0.289  0.1678  0.0807 -0.2431
14271TIP3    H164304   1.575   4.088   0.195  0.3676  1.0907 -0.2401
14271TIP3    H264305   1.467   4.072   0.300  0.2495 -0.5501 -0.6057
14272TIP3   OH264306   2.202   5.075   3.223 -0.0234  0.0071  0.1689
14272TIP3    H164307   2.113   5.104   3.202 -0.2762  0.2455  1.5113
14272TIP3    H264308   2.193   5.027   3.305  0.8480 -1.3760 -0.5333
14273TIP3   OH264309   4.585   4.330  15.040  0.2003 -0.8035  0.4080
14273TIP3    H164310   4.622   4.418  15.047 -1.5798  0.3413 -3.3076
14273TIP3    H264311   4.519   4.326  15.110  0.2498  0.8201  0.5582
14274TIP3   OH264312   6.063   3.152  16.818 -0.3585 -0.0207  0.9032
14274TIP3    H164313   6.088   3.064  16.792 -3.1093 -0.7491  0.6134
14274TIP3    H264314   5.968   3.149  16.826 -0.7075  3.3819 -0.9433
14275TIP3   OH264315   3.645   0.989   2.468  0.3578  0.2288  0.2948
14275TIP3    H164316   3.703   1.064   2.486  0.8545 -0.1589  0.3301
14275TIP3    H264317   3.696   0.913   2.495  0.7410 -0.3085 -1.8557
14276TIP3   OH264318   2.162   2.207   5.990 -0.3605 -0.0791  0.1485
14276TIP3    H164319   2.212   2.246   6.062  2.7364 -1.8975 -0.9448
14276TIP3    H264320   2.103   2.146   6.034 -0.2756  0.6494  1.3264
14277TIP3   OH264321   5.374   2.395   2.473  0.8393 -0.6427  0.0192
14277TIP3    H164322   5.300   2.419   2.418 -0.2087  0.8010  2.0106
14277TIP3    H264323   5.354   2.306   2.504  0.3181 -0.5524 -0.0601
14278TIP3   OH264324   4.985   2.778  13.048 -0.1439  0.4655  0.2585
14278TIP3    H164325   4.977   2.869  13.018  0.3114  0.9057  1.4522
14278TIP3    H264326   4.899   2.740  13.031 -0.5238  1.2927  0.3070
14279TIP3   OH264327   5.162   0.399   3.515  0.3325  0.3980  0.3552
14279TIP3    H164328   5.121   0.368   3.596  0.2841 -1.3296 -0.3137
14279TIP3    H264329   5.202   0.483   3.539 -1.7689  1.0889  1.5304
14280TIP3   OH264330   2.925   2.640  16.664  0.1983 -0.2651 -0.4411
14280TIP3    H164331   2.883   2.721  16.692 -1.9113 -1.4363 -0.1614
14280TIP3    H264332   2.976   2.612  16.741 -0.4921 -0.1285  0.0702
14281TIP3   OH264333   5.516   1.777  13.770 -0.0639  0.5951  0.1432
14281TIP3    H164334   5.432   1.733  13.783 -0.4913  1.9273  2.0045
14281TIP3    H264335   5.536   1.764  13.677 -0.7030 -2.5612  0.4058
14282TIP3   OH264336   5.032   3.086  15.316 -0.0532 -0.2025  0.3540
14282TIP3    H164337   5.086   3.133  15.379  1.0500 -0.4724 -0.3849
14282TIP3    H264338   4.954   3.141  15.305  0.2219  0.3460  1.1691
14283TIP3   OH264339   5.483   5.520   5.419  0.4432 -0.0204  0.0549
14283TIP3    H164340   5.395   5.485   5.432 -0.2730  1.0782 -1.6694
14283TIP3    H264341   5.515   5.538   5.508 -0.4781 -1.8109  0.7780
14284TIP3   OH264342   4.755   1.939   1.686  0.2606 -0.0861  0.3264
14284TIP3    H164343   4.720   1.980   1.765 -1.1317 -0.8802  0.1340
14284TIP3    H264344   4.755   1.845   1.706 -0.9872 -0.3693 -0.9526
14285TIP3   OH264345   2.481   6.481  15.061  0.3753  0.1260  0.2055
14285TIP3    H164346   2.392   6.514  15.054  0.1290 -0.9011 -1.9551
14285TIP3    H264347   2.531   6.553  15.099 -1.3969  0.6643  1.5328
14286TIP3   OH264348   1.990   3.753   0.548 -0.3099 -0.0196  0.4546
14286TIP3    H164349   2.068   3.796   0.583 -0.6374  1.4409 -0.5553
14286TIP3    H264350   1.985   3.783   0.457 -0.6678 -2.0525 -0.2375
14287TIP3   OH264351   5.487   2.360   4.641 -0.2514 -0.2134  0.1513
14287TIP3    H164352   5.577   2.329   4.639 -0.2610 -0.2313 -0.0174
14287TIP3    H264353   5.443   2.311   4.572 -0.2310  0.2870 -0.2166
14288TIP3   OH264354   3.347   2.392  15.325  0.1126  0.3755 -0.9997
14288TIP3    H164355   3.388   2.311  15.354 -1.7161 -1.0260 -2.2161
14288TIP3    H264356   3.345   2.385  15.229 -2.4748  0.5870 -1.0117
14289TIP3   OH264357   0.453   3.005   5.388  0.0576  0.5000 -0.0217
14289TIP3    H164358   0.411   2.920   5.403 -0.5764  0.5964 -1.1513
14289TIP3    H264359   0.445   3.051   5.472 -0.8972 -0.0060  0.1756
14290TIP3   OH264360   2.000   3.592   6.364  0.4762 -0.1224  0.1134
14290TIP3    H164361   2.037   3.522   6.311  0.4562 -1.4926  1.8440
14290TIP3    H264362   2.071   3.616   6.425  0.7061  1.8258 -0.8777
14291TIP3   OH264363   4.526   3.085  16.243  0.8232 -0.6931  0.0272
14291TIP3    H164364   4.494   3.004  16.202  0.6574  0.0669 -1.3544
14291TIP3    H264365   4.479   3.090  16.326 -3.0629  0.6424 -2.1519
14292TIP3   OH264366   6.492   3.062  12.752  0.3197 -0.4678  0.2111
14292TIP3    H164367   6.564   3.089  12.809  0.1184 -1.0169  0.7295
14292TIP3    H264368   6.413   3.081  12.802  0.1653 -1.6880  0.4411
14293TIP3   OH264369   6.064   3.052  11.936 -0.0723  0.2792  0.4616
14293TIP3    H164370   6.020   2.967  11.947 -1.2375  0.8871  0.5119
14293TIP3    H264371   6.070   3.063  11.841 -0.8863  0.6264  0.4438
14294TIP3   OH264372   2.227   6.463   5.029  0.1090 -0.0462 -0.3747
14294TIP3    H164373   2.166   6.507   5.089  0.0481 -0.2728 -0.2716
14294TIP3    H264374   2.216   6.510   4.946  1.1396  1.1125  0.1294
14295TIP3   OH264375   4.382   2.433   4.987  0.0154  0.4053  0.4916
14295TIP3    H164376   4.313   2.380   4.948  1.2882 -1.0391  0.1220
14295TIP3    H264377   4.353   2.450   5.076 -1.7602  1.5894 -0.2766
14296TIP3   OH264378   2.972   4.457  14.332  0.3962 -0.6688  0.2651
14296TIP3    H164379   2.930   4.514  14.397 -0.8085 -2.7507  1.3622
14296TIP3    H264380   3.044   4.415  14.379  3.1646  2.0722 -1.3306
14297TIP3   OH264381   6.250   5.475   4.694  0.0196 -0.1517 -0.6526
14297TIP3    H164382   6.204   5.549   4.653 -0.4734 -0.4265 -0.6061
14297TIP3    H264383   6.209   5.398   4.654  0.7458 -0.3943 -0.9309
14298TIP3   OH264384   0.034   5.027   2.155  0.2520  1.0742 -0.2155
14298TIP3    H164385   0.049   5.114   2.119 -0.0283  1.2181  0.0169
14298TIP3    H264386   0.105   5.015   2.219  0.6604  0.8777 -0.6955
14299TIP3   OH264387   6.280   3.151   6.210  0.1719  0.4735  0.6874
14299TIP3    H164388   6.375   3.148   6.195  0.2737  2.6835  0.7360
14299TIP3    H264389   6.268   3.222   6.273 -1.5380  0.3529  0.5106
14300TIP3   OH264390   1.585   4.654  16.124  0.1419 -0.2327 -0.1232
14300TIP3    H164391   1.559   4.739  16.159  1.8409  0.8233 -1.3581
14300TIP3    H264392   1.648   4.674  16.054  1.5389 -2.5272  0.3987
14301TIP3   OH264393   5.375   2.620   5.788  0.2765 -0.5692 -0.1184
14301TIP3    H164394   5.304   2.684   5.798  0.0325 -0.4147 -2.4538
14301TIP3    H264395   5.423   2.625   5.870  0.3521  2.7517 -0.2702
14302TIP3   OH264396   1.696   4.264   6.960 -0.4672 -0.3668 -0.0202
14302TIP3    H164397   1.778   4.304   6.990  0.4745 -1.4252 -1.1296
14302TIP3    H264398   1.663   4.324   6.893 -0.9507  0.3867  0.8748
14303TIP3   OH264399   0.214   4.084   4.077  0.2039  0.4554 -0.6290
14303TIP3    H164400   0.235   3.992   4.098 -0.2365  0.3173 -0.8009
14303TIP3    H264401   0.239   4.094   3.986 -0.1191  0.3921 -0.7273
14304TIP3   OH264402   5.978   6.336  13.003 -0.5534 -0.7309 -0.3013
14304TIP3    H164403   6.047   6.398  13.028 -0.0416 -0.3953 -2.4461
14304TIP3    H264404   5.902   6.390  12.985 -0.3713 -0.7909 -1.2836
14305TIP3   OH264405   4.709   2.752   1.730  0.4236  0.0732  0.0321
14305TIP3    H164406   4.785   2.764   1.788  0.3997 -0.7837  0.2491
14305TIP3    H264407   4.722   2.666   1.691  1.5109  1.4492 -2.8418
14306TIP3   OH264408   0.029   4.204   0.706 -0.0045  0.3557 -0.5775
14306TIP3    H164409   0.116   4.166   0.712 -0.5791 -0.8769  0.1866
14306TIP3    H264410  -0.001   4.182   0.618  1.3015  2.6924 -1.6375
14307TIP3   OH264411   3.759   2.263   2.701 -0.0015  0.0935 -0.0430
14307TIP3    H164412   3.826   2.241   2.765  1.1800 -0.6079 -1.5016
14307TIP3    H264413   3.776   2.205   2.627 -0.8003  1.5222 -1.3723
14308TIP3   OH264414   1.460   4.760   4.034  0.0199  0.2331  0.0130
14308TIP3    H164415   1.371   4.751   4.070 -0.3085  0.7830 -0.6501
14308TIP3    H264416   1.449   4.739   3.941  0.4600  1.0095 -0.2105
14309TIP3   OH264417   5.499   3.452   2.628 -0.0074 -0.2696  0.0891
14309TIP3    H164418   5.485   3.447   2.723  0.2156 -0.5406  0.1115
14309TIP3    H264419   5.587   3.490   2.619  0.4458 -1.3198  0.0180
14310TIP3   OH264420   4.885   1.093  12.934 -0.0159 -0.2241  0.5932
14310TIP3    H164421   4.860   1.024  12.873 -1.0417 -0.2452  1.0421
14310TIP3    H264422   4.910   1.167  12.877 -1.7756  0.0452  0.1337
14311TIP3   OH264423   1.446   5.201  14.587 -0.2790 -0.0079  0.3887
14311TIP3    H164424   1.386   5.245  14.527  0.1693  0.6594  0.4137
14311TIP3    H264425   1.528   5.251  14.579  0.8471 -2.0152 -1.0122
14312TIP3   OH264426   4.059   1.676   6.047 -0.5307  0.6855 -0.2633
14312TIP3    H164427   4.060   1.581   6.040  0.0372  0.6608  0.2399
14312TIP3    H264428   4.024   1.694   6.134  1.2172  0.9118  0.4020
14313TIP3   OH264429   6.474   4.475  16.588 -0.1249  0.0385  0.2322
14313TIP3    H164430   6.380   4.464  16.575 -0.0860 -1.1677  0.9757
14313TIP3    H264431   6.485   4.481  16.683  0.4031  1.5926  0.0868
14314TIP3   OH264432   4.827   0.042  17.269 -0.8317 -0.3602 -0.0529
14314TIP3    H164433   4.748   0.003  17.232 -1.8150 -0.1988  1.8008
14314TIP3    H264434   4.826   0.133  17.240 -1.7182 -0.1713  0.5659
14315TIP3   OH264435   2.036   5.108   0.663 -0.4753  0.4984  1.0883
14315TIP3    H164436   2.083   5.130   0.583 -1.5720 -1.3801 -0.1290
14315TIP3    H264437   1.963   5.170   0.667 -2.5831 -1.6838 -1.4111
14316TIP3   OH264438   4.968   5.627  11.563 -0.0364  0.2631  0.1655
14316TIP3    H164439   4.971   5.711  11.518 -0.4806 -0.1642 -0.6779
14316TIP3    H264440   4.881   5.625  11.603 -0.5842 -0.4148 -1.0413
14317TIP3   OH264441   0.853   5.652  12.063 -0.3408 -0.2550  0.7085
14317TIP3    H164442   0.849   5.747  12.058  1.6760 -0.2258 -1.3547
14317TIP3    H264443   0.780   5.627  12.120 -0.4086  2.5528  1.9091
14318TIP3   OH264444   3.307   4.025  15.455 -0.3831 -0.0608 -0.1502
14318TIP3    H164445   3.393   3.986  15.441 -0.1834  0.5088 -0.5477
14318TIP3    H264446   3.325   4.111  15.492 -0.7719  0.1865 -0.5276
14319TIP3   OH264447   6.746   0.417   0.947 -0.3591  0.5143  0.2959
14319TIP3    H164448   6.696   0.440   1.026  0.2059 -1.5205  1.2893
14319TIP3    H264449   6.808   0.351   0.977  0.1492  0.0205 -1.7832
14320TIP3   OH264450   6.252   1.791   1.856 -0.7851  0.4528 -0.3145
14320TIP3    H164451   6.277   1.741   1.934  3.1970 -0.2885 -1.9259
14320TIP3    H264452   6.196   1.731   1.806 -1.4188  0.0626  0.8587
14321TIP3   OH264453   2.394   6.378   4.314 -0.1267  0.1315 -0.9610
14321TIP3    H164454   2.319   6.325   4.286  0.4665  0.1886 -2.7343
14321TIP3    H264455   2.471   6.326   4.291  0.4007  0.4173  0.1321
14322TIP3   OH264456   3.327   4.094  13.221 -0.3489 -0.0962 -0.3088
14322TIP3    H164457   3.267   4.065  13.152 -0.3892 -1.6830  0.3686
14322TIP3    H264458   3.289   4.061  13.302  0.0002  1.2603  0.4246
14323TIP3   OH264459   1.863   0.449   6.187 -0.3617 -0.0900 -0.2665
14323TIP3    H164460   1.903   0.362   6.186 -0.6768 -0.2302 -0.5925
14323TIP3    H264461   1.935   0.508   6.209 -0.1237 -0.4209 -0.1545
14324TIP3   OH264462   5.908   3.617   5.454  0.0974 -0.1708 -0.5957
14324TIP3    H164463   5.885   3.535   5.410  0.3005 -0.6239  0.1168
14324TIP3    H264464   6.004   3.619   5.451  0.0853  0.1014 -0.7334
14325TIP3   OH264465   6.626   0.330  14.434 -0.5468 -0.8990  0.1527
14325TIP3    H164466   6.684   0.322  14.358  0.1184  0.4486  0.5078
14325TIP3    H264467   6.590   0.242  14.446 -1.8726 -0.7804 -2.6721
14326TIP3   OH264468   2.364   4.962  15.133  0.2207  0.0938  0.6544
14326TIP3    H164469   2.442   4.914  15.160  0.2927 -0.5130 -0.6074
14326TIP3    H264470   2.398   5.044  15.097  0.1472  0.7306  2.0091
14327TIP3   OH264471   4.211   5.195   0.613  0.5508 -0.3450 -0.0501
14327TIP3    H164472   4.143   5.145   0.657  0.4915  0.2935  0.5883
14327TIP3    H264473   4.164   5.250   0.549  0.5400 -0.4825 -0.1599
14328TIP3   OH264474   3.625   4.031  13.215  0.1672 -0.1060 -0.2664
14328TIP3    H164475   3.588   4.100  13.270 -1.1234 -1.4708  0.6066
14328TIP3    H264476   3.603   4.057  13.126  1.4558  1.6321 -0.1105
14329TIP3   OH264477   1.799   5.480  15.675 -0.0794 -0.1048  0.1107
14329TIP3    H164478   1.842   5.552  15.628  1.6387 -0.9957  0.3000
14329TIP3    H264479   1.813   5.500  15.767 -0.6315 -0.0784  0.1935
14330TIP3   OH264480   2.138   0.155  14.195  0.1265  0.4482  0.8127
14330TIP3    H164481   2.058   0.197  14.163 -0.4561  0.1477  1.8355
14330TIP3    H264482   2.128   0.154  14.290  1.0988 -0.0957  0.9184
14331TIP3   OH264483   2.781   1.720  13.922  0.5116 -0.0901 -0.0374
14331TIP3    H164484   2.826   1.765  13.994  0.8555  1.2543 -1.0871
14331TIP3    H264485   2.834   1.738  13.845  1.1292 -2.9968 -0.3769
14332TIP3   OH264486   0.632   6.197  16.059  0.1012 -0.3488  0.6283
14332TIP3    H164487   0.541   6.175  16.042  0.3223 -0.6027 -0.3154
14332TIP3    H264488   0.634   6.230  16.149 -0.8796 -0.5341  0.7149
14333TIP3   OH264489   3.843   3.208   4.552 -0.4020 -0.2738  0.6871
14333TIP3    H164490   3.864   3.250   4.636  1.6351  0.1395 -0.0045
14333TIP3    H264491   3.804   3.124   4.576  0.3846 -0.2661  2.0412
14334TIP3   OH264492   0.700   3.996  12.965  0.1597  0.5439 -0.1247
14334TIP3    H164493   0.628   3.964  13.019  0.7745 -0.9370 -0.1494
14334TIP3    H264494   0.659   4.026  12.884 -0.3524 -1.4003 -0.6297
14335TIP3   OH264495   6.564   4.804  16.858 -0.2279 -0.0185  0.2245
14335TIP3    H164496   6.571   4.899  16.873 -2.1257  0.0873  0.5855
14335TIP3    H264497   6.594   4.791  16.769 -2.0526  1.2395 -0.5959
14336TIP3   OH264498   1.627   5.113  14.975 -0.5162  0.5087 -0.0626
14336TIP3    H164499   1.550   5.146  14.929  0.3452  1.1321 -1.0775
14336TIP3    H264500   1.668   5.191  15.012  1.0256  0.5142 -1.7000
14337TIP3   OH264501   2.339   6.744  11.925  0.5791 -0.1454  0.1479
14337TIP3    H164502   2.384   6.660  11.930 -0.3760 -0.6959 -0.6090
14337TIP3    H264503   2.355   6.775  11.836  0.2107  0.0876  0.1618
14338TIP3   OH264504   4.686   6.738  13.527 -0.3401 -0.0982 -0.1181
14338TIP3    H164505   4.686   6.661  13.470  1.0128 -0.1280 -0.0942
14338TIP3    H264506   4.715   6.810  13.470 -0.4213  0.1553  0.1622
14339TIP3   OH264507   5.372   5.507   1.783 -0.1405 -0.2638 -0.1906
14339TIP3    H164508   5.386   5.584   1.727 -1.7943 -0.4742 -0.9281
14339TIP3    H264509   5.433   5.519   1.856  0.2424  1.3102 -0.7462
14340TIP3   OH264510   1.903   1.983  15.438  0.1929  0.3986 -0.3542
14340TIP3    H164511   1.971   1.954  15.377  0.6963 -0.9860  0.8339
14340TIP3    H264512   1.915   1.928  15.515 -0.5126  2.0339  0.9616
14341TIP3   OH264513   1.232   2.880  10.361 -0.0285  0.1495 -0.3723
14341TIP3    H164514   1.154   2.888  10.417 -0.4828  1.7129 -1.1763
14341TIP3    H264515   1.283   2.959  10.380 -0.8156  1.3841 -3.0299
14342TIP3   OH264516   0.379   2.862   4.394  0.0377  0.3257 -0.6395
14342TIP3    H164517   0.410   2.916   4.467 -3.0148 -1.3060  2.0082
14342TIP3    H264518   0.286   2.884   4.386 -0.0177 -0.6330 -3.0729
14343TIP3   OH264519   3.478   6.343   0.459 -0.3275  0.0457 -0.3008
14343TIP3    H164520   3.398   6.376   0.418 -1.0835  0.0461  1.1345
14343TIP3    H264521   3.546   6.357   0.393 -1.5792 -0.3427 -1.7044
14344TIP3   OH264522   1.636   2.150  11.960  0.1563  0.1784 -0.6779
14344TIP3    H164523   1.702   2.120  11.897  0.6413 -1.0633  0.3920
14344TIP3    H264524   1.645   2.089  12.034 -1.4610  0.6647 -0.0719
14345TIP3   OH264525   5.154   6.610  13.592  0.2207 -0.4833  0.4887
14345TIP3    H164526   5.135   6.566  13.509  1.2605 -2.1261  1.1013
14345TIP3    H264527   5.178   6.699  13.567 -0.2130 -0.7488 -0.9063
14346TIP3   OH264528   2.999   2.898   3.248 -0.4433  0.2173 -0.1574
14346TIP3    H164529   2.903   2.909   3.248 -0.6722 -1.5006  1.1965
14346TIP3    H264530   3.033   2.984   3.269 -1.6063  1.3213 -2.5478
14347TIP3   OH264531   0.213   5.747   1.573  0.2983 -0.1517  0.0832
14347TIP3    H164532   0.263   5.665   1.576 -0.6120 -0.7202 -0.1805
14347TIP3    H264533   0.144   5.735   1.638  0.9286  0.9217  0.9707
14348TIP3   OH264534   5.841   0.494  15.251 -0.1945  0.3308 -0.1310
14348TIP3    H164535   5.859   0.417  15.199 -3.2582  0.5715 -1.6330
14348TIP3    H264536   5.772   0.468  15.311 -0.4615  1.5872  0.1363
14349TIP3   OH264537   3.136   0.570   6.178  0.4417 -0.5873 -0.1155
14349TIP3    H164538   3.189   0.553   6.256  2.2561 -1.1749 -1.4276
14349TIP3    H264539   3.127   0.666   6.176 -1.9122 -0.7187  2.2452
14350TIP3   OH264540   5.426   3.616   1.033  0.7388  0.0609 -0.3803
14350TIP3    H164541   5.443   3.652   1.120 -1.3616 -0.0111  0.0908
14350TIP3    H264542   5.448   3.687   0.973 -1.4534  1.5143  0.4432
14351TIP3   OH264543   2.136   4.057  15.522 -0.4035  0.1314 -0.3525
14351TIP3    H164544   2.077   4.110  15.576  0.8560  1.0130  0.2070
14351TIP3    H264545   2.083   4.031  15.447 -1.6501  0.4506  0.3984
14352TIP3   OH264546   1.993   1.715   3.704 -0.3168 -0.3390  0.0478
14352TIP3    H164547   2.043   1.680   3.778  0.5178 -0.4473 -0.5591
14352TIP3    H264548   2.005   1.651   3.634 -2.6306 -1.1642  0.3887
14353TIP3   OH264549   3.638   5.825  16.412  0.1045  0.4870  0.3191
14353TIP3    H164550   3.688   5.890  16.363  0.1562 -1.5183 -2.4083
14353TIP3    H264551   3.698   5.752  16.423 -1.0446 -0.4804  0.2725
14354TIP3   OH264552   1.800   5.726  12.697  0.6316 -0.1192 -0.3811
14354TIP3    H164553   1.834   5.729  12.608 -0.3342  0.5433 -0.7305
14354TIP3    H264554   1.723   5.782  12.696  0.4967 -0.2601  0.8247
14355TIP3   OH264555   5.849   6.763  16.861  0.6625 -0.7298  0.0724
14355TIP3    H164556   5.778   6.725  16.811  0.8316  0.1403 -0.8450
14355TIP3    H264557   5.917   6.782  16.796  0.7126  0.7981  0.5560
14356TIP3   OH264558   5.488   5.595   2.505  0.1283  0.1047 -0.4152
14356TIP3    H164559   5.501   5.550   2.421 -0.3590  1.8987 -1.4906
14356TIP3    H264560   5.573   5.633   2.525 -0.0214  0.5804 -0.6619
14357TIP3   OH264561   4.198   4.534   3.655  0.7001  0.5947 -0.1708
14357TIP3    H164562   4.129   4.599   3.636 -0.2180 -0.2860  0.1098
14357TIP3    H264563   4.256   4.538   3.579  0.3410  1.3432 -0.4139
14358TIP3   OH264564   3.618   3.290  15.093 -0.2069 -0.1330  0.4310
14358TIP3    H164565   3.576   3.252  15.169 -0.5720  0.5148  0.5630
14358TIP3    H264566   3.668   3.365  15.128  0.8409 -0.7257  0.2394
14359TIP3   OH264567   5.461   2.417  14.539 -0.6695 -0.0234 -0.9172
14359TIP3    H164568   5.448   2.499  14.490 -1.8504 -1.3057 -2.7964
14359TIP3    H264569   5.435   2.348  14.479 -2.9358 -1.6422  1.7745
14360TIP3   OH264570   1.601   3.441   1.039 -0.8017 -0.6825  0.5706
14360TIP3    H164571   1.603   3.531   1.006 -0.5588 -1.1967 -0.8234
14360TIP3    H264572   1.690   3.425   1.069 -0.2673 -1.2011 -1.2288
14361TIP3   OH264573   2.858   2.240  11.785  0.7890 -0.1665  0.4405
14361TIP3    H164574   2.784   2.180  11.779  0.4264  0.3404 -0.1864
14361TIP3    H264575   2.927   2.198  11.733  0.7418 -0.3428  0.5202
14362TIP3   OH264576   2.512   1.399   5.948 -0.1017  0.6367  0.3384
14362TIP3    H164577   2.552   1.382   5.863 -1.2850 -0.1054 -0.0796
14362TIP3    H264578   2.548   1.484   5.975  1.0816  0.3820 -0.4099
14363TIP3   OH264579   3.357   1.625   0.165  0.1199 -0.2789 -0.3810
14363TIP3    H164580   3.316   1.571   0.233 -0.1325 -0.5449 -0.7404
14363TIP3    H264581   3.416   1.565   0.120  1.3132  0.2313  0.4733
14364TIP3   OH264582   4.601   0.883  11.015  0.2474  0.2434 -0.1435
14364TIP3    H164583   4.598   0.885  10.919  1.6344  0.0142 -0.2013
14364TIP3    H264584   4.545   0.809  11.039 -1.4972  1.3759 -0.6904
14365TIP3   OH264585   4.509   2.670   1.912  0.1467  0.4530 -0.3449
14365TIP3    H164586   4.593   2.699   1.876 -0.3187  1.5976 -0.5398
14365TIP3    H264587   4.489   2.734   1.980 -0.7634  0.4174 -0.5730
14366TIP3   OH264588   0.742   4.375   5.952  0.4283  0.6408 -0.2662
14366TIP3    H164589   0.790   4.447   5.992  0.3924 -0.0720  1.1035
14366TIP3    H264590   0.786   4.296   5.984  0.6712  0.0370 -1.9926
14367TIP3   OH264591   2.209   0.032  15.907 -0.2743  0.3572 -0.4770
14367TIP3    H164592   2.119   0.046  15.938 -0.1375 -1.2225  0.6865
14367TIP3    H264593   2.205   0.052  15.814 -2.0317 -0.5257 -0.6201
14368TIP3   OH264594   0.497   4.165  15.129 -0.5191  0.1738 -0.2966
14368TIP3    H164595   0.425   4.205  15.178  1.1400  0.3498  2.1008
14368TIP3    H264596   0.504   4.216  15.049 -0.7735  2.4328  1.0805
14369TIP3   OH264597   1.379   0.290   1.861 -0.3265  0.2796  0.0477
14369TIP3    H164598   1.435   0.351   1.908 -0.5058  0.9321 -0.5754
14369TIP3    H264599   1.313   0.264   1.926  0.2140  0.1378  0.5413
14370TIP3   OH264600   3.986   6.095  13.088  0.3535 -0.2011  0.0725
14370TIP3    H164601   3.955   6.034  13.020  0.1473 -0.5029  0.4319
14370TIP3    H264602   4.048   6.152  13.043  0.4812 -0.6207 -0.2894
14371TIP3   OH264603   5.414   3.909   4.521  0.0352  0.2374 -0.3078
14371TIP3    H164604   5.503   3.910   4.486  0.9726  3.2955  2.0200
14371TIP3    H264605   5.381   3.997   4.506 -2.0306 -0.3865  0.3570
14372TIP3   OH264606   0.865   2.206  15.721  0.5248 -0.8151 -0.1799
14372TIP3    H164607   0.777   2.194  15.755  0.1845  0.8694 -0.4084
14372TIP3    H264608   0.852   2.222  15.627  1.0227 -0.0527 -0.1255
14373TIP3   OH264609   4.748   6.556   3.720 -0.1336 -0.3189 -0.4034
14373TIP3    H164610   4.731   6.603   3.802 -1.6065  0.7791 -1.2997
14373TIP3    H264611   4.771   6.625   3.658 -0.7429 -0.9589 -1.3441
14374TIP3   OH264612   2.473   5.268  13.800  0.0036  0.1621 -0.3574
14374TIP3    H164613   2.380   5.278  13.780  0.0616  0.4196 -0.4947
14374TIP3    H264614   2.482   5.177  13.828 -0.1508 -0.0723 -1.0747
14375TIP3   OH264615   5.605   2.274  16.598 -0.4598 -0.1653 -0.4187
14375TIP3    H164616   5.548   2.197  16.600  0.8719 -1.1643  1.5409
14375TIP3    H264617   5.556   2.342  16.643 -0.1840 -0.9919  1.1737
14376TIP3   OH264618   4.924   2.139   5.083  0.3025  0.3151 -0.2366
14376TIP3    H164619   4.966   2.181   5.008  1.2004 -0.0852  0.0280
14376TIP3    H264620   4.956   2.188   5.159 -0.0973  0.3159 -0.0677
14377TIP3   OH264621   0.134   1.987   6.132  0.2811  0.4966  0.2725
14377TIP3    H164622   0.207   2.047   6.116  0.0506  0.6369 -0.2803
14377TIP3    H264623   0.167   1.902   6.103 -0.1049  0.7348 -0.9139
14378TIP3   OH264624   3.808   3.834  14.565 -0.1463  0.4970  0.8692
14378TIP3    H164625   3.785   3.755  14.615 -1.1884 -0.2208 -0.7134
14378TIP3    H264626   3.894   3.815  14.529 -0.1245  0.3357  1.0015
14379TIP3   OH264627   0.429   2.745  13.325  0.4015  0.3160 -0.1783
14379TIP3    H164628   0.339   2.752  13.293  0.2168 -0.4566  0.1592
14379TIP3    H264629   0.444   2.826  13.373  0.6475  1.4519 -2.1185
14380TIP3   OH264630   5.222   4.054  16.606 -0.3190 -0.7169  0.4442
14380TIP3    H164631   5.309   4.017  16.622 -0.0136  0.5629  1.8857
14380TIP3    H264632   5.161   3.987  16.638  0.1803 -0.9690  0.8840
14381TIP3   OH264633   1.661   4.184  13.499 -0.1357  0.1199  0.8373
14381TIP3    H164634   1.670   4.278  13.483 -0.2993 -0.1194 -0.7219
14381TIP3    H264635   1.578   4.161  13.458 -1.1881 -0.3019  3.1375
14382TIP3   OH264636   1.329   5.238  13.659 -0.1793  0.2710 -0.5509
14382TIP3    H164637   1.303   5.294  13.732  0.5741 -1.0493  0.7640
14382TIP3    H264638   1.412   5.200  13.688 -0.9236 -1.8969 -1.1953
14383TIP3   OH264639   1.846   0.983   0.430 -0.3505 -0.0450  0.0112
14383TIP3    H164640   1.797   0.917   0.479  0.3208 -0.6450 -0.1079
14383TIP3    H264641   1.928   0.992   0.477  0.0885 -0.2513 -0.7090
14384TIP3   OH264642   5.491   3.787   4.023 -0.8500 -0.1363 -0.0247
14384TIP3    H164643   5.511   3.704   4.067 -1.7038 -0.5513 -0.4069
14384TIP3    H264644   5.457   3.843   4.093 -1.6234 -0.5879 -0.0373
14385TIP3   OH264645   0.300   4.603  11.914  0.0025  0.2300  0.6522
14385TIP3    H164646   0.329   4.572  12.000 -2.4242 -0.6337  1.2279
14385TIP3    H264647   0.365   4.571  11.853  1.1595 -0.1294  2.0484
14386TIP3   OH264648   2.402   0.767  14.203 -0.6961  0.1662 -0.0755
14386TIP3    H164649   2.390   0.700  14.270 -3.2313 -0.5985 -1.2231
14386TIP3    H264650   2.429   0.718  14.125 -1.1864  0.6368 -0.5439
14387TIP3   OH264651   2.047   0.357  12.128 -0.1321  0.4043 -0.0870
14387TIP3    H164652   1.992   0.332  12.053  0.4431  0.2174 -0.4509
14387TIP3    H264653   2.088   0.276  12.156 -1.4327  0.2265  1.3365
14388TIP3   OH264654   5.913   5.959   1.809  0.5362 -0.4735  0.0189
14388TIP3    H164655   5.867   5.879   1.836 -0.4857  0.2874  0.5312
14388TIP3    H264656   5.846   6.027   1.808  1.6581  0.6700  0.8375
14389TIP3   OH264657   6.261   3.112  13.473 -0.4359  0.7089  0.3832
14389TIP3    H164658   6.182   3.087  13.426  0.5011 -0.7969 -0.4237
14389TIP3    H264659   6.299   3.029  13.501  0.6276  1.4469  1.1702
14390TIP3   OH264660   3.228   5.465   2.512  0.5629 -0.2684 -0.4238
14390TIP3    H164661   3.271   5.470   2.597  3.6260 -2.3456 -1.7458
14390TIP3    H264662   3.173   5.387   2.518 -0.7013  0.6379  0.2146
14391TIP3   OH264663   5.012   4.867   0.244 -0.5319  0.3376 -0.1761
14391TIP3    H164664   5.014   4.780   0.203 -0.6859  0.2422  0.0144
14391TIP3    H264665   4.937   4.863   0.304 -1.7295  1.2432 -1.5883
14392TIP3   OH264666   5.751   6.106   2.293 -0.1294  0.0309  0.2374
14392TIP3    H164667   5.796   6.174   2.344  0.1352  0.1267 -0.1216
14392TIP3    H264668   5.814   6.083   2.225 -0.9134  0.6799 -0.7082
14393TIP3   OH264669   3.922   2.618  11.132  0.4157  0.5608 -0.4799
14393TIP3    H164670   3.910   2.664  11.049  1.1442  0.9057 -0.3947
14393TIP3    H264671   4.013   2.634  11.156  1.1640 -2.2858 -1.2601
14394TIP3   OH264672   4.952   1.823  12.466  0.3885  0.3799  0.3213
14394TIP3    H164673   5.018   1.891  12.456  0.1332  0.4759 -0.8424
14394TIP3    H264674   4.957   1.773  12.385 -1.8467  1.2016 -0.3670
14395TIP3   OH264675   0.676   5.674   3.660  0.1005  0.0099  0.5942
14395TIP3    H164676   0.758   5.720   3.644 -1.0541  2.2386  0.8023
14395TIP3    H264677   0.616   5.742   3.689 -2.1251 -1.3708 -0.5916
14396TIP3   OH264678   5.421   6.472  15.246  0.7636  0.7001 -0.0587
14396TIP3    H164679   5.357   6.418  15.200  0.8151  1.4349 -0.9972
14396TIP3    H264680   5.447   6.538  15.182  1.6834  1.0379  0.6587
14397TIP3   OH264681   0.493   0.136   5.748 -0.3326  0.0535 -0.2907
14397TIP3    H164682   0.588   0.131   5.760 -0.1388  1.1507 -1.2978
14397TIP3    H264683   0.481   0.190   5.670 -1.7757 -0.6619 -0.5837
14398TIP3   OH264684   0.599   1.035  16.489 -0.0604 -0.3766 -0.5825
14398TIP3    H164685   0.504   1.040  16.498 -0.4591 -3.2163 -2.4904
14398TIP3    H264686   0.629   0.997  16.572 -0.6581 -0.2117 -0.2913
14399TIP3   OH264687   3.480   6.147  15.684  0.2954 -0.7123  0.1424
14399TIP3    H164688   3.499   6.053  15.687 -0.5175 -0.9077 -0.5194
14399TIP3    H264689   3.469   6.172  15.776 -1.3451 -1.6696  0.2268
14400TIP3   OH264690   4.206   4.235   4.159 -0.7003  0.4652  0.3517
14400TIP3    H164691   4.195   4.162   4.220  1.7220  0.3809  0.7181
14400TIP3    H264692   4.146   4.302   4.191 -0.8771 -0.3132  1.6797
14401TIP3   OH264693   5.533   5.485  16.650  0.3273  0.1332 -0.1488
14401TIP3    H164694   5.483   5.551  16.698  2.4355  2.2847 -0.8191
14401TIP3    H264695   5.501   5.491  16.560  0.6537  0.3597 -0.2478
14402TIP3   OH264696   5.283   1.018  15.248  0.6478 -0.0769  0.1933
14402TIP3    H164697   5.354   1.023  15.312  1.1836  2.0353 -0.5347
14402TIP3    H264698   5.313   1.071  15.175 -1.8160  1.1310  0.0099
14403TIP3   OH264699   5.651   2.467   1.246 -0.3595 -0.0833  0.0522
14403TIP3    H164700   5.616   2.464   1.335 -1.7897 -1.3685 -0.5173
14403TIP3    H264701   5.698   2.384   1.236 -0.1014  0.1098 -0.3534
14404TIP3   OH264702   1.449   5.490  13.619  0.2754 -0.1910  0.5145
14404TIP3    H164703   1.512   5.428  13.654 -1.0838 -1.0408  1.5220
14404TIP3    H264704   1.370   5.438  13.605  0.2284  0.5210 -2.1448
14405TIP3   OH264705   5.624   4.248  11.523  0.5613  0.1991 -0.5747
14405TIP3    H164706   5.602   4.271  11.614  2.5675  0.2932 -0.0854
14405TIP3    H264707   5.649   4.331  11.483  1.2580 -0.0849 -0.7371
14406TIP3   OH264708   3.804   0.002   0.289  0.0235 -0.6453  0.3673
14406TIP3    H164709   3.758   0.000   0.206  2.3524  1.0345 -0.9972
14406TIP3    H264710   3.896  -0.008   0.266  0.6546 -0.7446  2.8006
14407TIP3   OH264711   2.292   2.617   2.654 -0.1266 -0.1290 -0.2081
14407TIP3    H164712   2.273   2.597   2.562 -0.8292 -0.4946  0.0156
14407TIP3    H264713   2.265   2.708   2.664 -1.7781 -0.6293  0.0961
14408TIP3   OH264714   2.442   1.524   3.031  0.2320  0.1578 -0.2415
14408TIP3    H164715   2.460   1.452   2.970 -1.7297 -2.1159  1.7548
14408TIP3    H264716   2.476   1.493   3.114 -0.3293  1.7072  0.5721
14409TIP3   OH264717   4.701   3.719  15.302 -0.6198  0.1186  0.5919
14409TIP3    H164718   4.684   3.682  15.215  1.1670  2.4347 -0.7670
14409TIP3    H264719   4.620   3.766  15.323 -1.0754 -0.4741  0.2208
14410TIP3   OH264720   4.525   0.929   3.503 -0.6217  0.3003  0.0798
14410TIP3    H164721   4.578   0.849   3.499 -0.6894  0.3259 -1.5360
14410TIP3    H264722   4.444   0.900   3.546  0.0892 -0.0635  1.2166
14411TIP3   OH264723   2.127   5.819   1.533  0.2724  0.0581  0.1961
14411TIP3    H164724   2.097   5.815   1.624  2.8207 -0.4301  1.0353
14411TIP3    H264725   2.055   5.780   1.483 -0.8563 -0.3272  2.0547
14412TIP3   OH264726   5.943   3.004   5.603  0.4233  0.2615 -0.1691
14412TIP3    H164727   6.008   3.038   5.664 -0.0509  1.3976 -0.2835
14412TIP3    H264728   5.979   3.023   5.516 -0.1051  0.9899 -0.2326
14413TIP3   OH264729   4.246   3.999  13.801 -0.6007  1.3705  0.2346
14413TIP3    H164730   4.336   3.978  13.778 -0.2037  0.5586  2.4893
14413TIP3    H264731   4.193   3.942  13.746  0.2710  1.0627 -0.2927
14414TIP3   OH264732   3.743   1.950   4.797  0.2745 -0.3005  0.2313
14414TIP3    H164733   3.685   1.875   4.785 -1.4370  1.0502 -0.1225
14414TIP3    H264734   3.771   1.973   4.709  0.0280  0.0815  0.2543
14415TIP3   OH264735   3.137   6.270  13.964 -0.0392 -0.0032 -0.2045
14415TIP3    H164736   3.166   6.348  14.013  1.4329 -0.7884  0.2117
14415TIP3    H264737   3.183   6.197  14.006 -0.9613 -1.0340 -0.9604
14416TIP3   OH264738   5.215   3.640  12.444  0.0857 -0.9447  0.8459
14416TIP3    H164739   5.290   3.661  12.499  1.5529  0.8626 -1.7444
14416TIP3    H264740   5.151   3.709  12.463  1.0879  0.4184 -0.5485
14417TIP3   OH264741   2.232   0.211  11.756 -0.3800 -0.0630  0.1970
14417TIP3    H164742   2.318   0.179  11.728 -0.3833  0.8858 -0.9302
14417TIP3    H264743   2.182   0.132  11.776  0.8095 -0.6174  1.0523
14418TIP3   OH264744   6.763   1.983   3.319  0.6240 -0.0447  0.8028
14418TIP3    H164745   6.700   1.977   3.390 -0.9561  2.1166 -0.3473
14418TIP3    H264746   6.715   1.952   3.242  0.2041  3.4920 -0.4664
14419TIP3   OH264747   2.232   1.111   0.191  0.0154 -0.0871  0.2405
14419TIP3    H164748   2.192   1.095   0.276 -0.2028  1.3322  0.4156
14419TIP3    H264749   2.183   1.056   0.130 -0.0458 -0.8472  0.9742
14420TIP3   OH264750   2.092   1.662   1.679  0.5701  0.3095 -0.2068
14420TIP3    H164751   2.057   1.751   1.673 -1.8931 -0.6550 -0.7370
14420TIP3    H264752   2.092   1.643   1.773  0.1672  0.5010 -0.1662
14421TIP3   OH264753   6.225   4.749  16.864  0.0308 -0.2066  0.0618
14421TIP3    H164754   6.226   4.689  16.939 -0.7509  1.1406  1.1693
14421TIP3    H264755   6.314   4.745  16.829  0.1959 -1.4339  0.5865
14422TIP3   OH264756   5.727   6.485  12.000  0.2593 -0.1459 -0.5541
14422TIP3    H164757   5.812   6.466  12.039 -0.4316  1.0860  1.6623
14422TIP3    H264758   5.721   6.581  12.002 -1.6889 -0.2688  0.5130
14423TIP3   OH264759   6.087   2.434   2.862 -0.1052  0.1833  0.1055
14423TIP3    H164760   6.140   2.356   2.850  0.0136  0.3915 -0.7642
14423TIP3    H264761   6.150   2.504   2.880 -0.1522  0.2432  0.0389
14424TIP3   OH264762   0.209   2.328   0.722  0.3528  0.2575 -0.1413
14424TIP3    H164763   0.248   2.265   0.782  0.1276  0.7184  0.4956
14424TIP3    H264764   0.158   2.387   0.778  1.2341  1.5133 -0.6241
14425TIP3   OH264765   3.002   3.050  16.287 -0.2286  0.1493 -0.0573
14425TIP3    H164766   3.061   3.022  16.217  0.7311  1.1125  0.3411
14425TIP3    H264767   2.951   2.972  16.309  0.4781 -0.5396 -0.8340
14426TIP3   OH264768   5.572   1.152   0.173 -0.0280 -0.6298  0.2005
14426TIP3    H164769   5.531   1.084   0.227 -1.0108 -2.0598 -2.2377
14426TIP3    H264770   5.614   1.103   0.102 -1.2053  1.3172 -1.8858
14427TIP3   OH264771   6.737   3.396  14.388 -0.6652 -0.7092  0.1166
14427TIP3    H164772   6.790   3.449  14.328 -1.3328 -2.0389 -1.7119
14427TIP3    H264773   6.764   3.423  14.475  1.4915  0.1379 -0.7892
14428TIP3   OH264774   6.370   3.491   4.416  0.0082 -0.0493 -0.3108
14428TIP3    H164775   6.374   3.586   4.412 -1.2645  0.0707  0.8512
14428TIP3    H264776   6.461   3.464   4.431  0.6670  0.8512 -2.5025
14429TIP3   OH264777   3.564   6.296   1.628  0.1913  0.2772  0.6799
14429TIP3    H164778   3.603   6.211   1.646 -0.3877 -0.4865 -1.6076
14429TIP3    H264779   3.577   6.310   1.535 -2.7468  1.1330  0.3485
14430TIP3   OH264780   5.624   5.125   4.929 -0.5750 -0.2503 -0.5779
14430TIP3    H164781   5.558   5.096   4.992  1.6822  1.0262  2.4875
14430TIP3    H264782   5.593   5.212   4.901  0.4403  0.9684  1.9212
14431TIP3   OH264783   1.216   2.587   1.897 -0.2342  0.5205 -0.0065
14431TIP3    H164784   1.159   2.661   1.875 -2.2080 -0.5870  1.2578
14431TIP3    H264785   1.249   2.557   1.813  2.4143  4.2034 -0.4047
14432TIP3   OH264786   1.075   4.784   4.703 -0.0952 -0.2336  0.0572
14432TIP3    H164787   1.018   4.707   4.699 -0.6759  0.2260 -0.6961
14432TIP3    H264788   1.154   4.757   4.657 -0.3297 -0.3579 -0.2749
14433TIP3   OH264789   3.513   5.413  11.044  0.4601 -0.0972  0.4030
14433TIP3    H164790   3.525   5.330  10.996 -0.5299 -1.8808  3.1234
14433TIP3    H264791   3.418   5.426  11.044  0.4654 -0.0019  1.6508
14434TIP3   OH264792   6.266   6.431   3.698  0.2296  0.4949  0.3516
14434TIP3    H164793   6.194   6.371   3.678 -0.1888  0.6747  1.2954
14434TIP3    H264794   6.327   6.379   3.750  1.1377  0.1330 -1.0503
14435TIP3   OH264795   5.851   0.104   5.868 -0.5609  0.0475  0.0910
14435TIP3    H164796   5.823   0.023   5.910 -0.1662  1.0645  2.3982
14435TIP3    H264797   5.934   0.081   5.824 -0.2583 -0.6988  1.0457
14436TIP3   OH264798   3.874   3.027   3.867  0.4836 -0.5111 -0.5874
14436TIP3    H164799   3.842   2.939   3.890 -0.1362 -0.5204 -1.4698
14436TIP3    H264800   3.899   3.019   3.775  0.6737  0.1685 -0.5906
14437TIP3   OH264801   4.889   3.032   3.045 -0.2599 -0.2163  0.1660
14437TIP3    H164802   4.946   3.090   2.994  0.2974 -0.8062  0.1016
14437TIP3    H264803   4.848   3.088   3.110 -0.4391  0.4198 -0.4866
14438TIP3   OH264804   2.815   2.051   2.029 -0.1327 -0.7253  0.1033
14438TIP3    H164805   2.778   1.963   2.024 -0.7669 -0.4643  0.1478
14438TIP3    H264806   2.877   2.054   1.956  0.6742 -1.5579  0.7399
14439TIP3   OH264807   2.895   4.637  15.902  0.5255 -0.4608  0.2799
14439TIP3    H164808   2.941   4.626  15.986  0.7933  0.1882  0.2221
14439TIP3    H264809   2.875   4.731  15.899 -1.0932 -0.7859  0.4573
14440TIP3   OH264810   6.157   1.148  14.158 -0.2734  0.2435  0.9280
14440TIP3    H164811   6.090   1.207  14.124  0.5961  0.4603 -0.4841
14440TIP3    H264812   6.240   1.194  14.141  0.4797 -1.7748 -1.0773
14441TIP3   OH264813   4.794   5.658  14.120  0.0762  0.4352  0.1184
14441TIP3    H164814   4.745   5.628  14.197  1.6241  0.5611  1.1624
14441TIP3    H264815   4.817   5.578  14.073 -0.6040  0.3425 -0.0678
14442TIP3   OH264816   6.775   2.270   5.198  0.1757  0.3477  0.2712
14442TIP3    H164817   6.871   2.264   5.200  0.2535  1.1387 -0.5770
14442TIP3    H264818   6.746   2.220   5.274  1.1804 -1.6455 -0.6307
14443TIP3   OH264819   5.035   6.433  11.079  0.0174 -0.0988  0.2968
14443TIP3    H164820   4.961   6.434  11.019  0.1738 -1.6021  0.0492
14443TIP3    H264821   5.101   6.380  11.034  0.8972  0.4672  0.9133
14444TIP3   OH264822   0.087   3.458  13.343  0.4422 -0.2984  0.6694
14444TIP3    H164823   0.100   3.518  13.417 -0.4910  0.5937  0.1118
14444TIP3    H264824   0.175   3.425  13.324  0.7735 -0.1015  1.8139
14445TIP3   OH264825   1.214   2.657  12.347  0.2508 -0.8335 -0.0323
14445TIP3    H164826   1.165   2.739  12.351 -0.1884 -1.1126  0.4183
14445TIP3    H264827   1.293   2.679  12.298  0.3098 -0.0566  0.3994
14446TIP3   OH264828   4.633   1.363   3.120 -0.3983 -0.2729  0.0574
14446TIP3    H164829   4.659   1.426   3.188 -1.3842  0.7147 -0.4642
14446TIP3    H264830   4.655   1.278   3.157  0.3292  0.3316  1.0586
14447TIP3   OH264831   0.386   5.611  12.564  0.1179 -0.1205  0.1588
14447TIP3    H164832   0.405   5.539  12.504 -0.1086  0.4799 -0.6437
14447TIP3    H264833   0.358   5.683  12.507  0.4068  0.6219  0.9436
14448TIP3   OH264834   6.046   6.153   1.329 -0.7711  0.1066 -0.3854
14448TIP3    H164835   6.021   6.244   1.315 -1.5176 -0.4539 -2.9301
14448TIP3    H264836   5.964   6.105   1.331 -0.3372 -0.6318  0.0725
14449TIP3   OH264837   2.682   0.357  15.849 -0.3661  0.0593  0.4809
14449TIP3    H164838   2.590   0.364  15.823 -0.6411  2.6399  2.0300
14449TIP3    H264839   2.720   0.295  15.786 -2.8640 -0.1207 -0.9194
14450TIP3   OH264840   1.687   0.054  16.306 -0.2566 -0.3201 -0.6142
14450TIP3    H164841   1.776   0.088  16.298 -0.0189 -1.1964 -1.7527
14450TIP3    H264842   1.688  -0.000  16.384  0.5347 -1.3172 -1.3107
14451TIP3   OH264843   3.245   3.451  15.564  0.3069  0.2588 -0.0481
14451TIP3    H164844   3.196   3.501  15.630 -1.5680 -1.3287 -0.2023
14451TIP3    H264845   3.257   3.513  15.492 -2.3959  0.4206 -0.4269
14452TIP3   OH264846   2.375   4.622  11.789  0.3388 -0.5685  0.1232
14452TIP3    H164847   2.306   4.572  11.744 -0.3217  0.6321 -0.2011
14452TIP3    H264848   2.434   4.650  11.718  0.0224  0.1817  0.1523
14453TIP3   OH264849   1.044   1.469   5.890 -0.1123  0.4038  0.1100
14453TIP3    H164850   0.993   1.404   5.939  0.5349 -0.2448 -0.0667
14453TIP3    H264851   1.097   1.417   5.830  1.2419  1.0442  0.7442
14454TIP3   OH264852   1.950   1.096   1.179  0.0667 -0.8480  0.0662
14454TIP3    H164853   2.029   1.143   1.205  1.7879 -3.1705 -0.8467
14454TIP3    H264854   1.912   1.065   1.261  0.8793 -0.9239  0.4227
14455TIP3   OH264855   4.017   1.857   3.686  0.1885  0.9445 -0.5330
14455TIP3    H164856   4.042   1.816   3.604  1.3375  1.1845 -0.3029
14455TIP3    H264857   3.921   1.866   3.680 -0.1678 -2.1550 -0.4021
14456TIP3   OH264858   1.886   4.375   1.180  0.6334 -0.1708 -0.2356
14456TIP3    H164859   1.936   4.299   1.210 -0.9953 -2.7369 -3.7061
14456TIP3    H264860   1.795   4.348   1.188  0.0702  0.4992 -3.6338
14457TIP3   OH264861   2.875   2.212  15.037 -0.1845 -0.1724 -0.0369
14457TIP3    H164862   2.784   2.216  15.067  0.2957 -1.1125  1.5635
14457TIP3    H264863   2.869   2.174  14.949 -1.5877  2.5300 -1.1939
14458TIP3   OH264864   4.000   3.840   6.098  0.3522 -0.1444 -0.2489
14458TIP3    H164865   4.063   3.864   6.166  0.7063 -5.5627  1.5152
14458TIP3    H264866   3.915   3.848   6.140  0.5016 -2.3767  0.5059
14459TIP3   OH264867   2.387   5.557   5.506  0.3076  0.3940 -0.2082
14459TIP3    H164868   2.464   5.542   5.562 -1.2140 -1.0170  1.5423
14459TIP3    H264869   2.422   5.552   5.416  2.1491 -0.8198  0.5394
14460TIP3   OH264870   1.858   1.929  12.648  0.5515 -0.2078  0.2524
14460TIP3    H164871   1.905   1.896  12.724  0.4655  1.3223  0.9992
14460TIP3    H264872   1.869   2.024  12.652 -0.4116 -0.0155 -1.0181
14461TIP3   OH264873   1.032   5.822   0.580 -0.2306  0.0693  0.2937
14461TIP3    H164874   1.066   5.845   0.667 -0.2508 -1.6650  0.7800
14461TIP3    H264875   0.951   5.775   0.599 -0.9881  0.9509 -0.7308
14462TIP3   OH264876   1.581   6.422  16.848  0.2566 -0.3735 -0.0762
14462TIP3    H164877   1.634   6.496  16.878 -0.0909  0.0476 -0.5031
14462TIP3    H264878   1.633   6.345  16.872  1.1717  0.0430 -0.6814
14463TIP3   OH264879   1.837   0.020  14.598 -0.1882 -0.1600 -0.0453
14463TIP3    H164880   1.833   0.074  14.676 -0.5123 -1.0164  0.5420
14463TIP3    H264881   1.759   0.044  14.547 -0.1154  0.2059  0.0159
14464TIP3   OH264882   2.775   5.105   4.871  0.0603  0.4808  0.2227
14464TIP3    H164883   2.775   5.111   4.967 -4.0303  0.2039  0.2996
14464TIP3    H264884   2.756   5.194   4.842 -0.5840  0.1686 -0.2950
14465TIP3   OH264885   5.435   6.470   3.227  0.6241  1.0071  0.4830
14465TIP3    H164886   5.347   6.504   3.215  0.5000  1.1074  1.5910
14465TIP3    H264887   5.463   6.505   3.312  1.1804 -0.1714  0.8021
14466TIP3   OH264888   3.065   4.398   3.546 -0.2948 -0.3512 -0.4229
14466TIP3    H164889   2.980   4.358   3.566 -0.6858 -0.0685 -1.5023
14466TIP3    H264890   3.058   4.424   3.455 -0.5575  3.5238  0.6158
14467TIP3   OH264891   5.197   2.663   5.373  0.1716 -0.2547  0.5930
14467TIP3    H164892   5.286   2.647   5.342  0.0928 -0.9745  0.7276
14467TIP3    H264893   5.188   2.606   5.450 -0.9406 -1.3775 -0.3602
14468TIP3   OH264894   1.596   3.585   5.405  0.7063  0.2767  0.1084
14468TIP3    H164895   1.595   3.676   5.434  0.5596  0.6328 -1.0171
14468TIP3    H264896   1.630   3.587   5.316 -1.8927 -0.4536 -0.9554
14469TIP3   OH264897   5.312   2.361   3.651 -0.4172  0.1155  0.0740
14469TIP3    H164898   5.292   2.273   3.685 -1.5712  1.1110  2.0575
14469TIP3    H264899   5.239   2.382   3.593  0.1718 -0.4583 -0.9015
14470TIP3   OH264900   2.253   1.112   5.876 -0.2427  0.2911 -0.4287
14470TIP3    H164901   2.293   1.036   5.919 -2.5908 -1.2877 -0.9507
14470TIP3    H264902   2.219   1.077   5.793 -1.0800  1.9907 -0.8207
14471TIP3   OH264903   3.699   4.495   0.114  0.5795 -0.5953  0.0396
14471TIP3    H164904   3.663   4.407   0.129 -0.8829  0.3021  1.8823
14471TIP3    H264905   3.747   4.516   0.194 -1.0589  1.2329  0.5709
14472TIP3   OH264906   2.046   0.821   3.314  0.2556  0.7210 -0.1080
14472TIP3    H164907   2.140   0.841   3.316  0.2375  0.7767  0.2769
14472TIP3    H264908   2.029   0.779   3.398 -0.2519  1.5542  0.2114
14473TIP3   OH264909   1.015   5.588  15.053 -0.1902  0.0318 -0.0464
14473TIP3    H164910   1.072   5.661  15.030 -0.5444  0.6824  1.1080
14473TIP3    H264911   1.071   5.510  15.045 -0.1430  0.2987 -2.4370
14474TIP3   OH264912   2.952   1.996  11.271 -0.2349  0.0237  0.0192
14474TIP3    H164913   3.026   2.024  11.217  0.9377 -1.1526  0.9879
14474TIP3    H264914   2.926   2.075  11.319  0.2397  0.4997 -0.5066
14475TIP3   OH264915   5.634   1.424  12.453  0.1073 -0.1111 -0.2650
14475TIP3    H164916   5.597   1.404  12.367  0.5109  1.2872 -0.7924
14475TIP3    H264917   5.723   1.390  12.449  0.1610  0.0473 -0.4530
14476TIP3   OH264918   5.518   4.105   5.897  0.4895  0.3881  0.2448
14476TIP3    H164919   5.580   4.056   5.952  0.3436 -0.0875 -0.0066
14476TIP3    H264920   5.480   4.170   5.955  1.7642  1.1667  0.2168
14477TIP3   OH264921   6.001   0.242  15.187  0.0993  0.5011  0.2238
14477TIP3    H164922   6.065   0.289  15.134 -1.2370  0.4280 -1.4994
14477TIP3    H264923   6.004   0.152  15.156 -1.2312  0.6177 -0.2797
14478TIP3   OH264924   4.175   1.158  14.863  0.0282  0.2062  0.1959
14478TIP3    H164925   4.148   1.246  14.889  0.8974  0.7601 -0.7541
14478TIP3    H264926   4.125   1.100  14.921 -0.6973  1.3071  0.6981
14479TIP3   OH264927   2.380   3.690  16.183 -0.3052 -0.4075  0.0942
14479TIP3    H164928   2.286   3.703  16.177 -0.0770  0.6819 -1.9098
14479TIP3    H264929   2.413   3.772  16.221 -0.0445 -0.2027 -0.5638
14480TIP3   OH264930   4.330   0.408   4.892  0.4219  0.4999  0.4982
14480TIP3    H164931   4.312   0.343   4.959 -0.7325 -0.3076 -0.5757
14480TIP3    H264932   4.415   0.383   4.856  0.8200  0.6585  1.3202
14481TIP3   OH264933   0.634   0.376  14.545 -0.4065 -0.0580 -0.4984
14481TIP3    H164934   0.659   0.310  14.480 -0.4659 -1.1759  0.5940
14481TIP3    H264935   0.540   0.365  14.556  0.2041 -2.6320  2.7232
14482TIP3   OH264936   6.545   3.521   0.614 -0.6787 -0.0321 -0.8481
14482TIP3    H164937   6.534   3.503   0.521 -0.5225 -0.3654 -0.8056
14482TIP3    H264938   6.507   3.444   0.657 -2.8854  1.1719 -0.5707
14483TIP3   OH264939   0.916   6.574   3.684  0.1822  0.4994  0.2080
14483TIP3    H164940   0.972   6.602   3.756 -0.4406 -0.1718  0.9567
14483TIP3    H264941   0.965   6.598   3.605  0.4476  2.0734  0.8353
14484TIP3   OH264942   2.673   5.337   5.517 -0.2736  0.2163 -0.0024
14484TIP3    H164943   2.655   5.404   5.583  2.0405 -0.1506  1.0576
14484TIP3    H264944   2.742   5.375   5.463 -0.0742 -0.6849 -0.3822
14485TIP3   OH264945   0.666   4.869   2.499  0.2147 -0.2098 -0.7251
14485TIP3    H164946   0.749   4.838   2.464  0.6949  0.2163  0.0261
14485TIP3    H264947   0.689   4.944   2.554 -0.7793  0.6099 -1.3968
14486TIP3   OH264948   4.409   3.331   4.644  0.1283 -0.3429  0.0527
14486TIP3    H164949   4.423   3.399   4.710  0.2751 -0.7442  0.4344
14486TIP3    H264950   4.389   3.379   4.564  0.7233  0.1618  0.2079
14487TIP3   OH264951   4.680   4.557   0.467 -0.4113  0.3400 -0.0869
14487TIP3    H164952   4.734   4.486   0.502 -1.1713 -0.2275 -0.0395
14487TIP3    H264953   4.594   4.544   0.508 -0.3754  1.6840  0.4208
14488TIP3   OH264954   2.467   5.236   4.959  0.5026  0.8558  0.2422
14488TIP3    H164955   2.378   5.255   4.988  0.4183  0.0954  0.4752
14488TIP3    H264956   2.497   5.167   5.018  1.6172  1.8479  0.8556
14489TIP3   OH264957   6.421   5.320  13.101  0.5246  0.3991  0.4296
14489TIP3    H164958   6.420   5.416  13.094  3.6878  0.5918  1.8202
14489TIP3    H264959   6.368   5.301  13.178 -0.2838  0.9988  0.0294
14490TIP3   OH264960   6.451   6.037  16.557  0.3097  0.1497  0.0363
14490TIP3    H164961   6.395   5.977  16.507  0.7120 -0.5333  0.4014
14490TIP3    H264962   6.535   6.035  16.512 -0.4869  2.6690 -1.6816
14491TIP3   OH264963   6.254   2.987  11.079  0.4932 -0.5513 -0.7085
14491TIP3    H164964   6.336   2.998  11.031  2.1487  1.3152  2.3483
14491TIP3    H264965   6.195   3.053  11.041  1.8627  1.0896 -0.0767
14492TIP3   OH264966   1.606   4.875   5.213  0.1621  0.1587 -0.1661
14492TIP3    H164967   1.663   4.922   5.273  0.3520 -0.7379  0.3522
14492TIP3    H264968   1.551   4.821   5.269 -0.3401  0.0730 -0.7408
14493TIP3   OH264969   2.390   5.962  13.081 -0.1558 -0.0286  0.4799
14493TIP3    H164970   2.421   5.879  13.046 -0.6654  0.0414 -0.1564
14493TIP3    H264971   2.468   6.019  13.080 -0.3845  0.3086 -1.6092
14494TIP3   OH264972   5.152   0.961   2.363  0.2911 -0.1985  0.3911
14494TIP3    H164973   5.177   0.927   2.449 -0.4025  0.9201  1.0464
14494TIP3    H264974   5.234   0.966   2.314  0.8230  0.0078  1.2960
14495TIP3   OH264975   1.439   1.034  15.592 -0.1659  0.4305  0.0441
14495TIP3    H164976   1.533   1.029  15.574 -0.2222  0.2978 -0.2274
14495TIP3    H264977   1.415   0.947  15.623 -0.6051 -0.1906 -1.9518
14496TIP3   OH264978   1.831   4.871  15.493 -0.6110 -0.1100 -0.6351
14496TIP3    H164979   1.776   4.948  15.478 -0.2559  0.0362 -1.2191
14496TIP3    H264980   1.780   4.816  15.552 -0.1255  1.3719  1.2201
14497TIP3   OH264981   2.219   4.377   4.247  0.0517 -0.0847 -0.3875
14497TIP3    H164982   2.180   4.461   4.223  0.4426 -0.0704 -0.9905
14497TIP3    H264983   2.163   4.312   4.206  0.3105 -0.0864 -0.7361
14498TIP3   OH264984   5.462   5.313   4.585 -0.4119  0.3015 -0.0276
14498TIP3    H164985   5.552   5.325   4.614 -0.0560 -0.1514 -0.9094
14498TIP3    H264986   5.431   5.236   4.634 -0.4989  0.7862  0.6772
14499TIP3   OH264987   6.178   4.613   4.388 -0.4756 -0.3882 -0.4161
14499TIP3    H164988   6.228   4.694   4.373 -1.8343  0.3090 -1.2559
14499TIP3    H264989   6.243   4.543   4.382  0.5705  0.5732 -0.5035
14500TIP3   OH264990   6.590   6.348   0.089 -0.1563 -0.0886  0.4214
14500TIP3    H164991   6.604   6.390   0.004  0.1890 -1.5067 -0.2270
14500TIP3    H264992   6.497   6.325   0.089 -0.5324  1.3356  1.0995
14501TIP3   OH264993   2.750   3.141  11.034 -0.1876 -0.1435  0.2401
14501TIP3    H164994   2.704   3.084  11.095 -0.6698 -0.9872 -0.9139
14501TIP3    H264995   2.840   3.145  11.068 -0.2672 -1.2244  0.5741
14502TIP3   OH264996   4.058   6.661   4.895 -0.2332  0.0065 -0.3444
14502TIP3    H164997   4.132   6.616   4.856 -0.0825  0.1678 -0.2445
14502TIP3    H264998   4.031   6.726   4.830 -1.2281 -1.0526 -1.0168
14503TIP3   OH264999   3.008   3.305  11.444  0.6023  0.0312  0.7612
14503TIP3    H165000   3.085   3.277  11.394  1.8312  2.3454  1.2636
14503TIP3    H265001   3.032   3.392  11.478 -2.8498  1.5401 -0.4354
14504TIP3   OH265002   1.491   5.186   5.553 -0.5536  0.0964  0.0210
14504TIP3    H165003   1.578   5.195   5.513 -0.1098 -0.2208  0.8993
14504TIP3    H265004   1.458   5.276   5.559 -0.6133  0.1484 -1.0221
14505TIP3   OH265005   5.605   2.512  11.142  0.0778  0.4026 -0.3303
14505TIP3    H165006   5.526   2.531  11.191 -0.9051  0.0201 -1.7255
14505TIP3    H265007   5.621   2.419  11.158  1.7617  1.0531  2.0591
14506TIP3   OH265008   6.640   4.020  15.932  0.3877 -0.6382  0.6797
14506TIP3    H165009   6.671   4.107  15.957 -0.0796 -0.0084 -0.8707
14506TIP3    H265010   6.720   3.969  15.917  0.6658 -0.3104  1.0369
14507TIP3   OH265011   2.470   0.730  12.336 -0.0012  0.0553 -0.3045
14507TIP3    H165012   2.549   0.734  12.282 -0.1803  0.3450 -0.5446
14507TIP3    H265013   2.443   0.638  12.331  0.9000 -0.2697  0.6091
14508TIP3   OH265014   1.329   6.784  15.369  0.1129  0.9805 -0.1768
14508TIP3    H165015   1.346   6.878  15.380 -0.5169  0.9730  0.8778
14508TIP3    H265016   1.416   6.746  15.355  0.5869  1.4561  1.3874
14509TIP3   OH265017   6.446   0.038   0.769  0.9017 -0.3415 -0.3658
14509TIP3    H165018   6.510  -0.009   0.822  1.1528 -0.7987 -1.0615
14509TIP3    H265019   6.426  -0.022   0.697  1.0019  0.4818 -1.0935
14510TIP3   OH265020   1.094   4.200   1.252  0.1171 -0.0348 -0.2743
14510TIP3    H165021   1.170   4.179   1.198 -1.5282 -0.2050 -2.6081
14510TIP3    H265022   1.080   4.122   1.305  1.3929 -0.1026 -0.0194
14511TIP3   OH265023   1.120   3.724  15.141 -0.0807  0.7261  0.5512
14511TIP3    H165024   1.208   3.745  15.171 -0.0742 -2.1412  2.8181
14511TIP3    H265025   1.063   3.782  15.192  0.1724 -1.6199  3.6512
14512TIP3   OH265026   5.791   3.597  15.230 -0.3692  0.5026 -0.0161
14512TIP3    H165027   5.741   3.574  15.308 -1.5013 -0.7217 -1.0736
14512TIP3    H265028   5.750   3.677  15.198  0.0105  0.9321  0.5597
14513TIP3   OH265029   5.677   1.565   2.574  0.1194  0.2646  0.6580
14513TIP3    H165030   5.760   1.614   2.571 -0.5034  1.2816 -1.0085
14513TIP3    H265031   5.646   1.575   2.664  0.5442  2.0656  0.6333
14514TIP3   OH265032   6.318   2.513  12.313  0.1466  0.2466  0.3007
14514TIP3    H165033   6.298   2.605  12.329 -0.0562  0.2763 -0.1193
14514TIP3    H265034   6.386   2.492  12.377  0.9160  0.9630 -0.2719
14515TIP3   OH265035   3.997   4.463   1.491  0.3932 -0.1828 -0.5533
14515TIP3    H165036   3.946   4.394   1.449 -1.4655  2.1146 -2.2674
14515TIP3    H265037   4.087   4.448   1.462 -0.2347 -1.0332 -2.0970
14516TIP3   OH265038   5.558   2.501  10.673  0.1802 -0.2052 -0.0219
14516TIP3    H165039   5.494   2.430  10.679  0.3892 -0.4466 -0.6446
14516TIP3    H265040   5.566   2.520  10.580  0.5915  0.2132  0.0895
14517TIP3   OH265041   0.308   5.910  14.635 -0.0522 -0.6954  0.0848
14517TIP3    H165042   0.324   5.971  14.707 -0.7894  0.3023 -0.5804
14517TIP3    H265043   0.371   5.935  14.567 -1.4687  0.4525 -0.8480
14518TIP3   OH265044   2.554   1.777   4.391 -0.0452 -0.5752  0.2532
14518TIP3    H165045   2.463   1.803   4.406  0.3926  1.0517  0.1802
14518TIP3    H265046   2.548   1.701   4.333 -1.3430 -0.3285  0.0472
14519TIP3   OH265047   1.572   3.732   1.987 -0.5057 -0.0545  0.0540
14519TIP3    H165048   1.497   3.678   2.009 -0.9011  0.6841  0.5672
14519TIP3    H265049   1.604   3.763   2.072 -0.4650  0.7467 -0.2477
14520TIP3   OH265050   4.722   4.746  10.536  0.3470 -0.4480  0.4527
14520TIP3    H165051   4.735   4.786  10.449 -3.2525  2.1151  0.9715
14520TIP3    H265052   4.794   4.780  10.589  1.6848 -0.7871 -1.1064
14521TIP3   OH265053   1.727   4.331   6.164  0.3570  0.6938 -0.0602
14521TIP3    H165054   1.701   4.416   6.198  0.3483 -0.1600  2.1335
14521TIP3    H265055   1.768   4.287   6.238  1.2996 -0.8188 -1.4527
14522TIP3   OH265056   5.421   0.564  14.255  0.3739  0.2110  0.3315
14522TIP3    H165057   5.359   0.599  14.190  0.0483 -0.3911  0.3103
14522TIP3    H265058   5.474   0.639  14.281 -1.1045  0.9715  1.1806
14523TIP3   OH265059   1.011   0.320   2.668  0.2535  0.2887 -0.4029
14523TIP3    H165060   1.068   0.374   2.722  0.6429  0.7628 -1.2779
14523TIP3    H265061   0.938   0.377   2.645  0.3516  0.2513 -0.8131
14524TIP3   OH265062   2.875   5.753  17.068  0.4940 -0.4108 -0.1244
14524TIP3    H165063   2.790   5.748  17.024  0.5213  2.7541 -0.6556
14524TIP3    H265064   2.855   5.754  17.161  0.0741 -1.3350 -0.2004
14525TIP3   OH265065   0.456   4.050  10.687 -0.5989 -0.2541  0.0438
14525TIP3    H165066   0.501   4.041  10.771  0.0977 -0.7896 -0.3773
14525TIP3    H265067   0.511   4.110  10.636  0.3268 -1.8866 -0.9264
14526TIP3   OH265068   0.279   6.520   0.661  0.0695  0.0036  0.1002
14526TIP3    H165069   0.341   6.570   0.715 -0.6832 -0.7330  1.6845
14526TIP3    H265070   0.327   6.499   0.582  1.2596  0.9670  0.5520
14527TIP3   OH265071   4.594   4.852  14.919 -0.0253  1.1810  0.2167
14527TIP3    H165072   4.649   4.853  14.997 -1.5728  2.3048  1.3012
14527TIP3    H265073   4.519   4.907  14.941 -0.8162  0.9502 -1.8128
14528TIP3   OH265074   1.390   1.628   5.794  0.3638 -0.1625 -0.5707
14528TIP3    H165075   1.438   1.561   5.745 -0.2662 -0.2978 -1.0149
14528TIP3    H265076   1.363   1.585   5.874 -0.0205 -0.4376 -0.8461
14529TIP3   OH265077   1.299   5.213  11.042  0.0466 -0.4447 -0.1292
14529TIP3    H165078   1.323   5.250  10.958 -2.0219 -1.0808 -1.0296
14529TIP3    H265079   1.303   5.287  11.103  2.1676 -0.1155 -0.6175
14530TIP3   OH265080   1.898   5.635  16.917  0.0949  0.1048  0.2079
14530TIP3    H165081   1.878   5.549  16.953 -1.3601 -0.3516 -1.5897
14530TIP3    H265082   1.885   5.696  16.990 -0.8069 -0.9984  0.9827
14531TIP3   OH265083   3.292   6.589  11.286 -0.5140 -0.2054  0.0279
14531TIP3    H165084   3.383   6.562  11.269  0.1766  1.9207  0.1669
14531TIP3    H265085   3.277   6.566  11.378 -0.2642 -0.9750 -0.1236
14532TIP3   OH265086   2.340   6.563  15.713  1.6367 -0.1970 -0.4933
14532TIP3    H165087   2.390   6.612  15.648 -1.4069  1.1258 -1.8914
14532TIP3    H265088   2.318   6.629  15.780  0.6377 -0.4642 -0.5580
14533TIP3   OH265089   1.355   1.122  11.935  0.1367  0.0388  0.0282
14533TIP3    H165090   1.443   1.123  11.972 -0.5390 -0.7067  1.6969
14533TIP3    H265091   1.369   1.135  11.841  2.2353 -2.8029 -0.1400
14534TIP3   OH265092   6.212   0.155   0.008 -0.2757 -0.6527 -0.2313
14534TIP3    H165093   6.139   0.134  -0.051  0.6346  0.3260 -1.7551
14534TIP3    H265094   6.201   0.095   0.082 -3.0115 -0.0757 -0.0936
14535TIP3   OH265095   3.953   0.415  16.577  0.2355 -0.0368  0.2457
14535TIP3    H165096   3.990   0.492  16.533  0.6204 -0.9827 -1.1240
14535TIP3    H265097   3.884   0.385  16.518  0.8263 -1.3925  0.2199
14536TIP3   OH265098   6.695   3.658   3.999  0.4283 -0.0110  0.1623
14536TIP3    H165099   6.706   3.563   3.996 -0.8430 -0.2822  2.9164
14536TIP3    H265100   6.611   3.671   4.042  1.5713  2.4081  1.7601
14537TIP3   OH265101   0.601   3.014   2.037  0.4095  0.6441 -0.4691
14537TIP3    H165102   0.591   2.943   2.099 -0.3791 -0.0959 -1.4305
14537TIP3    H265103   0.691   3.008   2.007  1.4609  2.3443  2.1974
14538TIP3   OH265104   2.283   4.925   5.419  0.3965 -0.1777  0.0143
14538TIP3    H165105   2.309   4.937   5.328  2.4920 -2.4505  0.2670
14538TIP3    H265106   2.351   4.969   5.470 -0.6017  0.8189  0.5021
14539TIP3   OH265107   4.289   6.476  12.379 -0.0726  0.0117  0.0720
14539TIP3    H165108   4.199   6.507  12.392 -1.0358 -2.4876 -0.4423
14539TIP3    H265109   4.327   6.539  12.317 -0.9726  1.9217  1.3927
14540TIP3   OH265110   2.858   0.760   3.320 -0.2423 -0.1073 -0.7548
14540TIP3    H165111   2.808   0.681   3.342 -0.8956  0.9108  1.5701
14540TIP3    H265112   2.942   0.727   3.288 -0.2803 -1.7505  0.7736
14541TIP3   OH265113   2.747   0.870  16.446  0.0838 -0.4929 -0.1808
14541TIP3    H165114   2.718   0.867  16.537  0.4132 -1.2068 -0.0961
14541TIP3    H265115   2.759   0.778  16.422 -2.5509 -0.4576 -1.7881
14542TIP3   OH265116   6.346   3.944   3.014  0.7247  0.4268 -0.1229
14542TIP3    H165117   6.322   4.023   3.063 -0.8811 -0.0861 -0.0734
14542TIP3    H265118   6.408   3.975   2.948  1.0451  1.5206  0.6684
14543TIP3   OH265119   0.548   0.919  12.462  0.0889  0.5445 -0.2329
14543TIP3    H165120   0.510   0.911  12.375  0.1998  0.2640 -0.2546
14543TIP3    H265121   0.583   1.008  12.465 -0.1274  0.6348 -0.3888
14544TIP3   OH265122   4.018   4.455   1.920 -0.4289  0.6239  0.3691
14544TIP3    H165123   4.092   4.491   1.872 -1.1775  1.9461  0.1869
14544TIP3    H265124   3.951   4.439   1.854  0.0357 -1.5691  0.3697
14545TIP3   OH265125   3.229   0.476  13.197 -0.3603 -1.0007  0.0580
14545TIP3    H165126   3.308   0.496  13.248  0.2235 -0.5314 -1.0209
14545TIP3    H265127   3.254   0.400  13.144 -1.0921 -1.7270  0.7355
14546TIP3   OH265128   2.578   0.010   1.856 -0.1904 -0.2718  0.1268
14546TIP3    H165129   2.659  -0.031   1.827 -0.0212  0.0914  0.0844
14546TIP3    H265130   2.600   0.103   1.864 -1.9178  0.7079 -4.7586
14547TIP3   OH265131   6.021   5.032   1.785 -0.2148 -0.1489 -0.2809
14547TIP3    H165132   5.927   5.028   1.803 -0.2664 -0.3956 -0.6116
14547TIP3    H265133   6.062   5.023   1.871 -0.5663  3.5947  0.3566
14548TIP3   OH265134   1.024   1.801  16.751 -0.7090 -0.1530 -0.3573
14548TIP3    H165135   0.966   1.790  16.826  0.5762 -1.6495  0.4523
14548TIP3    H265136   1.068   1.884  16.766 -0.2164 -0.5995  0.7338
14549TIP3   OH265137   3.781   0.327  11.810 -0.0813  0.2108  0.1601
14549TIP3    H165138   3.827   0.314  11.893 -0.8888  0.8227  0.7121
14549TIP3    H265139   3.728   0.248  11.799  2.9681 -1.6540 -1.7347
14550TIP3   OH265140   1.694   0.413   4.189  0.0339  0.0361 -0.1952
14550TIP3    H165141   1.663   0.499   4.218  1.4997  0.7634 -0.7681
14550TIP3    H265142   1.617   0.356   4.197 -0.5300  1.0348  1.6955
14551TIP3   OH265143   1.850   2.471  15.914 -0.3482 -0.1417  0.0979
14551TIP3    H165144   1.892   2.388  15.893 -0.5936 -0.0421 -0.7930
14551TIP3    H265145   1.819   2.459  16.004  0.6128 -0.6028  0.3844
14552TIP3   OH265146   4.537   5.838   1.737  0.1582 -0.6722  0.2066
14552TIP3    H165147   4.525   5.923   1.779  1.7532  0.5039 -1.6475
14552TIP3    H265148   4.554   5.778   1.810 -0.6404  0.6555  1.5116
14553TIP3   OH265149   1.186   0.081  14.843  0.0300 -0.2022 -0.6154
14553TIP3    H165150   1.166   0.174  14.833 -1.3580 -0.3303  0.7366
14553TIP3    H265151   1.124   0.037  14.785  0.8492 -0.2831 -1.4399
14554TIP3   OH265152   6.016   6.565   3.514  0.3690  0.3483  0.0178
14554TIP3    H165153   5.979   6.607   3.592  3.7804  0.4606  1.6390
14554TIP3    H265154   6.045   6.479   3.544 -0.7594 -0.7266 -1.8206
14555TIP3   OH265155   1.202   1.342  12.091  0.0376 -0.0211  0.4318
14555TIP3    H165156   1.193   1.409  12.024 -2.5363 -1.3088 -0.5622
14555TIP3    H265157   1.244   1.268  12.047  1.6394  0.4226  1.1826
14556TIP3   OH265158   2.527   5.605  15.405 -1.1189 -0.3160 -0.0059
14556TIP3    H165159   2.504   5.623  15.496 -0.2988 -0.2787  0.2032
14556TIP3    H265160   2.577   5.682  15.378  0.0154 -1.0260  0.0188
14557TIP3   OH265161   5.413   3.250   3.081 -0.2826  0.3524 -0.3968
14557TIP3    H165162   5.395   3.157   3.094  0.8469  0.2135  0.2344
14557TIP3    H265163   5.343   3.296   3.128 -0.9647 -0.1736 -0.8945
14558TIP3   OH265164   3.408   5.301   0.325  0.8718  0.5183 -0.0564
14558TIP3    H165165   3.348   5.283   0.397  2.1768  0.2630  0.9823
14558TIP3    H265166   3.453   5.218   0.310  1.3476  0.8477 -0.4744
14559TIP3   OH265167   4.967   0.361   0.565  0.0088  0.0654  0.0331
14559TIP3    H165168   4.941   0.276   0.530  0.6730 -0.7537  1.4721
14559TIP3    H265169   5.060   0.351   0.586  0.2008  1.2912 -0.1894
14560TIP3   OH265170   3.783   6.075   5.121  0.3194 -0.2392 -0.6853
14560TIP3    H165171   3.790   6.103   5.029  1.8184 -1.9349 -1.1080
14560TIP3    H265172   3.844   6.132   5.168 -0.6581  0.8241 -0.6699
14561TIP3   OH265173   4.003   0.503   4.397 -0.2056 -0.9314 -0.0515
14561TIP3    H165174   4.011   0.493   4.302 -2.1066  0.1843 -0.3525
14561TIP3    H265175   4.087   0.539   4.425 -0.1682  0.1608 -1.5151
14562TIP3   OH265176   6.178   3.332  15.788  0.3692 -0.0759  0.4657
14562TIP3    H165177   6.229   3.351  15.867  1.2331 -0.2101 -0.0441
14562TIP3    H265178   6.188   3.237  15.776  1.5252  0.1663 -0.6486
14563TIP3   OH265179   5.092   3.285  14.473 -0.6348 -0.1240 -0.4988
14563TIP3    H165180   5.002   3.254  14.468 -0.9666  1.0890 -3.0158
14563TIP3    H265181   5.085   3.372  14.514 -0.3228 -1.0323  1.5122
14564TIP3   OH265182   1.075   5.443   5.664  0.1377  0.0703  0.1911
14564TIP3    H165183   1.063   5.396   5.746  1.2710 -0.8682 -0.1677
14564TIP3    H265184   1.042   5.531   5.681 -1.7565 -0.7756  0.9531
14565TIP3   OH265185   2.870   2.166  15.934  0.3729  0.1927 -0.3616
14565TIP3    H165186   2.904   2.079  15.955 -0.6629  0.0693  0.8817
14565TIP3    H265187   2.864   2.167  15.839 -0.2437 -1.3619 -0.3578
14566TIP3   OH265188   3.297   5.610   4.394 -0.3160  0.1637  0.1477
14566TIP3    H165189   3.383   5.649   4.407  0.0564 -0.3973 -0.5635
14566TIP3    H265190   3.247   5.676   4.345  0.2273 -0.1459 -0.8279
14567TIP3   OH265191   6.477   4.150  11.048  0.1587  0.6128  0.3060
14567TIP3    H165192   6.554   4.160  10.992 -0.6193 -1.2483 -1.1385
14567TIP3    H265193   6.407   4.194  11.000  0.1146  1.5193  1.1939
14568TIP3   OH265194   2.147   6.280   4.612 -0.2825 -0.5359  0.6315
14568TIP3    H165195   2.056   6.290   4.583 -0.4516 -0.0618  1.3217
14568TIP3    H265196   2.142   6.224   4.690  0.0377 -0.6623  0.5651
14569TIP3   OH265197   4.439   1.350  11.672 -0.2110 -0.3967  0.5517
14569TIP3    H165198   4.350   1.347  11.707  0.0334  0.2345  1.2582
14569TIP3    H265199   4.434   1.307  11.587 -0.8109 -1.9980  1.3822
14570TIP3   OH265200   2.600   6.129  14.616 -1.0016 -0.1358 -0.1519
14570TIP3    H165201   2.617   6.116  14.709 -2.1088  3.3728  0.6168
14570TIP3    H265202   2.686   6.153  14.580 -0.7722 -0.4847  0.1503
14571TIP3   OH265203   0.612   1.569   2.391  0.1332  0.1417  0.5572
14571TIP3    H165204   0.696   1.598   2.354  0.4733 -0.9488  0.4563
14571TIP3    H265205   0.562   1.649   2.401  0.4607  0.6002 -1.2178
14572TIP3   OH265206   0.942   1.259  15.885  0.2357  0.2184 -0.4888
14572TIP3    H165207   1.035   1.275  15.900  0.2851  0.4081 -0.9718
14572TIP3    H265208   0.930   1.166  15.906  0.4015  0.3480  0.1916
14573TIP3   OH265209   2.828   4.355   4.331 -0.5038 -0.2226  0.6096
14573TIP3    H165210   2.771   4.428   4.304 -1.4818 -0.5342  1.7725
14573TIP3    H265211   2.829   4.296   4.256 -2.6620 -0.7642  0.9704
14574TIP3   OH265212   5.897   1.002   2.133  0.1194 -0.0303  0.3137
14574TIP3    H165213   5.953   1.079   2.133 -1.2736  1.0158 -0.1780
14574TIP3    H265214   5.832   1.020   2.201 -0.7508 -0.3648 -0.4197
14575TIP3   OH265215   1.844   4.577   1.708  0.4473  0.2506 -0.9200
14575TIP3    H165216   1.874   4.496   1.666 -2.0273  0.3725 -3.0193
14575TIP3    H265217   1.827   4.552   1.799 -0.9993 -1.7983 -1.7182
14576TIP3   OH265218   1.891   2.555  11.647 -0.7794  0.0114 -0.2916
14576TIP3    H165219   1.980   2.586  11.665  0.1494 -1.9500 -1.3291
14576TIP3    H265220   1.842   2.575  11.727  0.1318  2.6811 -0.3385
14577TIP3   OH265221   1.395   6.730   3.576 -0.1388 -0.1582  0.1448
14577TIP3    H165222   1.338   6.653   3.570 -0.7270  0.1581  1.4281
14577TIP3    H265223   1.386   6.773   3.491  0.1769 -1.4842 -0.5862
14578TIP3   OH265224   1.187   2.869  16.374 -0.3092  0.2040 -0.1448
14578TIP3    H165225   1.159   2.838  16.288  1.9743  0.6756 -1.0900
14578TIP3    H265226   1.111   2.854  16.431 -1.6419 -0.6462 -2.0987
14579TIP3   OH265227   4.457   4.865  13.026  0.0420 -0.5901  0.4815
14579TIP3    H165228   4.486   4.837  12.939 -1.6554  0.1360 -0.3454
14579TIP3    H265229   4.449   4.960  13.019  1.0742 -0.3888  1.8188
14580TIP3   OH265230   0.613   3.063  14.626 -0.1694 -0.0698 -0.1783
14580TIP3    H165231   0.585   2.975  14.598  1.8470 -0.6234 -0.5649
14580TIP3    H265232   0.704   3.068  14.598  0.1127  1.6709  1.0235
14581TIP3   OH265233   1.906   5.779   5.664  0.0930 -0.4076 -0.2252
14581TIP3    H165234   1.862   5.788   5.749  1.3300 -0.0736  0.3853
14581TIP3    H265235   1.978   5.842   5.667  2.0433 -2.6003 -0.3065
14582TIP3   OH265236   4.582   5.303   0.237 -0.1639  0.6359 -0.4011
14582TIP3    H165237   4.626   5.388   0.240  2.3012 -0.6266  4.1537
14582TIP3    H265238   4.492   5.322   0.261 -0.0759  2.1736 -1.1930
14583TIP3   OH265239   1.119   3.557  17.250  0.0569  0.1612  0.1856
14583TIP3    H165240   1.140   3.540  17.342  0.3603  1.2222  0.3068
14583TIP3    H265241   1.062   3.483  17.225  0.1255 -0.2272  1.1639
14584TIP3   OH265242   0.587   0.828  16.250  0.3939  0.1864  0.0454
14584TIP3    H165243   0.513   0.872  16.207 -1.0275 -1.5030  0.7310
14584TIP3    H265244   0.618   0.892  16.314 -0.0653  1.1551 -0.6802
14585TIP3   OH265245   3.743   0.865   3.458  0.1404  1.0145 -0.0953
14585TIP3    H165246   3.735   0.896   3.548 -1.0243 -1.5972  0.7452
14585TIP3    H265247   3.834   0.835   3.452 -0.4278 -0.9955  0.9689
14586TIP3   OH265248   3.861   6.490   3.207  0.1586 -0.0109 -0.4444
14586TIP3    H165249   3.806   6.550   3.258  1.0382  0.2642  0.1815
14586TIP3    H265250   3.807   6.468   3.131 -0.5969  0.7156 -0.1318
14587TIP3   OH265251   0.847   2.202  10.987 -0.3193  0.4289 -0.4221
14587TIP3    H165252   0.858   2.280  11.042 -0.4090  0.0878  0.0757
14587TIP3    H265253   0.758   2.172  11.005 -0.1386 -0.0330 -0.3090
14588TIP3   OH265254   0.204   0.921   3.397 -0.1286  0.1410 -0.1059
14588TIP3    H165255   0.296   0.933   3.375 -0.1899 -0.2956 -0.6363
14588TIP3    H265256   0.197   0.829   3.423 -0.4427  0.1223 -0.2413
14589TIP3   OH265257   5.380   4.724   2.018 -0.0013 -0.1038 -0.3229
14589TIP3    H165258   5.325   4.657   1.976 -1.9955  1.0690  0.4013
14589TIP3    H265259   5.414   4.681   2.096 -2.4715  0.1671  0.9419
14590TIP3   OH265260   2.963   3.466   2.866 -0.3142 -0.0795  0.1207
14590TIP3    H165261   3.045   3.430   2.831 -0.6500 -0.1372 -0.6254
14590TIP3    H265262   2.896   3.403   2.839 -0.9314  1.1402 -1.2978
14591TIP3   OH265263   1.620   0.515   2.799  0.2226  0.2965  0.0202
14591TIP3    H165264   1.678   0.464   2.856 -1.8724 -0.0779  1.8717
14591TIP3    H265265   1.667   0.598   2.786  1.1838  0.0193  1.5115
14592TIP3   OH265266   5.239   1.875   2.531  0.3385  0.2321  0.3962
14592TIP3    H165267   5.236   1.798   2.588 -0.0156  1.3604  1.9542
14592TIP3    H265268   5.150   1.883   2.497  0.4035 -0.1053  0.1411
14593TIP3   OH265269   6.070   6.369  11.466  0.6070  0.4879  0.3079
14593TIP3    H165270   6.046   6.308  11.395 -0.2746  1.0836  0.0841
14593TIP3    H265271   6.161   6.347  11.486  0.6642 -0.1292 -0.5635
14594TIP3   OH265272   3.963   3.425  15.038  0.0723  0.2059 -0.1214
14594TIP3    H165273   3.963   3.336  15.003  2.6576 -0.3416  1.1611
14594TIP3    H265274   3.906   3.421  15.115 -1.3317  0.1233 -1.1622
14595TIP3   OH265275   3.837   5.772   6.592  0.1731 -0.0786 -0.3768
14595TIP3    H165276   3.782   5.705   6.632 -0.5517  0.2281 -0.8450
14595TIP3    H265277   3.778   5.846   6.577  0.9520  0.6488  0.0933
14596TIP3   OH265278   0.881   6.438   1.752 -0.5351  0.1895  0.1693
14596TIP3    H165279   0.788   6.443   1.731 -0.4217  2.8634  0.1427
14596TIP3    H265280   0.926   6.444   1.668 -0.2877  2.4941  0.4284
14597TIP3   OH265281   5.536   2.867  11.266  0.1694  0.1364 -0.3172
14597TIP3    H165282   5.615   2.816  11.288 -0.1990 -0.2108  0.2321
14597TIP3    H265283   5.494   2.883  11.350  0.5813  1.8762 -0.4257
14598TIP3   OH265284   2.238   6.564  15.164  0.3492 -0.4468 -0.1031
14598TIP3    H165285   2.227   6.657  15.180 -0.1328 -0.6538  0.8010
14598TIP3    H265286   2.271   6.529  15.247  1.3560 -0.9416 -0.7039
14599TIP3   OH265287   6.423   4.166   2.571  0.5647  0.1424 -0.7600
14599TIP3    H165288   6.477   4.156   2.648  0.4181  0.0641 -0.6678
14599TIP3    H265289   6.389   4.255   2.577  1.2722  0.4424 -1.1996
14600TIP3   OH265290   4.175   1.979  15.226  0.6131 -0.6894 -0.0982
14600TIP3    H165291   4.138   2.027  15.300  0.7587 -1.0514  0.2155
14600TIP3    H265292   4.185   1.889  15.258  1.4284 -0.6741 -0.2921
14601TIP3   OH265293   3.225   0.024  12.936 -0.1716  0.5206  0.3088
14601TIP3    H165294   3.306   0.036  12.985 -0.5366 -0.0225  1.0481
14601TIP3    H265295   3.253  -0.004  12.849  0.3748 -1.1528  1.0261
14602TIP3   OH265296   1.501   4.764   6.336  0.2442 -0.6129  0.5137
14602TIP3    H165297   1.500   4.786   6.429  2.0068 -0.6448  0.5644
14602TIP3    H265298   1.410   4.775   6.307  0.0799  1.5868  1.7389
14603TIP3   OH265299   4.640   2.303   5.962 -0.3504  0.1191 -0.2018
14603TIP3    H165300   4.610   2.233   5.903 -2.6273 -0.8529  2.0359
14603TIP3    H265301   4.585   2.378   5.939  0.0875  0.3235 -0.5992
14604TIP3   OH265302   1.061   0.690   2.589 -0.1958 -0.1955 -0.3272
14604TIP3    H165303   1.129   0.635   2.550  1.0067 -0.5429  2.1698
14604TIP3    H265304   0.980   0.642   2.575  0.5759 -1.6407  0.0573
14605TIP3   OH265305   0.973   5.076   2.953 -0.1335  0.5393  0.1511
14605TIP3    H165306   0.982   5.005   3.017  0.4774  0.5429  0.0646
14605TIP3    H265307   1.005   5.040   2.871  1.4694  1.3561  0.4112
14606TIP3   OH265308   6.360   5.287  15.977 -0.5679 -0.0769  0.2316
14606TIP3    H165309   6.326   5.197  15.973  2.1187 -1.0921 -0.7412
14606TIP3    H265310   6.421   5.285  16.051 -0.3038  0.8771  0.0390
14607TIP3   OH265311   0.370   1.261   3.589 -0.6183 -0.1144  0.6164
14607TIP3    H165312   0.443   1.227   3.538 -0.0693  0.7901  0.7819
14607TIP3    H265313   0.311   1.187   3.599  0.1208 -0.7668  0.1994
14608TIP3   OH265314   1.648   6.704   1.656  0.7180  0.0860  0.0856
14608TIP3    H165315   1.721   6.754   1.692 -0.9565  1.7212  1.3694
14608TIP3    H265316   1.603   6.669   1.733  0.3812 -1.2332 -0.7026
14609TIP3   OH265317   3.854   0.666   3.223  0.4256  0.5306  0.6347
14609TIP3    H165318   3.921   0.733   3.234  0.7597  0.4367 -0.7293
14609TIP3    H265319   3.902   0.583   3.225  0.3176  0.4471 -0.0121
14610TIP3   OH265320   0.678   0.876   1.684 -0.1195  0.3164  0.1799
14610TIP3    H165321   0.626   0.823   1.745  1.7370 -1.2186  0.4796
14610TIP3    H265322   0.617   0.943   1.653 -2.4605 -1.8280  0.0080
14611TIP3   OH265323   0.405   2.949  16.837  0.3776  0.4240  0.2621
14611TIP3    H165324   0.339   2.989  16.780 -0.3224 -0.6871  0.2925
14611TIP3    H265325   0.355   2.909  16.908  0.9803 -1.6789 -0.4837
14612TIP3   OH265326   4.295   4.508  14.140  0.3363  0.4017  0.4010
14612TIP3    H165327   4.372   4.505  14.084  0.9625  1.3205  1.1859
14612TIP3    H265328   4.302   4.592  14.186 -1.3442  0.6779  0.1820
14613TIP3   OH265329   4.172   5.824   4.268 -0.9464  0.1193 -0.1716
14613TIP3    H165330   4.118   5.807   4.191 -1.6001  0.4375  0.2070
14613TIP3    H265331   4.262   5.824   4.236 -1.0347 -2.1610 -0.5355
14614TIP3   OH265332   1.685   4.543  11.234 -0.6506  0.0879  0.0217
14614TIP3    H165333   1.596   4.569  11.256 -0.8308 -0.9980  0.6071
14614TIP3    H265334   1.677   4.499  11.149 -0.7440 -0.4043  0.2841
14615TIP3   OH265335   4.352   5.664  10.680 -0.0296 -0.1250 -0.2621
14615TIP3    H165336   4.316   5.752  10.687  2.4155  1.2805 -3.8292
14615TIP3    H265337   4.287   5.615  10.631 -0.5504  0.2192  0.0779
14616TIP3   OH265338   4.146   6.038  14.727 -0.0952  0.3585 -0.1718
14616TIP3    H165339   4.190   6.117  14.759 -1.0190  0.0917  1.8249
14616TIP3    H265340   4.078   6.071  14.667  0.4627  0.9896 -0.4585
14617TIP3   OH265341   5.590   5.917   1.503  0.3826  0.6327 -0.4151
14617TIP3    H165342   5.635   5.852   1.448 -0.7059  0.9388 -1.7133
14617TIP3    H265343   5.498   5.890   1.499  0.1838  1.1653  0.5872
14618TIP3   OH265344   5.257   4.377   0.666  0.3134 -0.4918  0.7921
14618TIP3    H165345   5.183   4.420   0.709  0.0077 -1.6215  1.4150
14618TIP3    H265346   5.334   4.422   0.701 -0.0706  0.8111  0.0043
14619TIP3   OH265347   2.039   2.940   0.930 -0.5285 -0.5271 -0.0976
14619TIP3    H165348   2.008   2.973   1.014 -0.1474  0.6701 -0.4231
14619TIP3    H265349   1.969   2.962   0.869 -0.8200 -1.4259 -0.1019
14620TIP3   OH265350   3.587   2.160   4.892  0.3158  0.4454  0.2529
14620TIP3    H165351   3.645   2.092   4.857  0.5507  0.1971  1.1038
14620TIP3    H265352   3.646   2.218   4.942  0.0551  1.0351 -0.1253
14621TIP3   OH265353   2.761   6.719   0.368  1.2017  0.1226  0.6353
14621TIP3    H165354   2.778   6.761   0.452 -0.7188  0.8520  0.6996
14621TIP3    H265355   2.744   6.628   0.390 -1.4682  0.7254  1.3655
14622TIP3   OH265356   5.731   2.325   3.850 -0.3091 -0.1401  0.0783
14622TIP3    H165357   5.762   2.355   3.764 -1.6127  0.3801 -0.2186
14622TIP3    H265358   5.794   2.361   3.912 -0.1520  0.6564 -0.5419
14623TIP3   OH265359   2.003   1.515  17.077 -0.0608  0.0316  0.7909
14623TIP3    H165360   1.940   1.583  17.102 -2.0916 -1.3577 -0.4058
14623TIP3    H265361   1.985   1.444  17.138 -0.0756 -0.6010  0.0472
14624TIP3   OH265362   0.382   1.238  14.985 -0.2347  0.2281  0.0756
14624TIP3    H165363   0.305   1.183  14.967 -1.9340  2.5127  0.1099
14624TIP3    H265364   0.358   1.288  15.063  1.5378  0.5691  0.4290
14625TIP3   OH265365   6.351   0.226  16.775 -0.0556 -0.0743  0.1991
14625TIP3    H165366   6.358   0.284  16.700  2.2765 -0.2078  0.2986
14625TIP3    H265367   6.303   0.149  16.743 -1.5059  1.0748 -0.4039
14626TIP3   OH265368   2.568   2.855   4.383 -0.4137 -0.4139  0.1213
14626TIP3    H165369   2.566   2.943   4.422  2.1498 -0.4444  0.3964
14626TIP3    H265370   2.538   2.868   4.293 -0.2528  0.7251  0.2260
14627TIP3   OH265371   1.407   5.033   0.387 -0.0461 -0.0647 -0.0313
14627TIP3    H165372   1.349   4.959   0.374 -0.1663  0.0006  0.1341
14627TIP3    H265373   1.494   5.001   0.361 -0.6040  0.6829 -3.0659
14628TIP3   OH265374   3.251   4.861  15.995 -0.4600 -0.7741 -0.3467
14628TIP3    H165375   3.223   4.883  16.084  0.1110 -3.0173  0.4153
14628TIP3    H265376   3.248   4.766  15.991  0.3164 -0.7515 -2.4892
14629TIP3   OH265377   3.151   1.667   3.909 -0.1276  0.3691  0.1854
14629TIP3    H165378   3.223   1.610   3.882  1.3016  0.7014  3.0937
14629TIP3    H265379   3.152   1.738   3.846  1.6480  0.0078 -0.2305
14630TIP3   OH265380   3.272   3.404   5.418 -0.4420  0.5751 -0.4169
14630TIP3    H165381   3.193   3.427   5.369 -0.6676 -0.0705 -0.3676
14630TIP3    H265382   3.306   3.487   5.450  0.4923  1.1741 -2.8454
14631TIP3   OH265383   4.052   4.441  13.493 -0.5360  0.3947  0.2609
14631TIP3    H165384   4.024   4.391  13.571 -1.8746  2.4927  1.1689
14631TIP3    H265385   4.147   4.435  13.494 -0.5670 -0.1763  1.6829
14632TIP3   OH265386   0.209   4.223  13.474 -0.3782  0.0324 -0.3598
14632TIP3    H165387   0.282   4.164  13.489 -0.2576  0.2179 -0.2195
14632TIP3    H265388   0.192   4.264  13.559  0.0088  0.7342 -0.6170
14633TIP3   OH265389   1.059   0.864  12.352  0.0326  0.4814 -0.3950
14633TIP3    H165390   1.121   0.797  12.321  0.9007  0.2453  1.7606
14633TIP3    H265391   1.115   0.933  12.388 -0.9365  0.9288  0.2551
14634TIP3   OH265392   3.360   4.587   2.456  0.0890 -0.6337 -0.1580
14634TIP3    H165393   3.302   4.637   2.512  0.9353 -0.3004  0.4183
14634TIP3    H265394   3.373   4.504   2.503 -0.0140 -0.7622 -0.3517
14635TIP3   OH265395   2.395   0.009   5.989  0.4929 -0.8980  0.2960
14635TIP3    H165396   2.437   0.086   6.027  0.4653 -1.8523  2.3185
14635TIP3    H265397   2.372  -0.045   6.064  0.6822 -2.9816 -1.1134
14636TIP3   OH265398   4.211   4.892   2.258  0.0701 -0.3421  0.0187
14636TIP3    H165399   4.135   4.940   2.226  1.8564  2.8140  0.2826
14636TIP3    H265400   4.195   4.879   2.351  0.1755  1.0157  0.2369
14637TIP3   OH265401   4.889   2.217   3.966  0.6168 -0.1822 -0.1023
14637TIP3    H165402   4.980   2.229   3.939  1.0565 -1.0576  0.9367
14637TIP3    H265403   4.884   2.260   4.051  0.5988 -1.8918  0.7760
14638TIP3   OH265404   3.879   0.001  15.149  0.1186  0.1653  0.1135
14638TIP3    H165405   3.930   0.015  15.228  2.3961 -0.4096 -1.2042
14638TIP3    H265406   3.807   0.063  15.155  2.2301  2.6085  0.9813
14639TIP3   OH265407   1.506   4.571   2.820  0.4453  0.0759 -0.3112
14639TIP3    H165408   1.596   4.573   2.787 -0.0856  0.5791 -1.7769
14639TIP3    H265409   1.511   4.522   2.902  1.9341 -0.5447 -0.7659
14640TIP3   OH265410   2.772   2.461   5.721 -0.3526 -0.1287 -0.3842
14640TIP3    H165411   2.757   2.378   5.676  0.2009  0.1870 -1.1569
14640TIP3    H265412   2.727   2.527   5.667 -0.0697  0.1912 -0.2342
14641TIP3   OH265413   1.315   4.356   1.509 -0.2936 -0.3260 -0.2864
14641TIP3    H165414   1.379   4.381   1.576 -0.8901  0.4231  0.0158
14641TIP3    H265415   1.245   4.312   1.558  0.3083 -1.7682 -0.6995
14642TIP3   OH265416   6.731   0.062   0.007 -0.2847 -0.2836 -0.2527
14642TIP3    H165417   6.728   0.101   0.095 -0.6319  1.1192 -0.8644
14642TIP3    H265418   6.640   0.060  -0.021 -0.3256 -2.0006 -0.0603
14643TIP3   OH265419   4.135   1.830  12.018 -0.0751 -0.1894  0.3157
14643TIP3    H165420   4.176   1.894  11.961  0.2223  0.3003  1.0766
14643TIP3    H265421   4.042   1.853  12.017 -0.1464 -0.5009 -0.3782
14644TIP3   OH265422   4.391   4.990  14.047  0.0808 -0.2105 -0.0783
14644TIP3    H165423   4.337   4.962  13.972 -0.4735  2.3512 -0.6841
14644TIP3    H265424   4.328   5.030  14.108  1.0291  1.1312  0.0389
14645TIP3   OH265425   5.763   6.424   1.120  0.9449 -0.3239 -0.6351
14645TIP3    H165426   5.677   6.451   1.088  0.1900 -1.3084  0.5054
14645TIP3    H265427   5.785   6.347   1.067  0.3937 -1.0271  0.1460
14646TIP3   OH265428   4.543   3.070   6.375 -0.5670 -0.1356  0.4337
14646TIP3    H165429   4.617   3.038   6.323 -1.1133 -1.4121  0.4250
14646TIP3    H265430   4.567   3.160   6.398  0.4983 -0.1757 -0.4818
14647TIP3   OH265431   6.820   1.462  14.830 -0.1350 -0.3627 -0.4162
14647TIP3    H165432   6.848   1.534  14.886  1.2977 -0.6311 -0.7689
14647TIP3    H265433   6.753   1.416  14.881 -0.1180  0.4336  0.3330
14648TIP3   OH265434   2.802   2.316   2.933 -0.4334 -0.7425  0.0606
14648TIP3    H165435   2.762   2.375   2.869  1.0981 -1.1825 -1.3203
14648TIP3    H265436   2.728   2.275   2.978 -1.5105  1.2389  0.1223
14649TIP3   OH265437   0.138   0.673  10.934  0.3415  0.2835 -0.4453
14649TIP3    H165438   0.184   0.621  11.000  0.2426  0.5968 -0.1295
14649TIP3    H265439   0.208   0.720  10.888  0.3631  0.5105 -0.1813
14650TIP3   OH265440   3.551   0.264  16.599  0.3700 -0.3548 -0.2960
14650TIP3    H165441   3.486   0.195  16.588  1.8183 -2.0288  1.2069
14650TIP3    H265442   3.632   0.227  16.563  1.0934  0.6726  0.2298
14651TIP3   OH265443   0.647   1.225  15.275 -0.0434 -0.0544  0.0187
14651TIP3    H165444   0.721   1.166  15.290 -1.1257 -1.6838 -0.9504
14651TIP3    H265445   0.585   1.204  15.345  0.3362  1.2234  0.7546
14652TIP3   OH265446   1.779   4.048  11.236  0.2661  0.6539  0.4510
14652TIP3    H165447   1.726   4.125  11.257  1.3732  1.7077 -0.5089
14652TIP3    H265448   1.828   4.073  11.158  1.0628 -0.8369  0.4485
14653TIP3   OH265449   2.835   1.234  12.848 -0.1951 -0.3697 -0.4379
14653TIP3    H165450   2.801   1.253  12.935  0.0252  0.8042 -0.6012
14653TIP3    H265451   2.759   1.239  12.790 -0.1020  0.2333 -0.5100
14654TIP3   OH265452   3.061   1.121  11.722 -0.2464  0.2250 -0.0409
14654TIP3    H165453   3.080   1.090  11.634  0.5951  0.7946 -0.0614
14654TIP3    H265454   3.123   1.072  11.778 -0.7017 -0.0567  0.2192
14655TIP3   OH265455   6.116   3.427   0.883  0.1303  0.2011 -0.1057
14655TIP3    H165456   6.211   3.416   0.870  0.0546  0.6561 -1.1442
14655TIP3    H265457   6.081   3.339   0.878  0.5659 -0.0394  0.9087
14656TIP3   OH265458   1.277   2.732   3.271  0.4758  0.5326  0.0396
14656TIP3    H165459   1.316   2.734   3.359 -0.7269 -0.8729  0.6414
14656TIP3    H265460   1.341   2.775   3.215  0.8500  2.3199  1.7789
14657TIP3   OH265461   3.905   6.449   3.663 -0.2105 -0.0400  0.1224
14657TIP3    H165462   3.826   6.495   3.690 -0.0992  0.8873 -1.0738
14657TIP3    H265463   3.975   6.513   3.676 -0.2409  0.6954 -2.9685
14658TIP3   OH265464   4.753   4.304   2.072 -0.3317 -0.1538  0.1664
14658TIP3    H165465   4.691   4.231   2.069 -1.2259  0.6360 -1.2613
14658TIP3    H265466   4.830   4.273   2.024 -0.9089  0.0083 -0.8763
14659TIP3   OH265467   4.153   5.987  11.390  0.0159 -0.0224  0.1245
14659TIP3    H165468   4.170   6.033  11.473 -1.5105 -1.4315  1.2574
14659TIP3    H265469   4.118   6.054  11.332  2.0312  1.2090  0.2546
14660TIP3   OH265470   1.705   4.943   4.553 -0.5514 -0.1876  0.0095
14660TIP3    H165471   1.675   5.003   4.485  0.0855 -0.8271 -0.8398
14660TIP3    H265472   1.682   4.856   4.521 -0.1004 -0.5039  0.5327
14661TIP3   OH265473   0.514   4.159  11.529  0.3114  0.6163 -0.2642
14661TIP3    H165474   0.557   4.216  11.592 -0.8325  1.3583 -0.1326
14661TIP3    H265475   0.585   4.116  11.482  1.1664  0.6059  1.0386
14662TIP3   OH265476   4.082   5.156  15.536  0.0744  0.0433  0.0713
14662TIP3    H165477   4.036   5.074  15.517 -1.1937  1.1400 -1.7397
14662TIP3    H265478   4.146   5.165  15.464 -1.5690  1.9055 -1.2091
14663TIP3   OH265479   4.274   3.043  16.404 -0.3733 -0.3058 -0.1011
14663TIP3    H165480   4.217   2.977  16.443 -0.5861 -0.0074  0.0971
14663TIP3    H265481   4.215   3.117  16.386 -0.1345 -0.1674 -0.3125
14664TIP3   OH265482   6.805   6.645  16.805  0.1358  0.1353  0.7539
14664TIP3    H165483   6.895   6.640  16.835  0.8021  0.6780 -1.0772
14664TIP3    H265484   6.786   6.739  16.800 -0.3064  0.0358  0.5356
14665TIP3   OH265485   4.671   1.195   2.082 -0.0707 -0.3298  0.3742
14665TIP3    H165486   4.652   1.256   2.010 -1.2959  1.1193  1.8808
14665TIP3    H265487   4.767   1.190   2.084 -0.0290 -1.1148 -1.9185
14666TIP3   OH265488   0.406   1.611   5.518  0.3646  0.8838 -0.5136
14666TIP3    H165489   0.319   1.650   5.518 -0.0876 -0.1068  1.1799
14666TIP3    H265490   0.409   1.560   5.437 -0.9630  0.2267 -0.1716
14667TIP3   OH265491   6.390   2.083   5.181  0.1392  0.4245  0.2963
14667TIP3    H165492   6.463   2.125   5.134  0.2929  0.5965  0.6901
14667TIP3    H265493   6.344   2.033   5.113  2.4365 -2.2410  0.5583
14668TIP3   OH265494   2.357   4.965  12.015 -0.1572 -0.2935  0.2343
14668TIP3    H165495   2.427   4.900  12.012  1.2094  1.1867 -0.7695
14668TIP3    H265496   2.348   4.988  12.108 -0.5477 -1.7781  0.5702
14669TIP3   OH265497   1.218   0.676  15.428  0.6382 -0.4070 -0.7671
14669TIP3    H165498   1.300   0.666  15.379  0.5886 -0.9649 -0.7453
14669TIP3    H265499   1.171   0.745  15.381  1.9768  1.3570  0.3967
14670TIP3   OH265500   5.655   4.877  15.304  0.0321 -0.3983 -0.5203
14670TIP3    H165501   5.563   4.895  15.327 -0.4918 -1.0238 -2.0944
14670TIP3    H265502   5.700   4.958  15.326 -0.8118 -0.2387  0.7065
14671TIP3   OH265503   2.618   4.147   0.929  0.1939 -0.4881  0.4803
14671TIP3    H165504   2.710   4.174   0.930 -0.3595  1.5285  0.3757
14671TIP3    H265505   2.605   4.100   1.011  1.2309 -0.4702  0.6557
14672TIP3   OH265506   5.207   3.261   4.326  0.1577 -0.2503 -1.0750
14672TIP3    H165507   5.258   3.340   4.308 -0.2162  0.0711 -0.7149
14672TIP3    H265508   5.159   3.281   4.406  2.4188 -1.9702  0.7655
14673TIP3   OH265509   6.260   3.109   2.339  0.2119 -0.5174 -0.0328
14673TIP3    H165510   6.175   3.068   2.356 -0.8022  0.7251 -1.9156
14673TIP3    H265511   6.273   3.169   2.412 -0.4913 -0.7964  0.3192
14674TIP3   OH265512   4.071   0.032   5.965  0.0125 -0.3970 -0.1979
14674TIP3    H165513   4.104   0.061   6.050  0.1839 -0.5990 -0.1946
14674TIP3    H265514   4.025   0.108   5.930  0.2391 -0.2036 -0.0777
14675TIP3   OH265515   5.895   2.348   1.759  0.0985  0.1914 -0.0506
14675TIP3    H165516   5.876   2.438   1.784  1.0456  0.1382  0.9233
14675TIP3    H265517   5.810   2.309   1.740 -0.1433  1.9092 -2.6752
14676TIP3   OH265518   1.344   4.129  16.406  0.3004 -0.5531 -0.3069
14676TIP3    H165519   1.263   4.127  16.355 -0.8631 -0.5278  1.4995
14676TIP3    H265520   1.378   4.218  16.394  1.1557 -1.1709 -2.7042
14677TIP3   OH265521   2.100   6.515  17.221  0.6168  0.3612 -0.2324
14677TIP3    H165522   2.101   6.592  17.278 -1.6423  0.9465 -0.9436
14677TIP3    H265523   2.044   6.452  17.267 -0.4512  0.4887 -1.3089
14678TIP3   OH265524   4.838   5.176  12.652  0.1464  0.6473 -0.4922
14678TIP3    H165525   4.804   5.266  12.646 -0.1157  0.5483 -0.4757
14678TIP3    H265526   4.855   5.164  12.746 -2.1131 -0.1666 -0.1577
14679TIP3   OH265527   5.542   0.480   4.515  0.5181  0.2153  0.1248
14679TIP3    H165528   5.530   0.575   4.516  1.1038  0.3162 -0.9692
14679TIP3    H265529   5.627   0.466   4.556  0.6809  0.2150 -0.2079
14680TIP3   OH265530   6.109   4.666   2.374 -0.2218 -0.1265  0.1169
14680TIP3    H165531   6.030   4.641   2.422 -0.7288  0.2336 -0.5227
14680TIP3    H265532   6.084   4.661   2.282 -0.9154  4.3406 -0.0659
14681TIP3   OH265533   6.495   0.498  12.075 -0.2810  0.2068 -0.0954
14681TIP3    H165534   6.431   0.446  12.027  0.8588  0.1003 -1.5551
14681TIP3    H265535   6.574   0.444  12.074  0.1802  0.8654  0.5950
14682TIP3   OH265536   5.759   4.145  12.327 -0.3981 -0.4143  0.3410
14682TIP3    H165537   5.730   4.215  12.385  0.3414  0.5004 -0.3746
14682TIP3    H265538   5.681   4.091  12.313 -0.9182  0.1371  1.0758
14683TIP3   OH265539   4.816   1.643  11.462 -0.5781 -0.9057  0.7370
14683TIP3    H165540   4.803   1.685  11.377  0.9210 -0.0327  0.9130
14683TIP3    H265541   4.773   1.701  11.524 -1.4691 -1.4220  0.6132
14684TIP3   OH265542   1.140   0.118  12.521 -0.3286 -0.6535  0.6172
14684TIP3    H165543   1.047   0.107  12.542 -0.1732 -1.5659  0.8749
14684TIP3    H265544   1.176   0.029  12.526  0.5982 -0.2806  0.7089
14685TIP3   OH265545   5.641   4.310   5.344 -0.5245  0.4656  0.1952
14685TIP3    H165546   5.656   4.399   5.378  1.7411  0.0327  0.3740
14685TIP3    H265547   5.721   4.289   5.296 -0.8029 -1.7155  0.6681
14686TIP3   OH265548   4.757   5.923  12.856 -0.2380 -0.0872 -0.5706
14686TIP3    H165549   4.744   5.880  12.772 -3.8001  0.2733 -0.2816
14686TIP3    H265550   4.755   6.017  12.836  0.1260 -0.0082 -0.2489
14687TIP3   OH265551   5.439   1.873   2.110 -0.2503 -0.1812 -0.2000
14687TIP3    H165552   5.425   1.935   2.181  0.0160 -0.2242 -0.1097
14687TIP3    H265553   5.430   1.926   2.030 -0.3380 -0.0918 -0.1301
14688TIP3   OH265554   5.773   1.440  11.412 -0.3554 -0.3901  0.2163
14688TIP3    H165555   5.703   1.376  11.423 -0.4017 -0.3782 -0.0176
14688TIP3    H265556   5.802   1.430  11.322 -0.2638 -0.1841  0.2223
14689TIP3   OH265557   5.731   4.013  14.892  0.0659  0.4476 -0.4893
14689TIP3    H165558   5.778   3.944  14.937  1.2631  1.5714  0.0259
14689TIP3    H265559   5.676   3.968  14.827 -1.3512 -1.1770  1.7609
14690TIP3   OH265560   4.751   2.830  12.500 -0.5415 -0.4529  0.4712
14690TIP3    H165561   4.733   2.767  12.430 -0.8937  0.1065  0.0655
14690TIP3    H265562   4.786   2.907  12.455 -1.5243  0.2093  0.8435
14691TIP3   OH265563   2.372   5.786  10.820  0.5663 -0.2829  0.4054
14691TIP3    H165564   2.455   5.748  10.790  0.3051  0.0566 -0.7992
14691TIP3    H265565   2.305   5.734  10.776  0.2082  1.8517 -1.7022
14692TIP3   OH265566   1.453   2.086  11.070  0.0755  0.2297  0.9656
14692TIP3    H165567   1.538   2.064  11.107 -1.0412 -1.2227  2.7885
14692TIP3    H265568   1.426   2.008  11.023 -0.9009  0.1184  1.6816
14693TIP3   OH265569   2.782   2.833  12.664  0.2092 -0.1449 -0.0180
14693TIP3    H165570   2.779   2.738  12.661  2.6969 -0.2906  0.8924
14693TIP3    H265571   2.818   2.859  12.579  1.0710 -0.1225  0.3478
14694TIP3   OH265572   2.727   4.226  12.252  0.4234  0.6476  0.3945
14694TIP3    H165573   2.680   4.226  12.335  1.6287 -0.1718  1.1029
14694TIP3    H265574   2.773   4.310  12.250 -1.4118  1.6658 -0.5272
14695TIP3   OH265575   1.247   1.975   4.257 -0.1000  0.5910 -0.3859
14695TIP3    H165576   1.206   2.054   4.290  0.3549  0.5411  0.3305
14695TIP3    H265577   1.270   1.925   4.336 -1.1465 -0.6499 -0.8447
14696TIP3   OH265578   1.552   0.069   1.907 -0.0393  0.7194 -0.3473
14696TIP3    H165579   1.488   0.140   1.901 -0.7594  0.1164  0.1539
14696TIP3    H265580   1.597   0.085   1.990  0.5382  1.2051 -0.7511
14697TIP3   OH265581   2.466   5.519   3.868  0.1864 -0.1538 -0.0804
14697TIP3    H165582   2.405   5.452   3.898 -0.8408  1.1620  0.8319
14697TIP3    H265583   2.507   5.552   3.949  0.9302  0.0955 -0.5467
14698TIP3   OH265584   4.879   2.483  16.058  0.4099  0.2084  0.1080
14698TIP3    H165585   4.918   2.569  16.075  0.2914  0.6226 -1.6453
14698TIP3    H265586   4.823   2.467  16.134 -0.1044  2.0017  0.1419
14699TIP3   OH265587   3.050   0.023  15.955  0.1717 -0.2203  0.4811
14699TIP3    H165588   3.017  -0.020  15.876 -0.6077  2.1812 -0.5557
14699TIP3    H265589   2.972   0.034  16.010 -0.0818  1.8004 -0.2258
14700TIP3   OH265590   3.644   4.244  12.633  0.4050  0.3050 -0.0500
14700TIP3    H165591   3.675   4.312  12.573 -1.0651  0.7666 -0.3135
14700TIP3    H265592   3.715   4.180  12.636  2.3607  2.4517  1.1786
14701TIP3   OH265593   1.299   1.373   6.414  0.2821 -0.5869 -0.3194
14701TIP3    H165594   1.362   1.433   6.374 -0.9940 -0.6618 -2.5116
14701TIP3    H265595   1.247   1.428   6.472  1.3628 -0.2436  0.3382
14702TIP3   OH265596   0.099   5.877   4.674  0.1069  0.2652 -0.1725
14702TIP3    H165597   0.079   5.798   4.725 -2.7613  1.6919  1.0583
14702TIP3    H265598   0.142   5.844   4.595 -0.8397 -2.5191  0.3945
14703TIP3   OH265599   0.059   5.801   3.080  0.2352 -0.1692  0.3196
14703TIP3    H165600   0.062   5.725   3.139 -0.4956  1.4525  2.5148
14703TIP3    H265601   0.099   5.872   3.131 -0.6404  1.3386 -1.0497
14704TIP3   OH265602   2.549   3.479  16.307  0.7772 -0.3923  0.4727
14704TIP3    H165603   2.510   3.556  16.266  0.8651 -0.3601  0.4501
14704TIP3    H265604   2.510   3.405  16.261  0.5657 -0.3645  0.6078
14705TIP3   OH265605   4.298   3.903   0.327 -0.6867 -0.8130 -0.6551
14705TIP3    H165606   4.246   3.861   0.394  1.1136 -3.4498 -0.8284
14705TIP3    H265607   4.387   3.873   0.343  0.6549  2.6050 -1.1054
14706TIP3   OH265608   0.318   3.597  15.190 -0.3326 -0.4691  1.2956
14706TIP3    H165609   0.406   3.618  15.221  0.6935  0.4786 -2.1214
14706TIP3    H265610   0.326   3.512  15.148 -1.0951 -0.4311  1.0636
14707TIP3   OH265611   1.809   3.318   1.377  0.0727 -0.6888 -0.4571
14707TIP3    H165612   1.834   3.267   1.454  0.7689  1.1004  0.5205
14707TIP3    H265613   1.742   3.378   1.409  1.3868  1.0442 -0.8928
14708TIP3   OH265614   2.919   0.030   0.165  0.2560 -0.4513  0.4778
14708TIP3    H165615   2.856  -0.019   0.111  1.3765 -0.1178 -1.1668
14708TIP3    H265616   2.919  -0.017   0.249 -3.0569  0.2488  0.9401
14709TIP3   OH265617   3.479   4.550   2.202  0.1090  0.3194  0.1539
14709TIP3    H165618   3.449   4.534   2.291  0.3861 -0.2930  0.1394
14709TIP3    H265619   3.494   4.644   2.198 -0.9461  0.4943  0.4262
14710TIP3   OH265620   2.386   3.279  10.630  0.0823 -0.2679  0.4822
14710TIP3    H165621   2.357   3.189  10.610  0.3966 -0.1484 -0.5740
14710TIP3    H265622   2.319   3.313  10.689  0.5384 -1.5687  1.7942
14711TIP3   OH265623   1.284   4.564  13.510 -0.9226  0.4180 -0.7416
14711TIP3    H165624   1.202   4.516  13.502 -2.2620  2.7225 -1.2252
14711TIP3    H265625   1.279   4.606  13.596  1.1003 -1.8176  0.5234
14712TIP3   OH265626   0.675   5.852   3.319  0.1891  0.0601  0.1178
14712TIP3    H165627   0.627   5.924   3.361 -0.7344 -1.3178  1.4683
14712TIP3    H265628   0.652   5.860   3.226 -1.3011  0.4700  0.5001
14713TIP3   OH265629   5.033   3.156   4.915  0.5594  0.2903 -0.5866
14713TIP3    H165630   4.954   3.206   4.937 -0.8869 -1.9281 -0.6013
14713TIP3    H265631   5.028   3.144   4.821  0.4439 -0.6253 -0.4644
14714TIP3   OH265632   5.366   0.463  12.313 -0.3143 -0.2758  0.1986
14714TIP3    H165633   5.446   0.414  12.294 -0.0338 -0.0762  0.8456
14714TIP3    H265634   5.305   0.438  12.243  0.6646  0.3793 -0.8953
14715TIP3   OH265635   5.663   5.872   0.046 -0.1049  0.2275 -0.3448
14715TIP3    H165636   5.654   5.838  -0.043 -0.8674 -0.9991  0.1885
14715TIP3    H265637   5.707   5.956   0.035 -0.5912  0.2930 -1.9169
14716TIP3   OH265638   1.642   4.993   3.291  0.1606  0.2712 -0.6571
14716TIP3    H165639   1.619   4.930   3.222 -2.3007  0.6264 -0.2111
14716TIP3    H265640   1.666   5.073   3.244 -0.5773  0.2189 -1.1335
14717TIP3   OH265641   4.148   5.267   3.112 -0.5380 -0.1180  0.3917
14717TIP3    H165642   4.130   5.180   3.149 -2.7001  0.2942  0.3451
14717TIP3    H265643   4.189   5.248   3.028 -2.2063 -1.1331 -0.2265
14718TIP3   OH265644   4.710   6.524  14.300 -0.3846  0.2822 -0.2817
14718TIP3    H165645   4.758   6.493  14.376 -0.3886 -1.9763 -1.1395
14718TIP3    H265646   4.622   6.488  14.310 -0.9095  1.5094 -0.4284
14719TIP3   OH265647   2.252   2.980   1.900 -0.3842 -0.0053  0.2061
14719TIP3    H165648   2.265   2.905   1.843  1.0640  0.3647  0.0160
14719TIP3    H265649   2.243   3.055   1.841  0.1741  0.2418  0.4219
14720TIP3   OH265650   5.266   5.966  13.328  0.0031 -0.5009  0.0365
14720TIP3    H165651   5.243   5.906  13.257  1.1114 -0.4353 -0.3886
14720TIP3    H265652   5.206   6.040  13.318  0.2443 -0.4312 -0.9313
14721TIP3   OH265653   4.101   2.840  10.921  0.6132  0.1138  0.4938
14721TIP3    H165654   4.140   2.828  10.834 -1.4687 -1.2430 -0.2951
14721TIP3    H265655   4.007   2.844  10.904  0.1346 -0.9847  2.7768
14722TIP3   OH265656   6.797   3.496   0.757 -0.1538 -0.1231 -0.5850
14722TIP3    H165657   6.756   3.493   0.844 -0.3120 -0.1445 -0.6604
14722TIP3    H265658   6.724   3.508   0.697 -0.0811 -0.5248 -0.7508
14723TIP3   OH265659   1.138   4.362   4.375 -0.3006 -0.5217  0.4072
14723TIP3    H165660   1.046   4.375   4.350 -0.4929  1.9924  2.2426
14723TIP3    H265661   1.172   4.301   4.310 -2.4391  0.8964 -2.1239
14724TIP3   OH265662   1.038   5.960   2.949  0.1665  0.4582 -0.0125
14724TIP3    H165663   1.014   5.980   2.858  0.0776 -2.7868 -0.7687
14724TIP3    H265664   1.127   5.925   2.943 -0.0329 -0.2388  1.0981
14725TIP3   OH265665   2.467   0.346   5.919 -0.6689 -0.2454  0.8862
14725TIP3    H165666   2.521   0.425   5.914 -0.1375 -0.5371  1.7345
14725TIP3    H265667   2.395   0.370   5.978 -0.5030 -0.3875  1.1507
14726TIP3   OH265668   5.524   2.539  11.426 -0.1791  0.4246  0.4586
14726TIP3    H165669   5.495   2.595  11.498 -2.2116  0.2521 -0.1903
14726TIP3    H265670   5.614   2.566  11.409  0.6595 -0.1318  3.6362
14727TIP3   OH265671   6.361   6.672   0.604 -0.5187 -0.1642  0.1866
14727TIP3    H165672   6.358   6.580   0.632  1.7197 -0.2901  0.1506
14727TIP3    H265673   6.419   6.671   0.527 -2.9322  0.8464 -1.7041
14728TIP3   OH265674   1.724   6.802   0.897 -0.1460  0.0340  0.3503
14728TIP3    H165675   1.634   6.833   0.886  0.3037  0.8394 -1.1665
14728TIP3    H265676   1.718   6.707   0.885 -0.7631  0.1039  0.0896
14729TIP3   OH265677   3.138   2.173   1.379 -0.1551 -0.1673 -0.4635
14729TIP3    H165678   3.228   2.148   1.402 -0.8118 -0.1411  2.3862
14729TIP3    H265679   3.148   2.245   1.317  1.8062  0.9909  1.1285
14730TIP3   OH265680   2.925   4.749   2.795  0.3831  0.2429  0.9770
14730TIP3    H165681   2.953   4.665   2.757 -0.8972  0.3008 -0.1629
14730TIP3    H265682   2.843   4.729   2.840  0.0315  0.8935  0.6374
14731TIP3   OH265683   5.511   5.472   1.526 -0.2965 -0.5936  0.1031
14731TIP3    H165684   5.453   5.409   1.568  0.8823 -0.9050  1.2927
14731TIP3    H265685   5.595   5.460   1.570  0.3513  0.6974 -0.7608
14732TIP3   OH265686   6.382   0.481  13.489 -0.2662 -0.2927 -0.0881
14732TIP3    H165687   6.328   0.515  13.560 -2.1219 -0.0967 -1.5621
14732TIP3    H265688   6.358   0.533  13.413  0.4715 -1.6124 -1.2571
14733TIP3   OH265689   4.290   1.078  11.738  0.4278 -0.2678 -0.4859
14733TIP3    H165690   4.271   1.162  11.780  1.0816 -0.5162  0.3087
14733TIP3    H265691   4.318   1.101  11.650 -0.5473  0.2799 -0.6611
14734TIP3   OH265692   2.840   3.570  11.334 -0.3854  0.4736 -0.4812
14734TIP3    H165693   2.857   3.495  11.277 -1.0321 -0.0225 -0.0142
14734TIP3    H265694   2.868   3.646  11.282 -3.4949  0.2811 -2.5362
14735TIP3   OH265695   5.428   5.197   5.306  1.0348 -0.4531 -0.0660
14735TIP3    H165696   5.498   5.253   5.339 -0.9655  2.0568  0.0789
14735TIP3    H265697   5.385   5.164   5.385  1.2908 -0.9961 -0.1530
14736TIP3   OH265698   0.463   1.526  15.297  0.7062 -0.0286 -0.7297
14736TIP3    H165699   0.539   1.582  15.281  1.5501 -1.2597 -1.1336
14736TIP3    H265700   0.487   1.476  15.375  0.8435 -1.2966 -1.5621
14737TIP3   OH265701   0.010   0.723   0.499 -0.4635 -0.7651 -0.0874
14737TIP3    H165702  -0.080   0.691   0.494 -0.4256 -0.6864 -1.5888
14737TIP3    H265703   0.048   0.699   0.414  0.0800  1.7025 -0.5794
14738TIP3   OH265704   1.651   1.158   2.404  0.4844 -0.2984 -0.6221
14738TIP3    H165705   1.699   1.122   2.478  1.9371  1.7585 -0.5329
14738TIP3    H265706   1.563   1.174   2.438  0.8674 -0.3080  0.3723
14739TIP3   OH265707   6.301   2.103   3.793 -0.3018 -0.3958 -0.9124
14739TIP3    H165708   6.307   2.146   3.708 -0.7086  0.9485 -0.2693
14739TIP3    H265709   6.219   2.136   3.831  0.9934  0.7606  0.9629
14740TIP3   OH265710   0.145   2.598  15.416  0.3085  0.5799  0.2815
14740TIP3    H165711   0.192   2.533  15.468  0.8820  0.7544 -0.0148
14740TIP3    H265712   0.056   2.596  15.450  0.3994 -0.1404  0.4798
14741TIP3   OH265713   0.223   4.014   5.631 -0.3944  0.0108  0.8043
14741TIP3    H165714   0.267   4.028   5.547 -0.9954  1.1264  0.6525
14741TIP3    H265715   0.224   3.919   5.644  2.3721  0.0371  1.0031
14742TIP3   OH265716   3.979   3.321  11.665 -0.2480  0.2438  0.0933
14742TIP3    H165717   3.947   3.393  11.610 -0.5860 -0.2910 -0.4110
14742TIP3    H265718   3.908   3.256  11.664  0.4543 -0.5226 -0.2491
14743TIP3   OH265719   0.942   1.327   6.394 -0.1527  0.0196 -0.3740
14743TIP3    H165720   0.900   1.396   6.445  0.1270  2.2575 -3.0524
14743TIP3    H265721   0.870   1.270   6.365 -0.6868  0.6000 -0.1940
14744TIP3   OH265722   5.956   6.389  11.129 -0.3842  0.4192  0.7495
14744TIP3    H165723   5.871   6.387  11.172 -0.2817 -0.0621  0.9471
14744TIP3    H265724   5.992   6.476  11.149 -0.6665  0.4795  0.9921
14745TIP3   OH265725   3.498   1.602  11.736  0.5383  0.2507  0.0205
14745TIP3    H165726   3.536   1.601  11.648  0.4496 -1.1724 -0.0086
14745TIP3    H265727   3.433   1.531  11.735 -0.2640  0.9640  0.8810
14746TIP3   OH265728   3.909   5.687  10.570  0.2810 -0.6713  0.3025
14746TIP3    H165729   3.999   5.678  10.538 -0.2239 -2.2886 -0.7248
14746TIP3    H265730   3.887   5.600  10.604 -0.8623 -0.2494  0.6597
14747TIP3   OH265731   6.239   2.006  16.299  0.1306 -0.0232  0.2945
14747TIP3    H165732   6.208   2.090  16.333  0.7305  0.8375 -1.2727
14747TIP3    H265733   6.171   1.943  16.324  0.2502  0.6938  2.5143
14748TIP3   OH265734   6.464   5.191  11.532 -0.1937  0.2552  0.0370
14748TIP3    H165735   6.380   5.199  11.486  0.0300  1.2846 -0.2153
14748TIP3    H265736   6.445   5.224  11.620 -0.4130 -0.9078  0.4269
14749TIP3   OH265737   6.730   6.172   2.952  0.0681  0.5447 -0.2262
14749TIP3    H165738   6.764   6.113   3.020 -1.4297  0.0022  0.0798
14749TIP3    H265739   6.803   6.231   2.932  0.3504  1.1013  2.2910
14750TIP3   OH265740   0.629   1.930  14.491 -0.4211  0.1137 -0.0215
14750TIP3    H165741   0.585   1.853  14.455 -0.6209 -0.2501  0.9647
14750TIP3    H265742   0.569   1.962  14.558 -1.5070  2.6404 -2.1218
14751TIP3   OH265743   0.597   3.116  10.094 -0.1713 -0.0538  0.1264
14751TIP3    H165744   0.567   3.186  10.037  0.6165 -0.5821 -0.9444
14751TIP3    H265745   0.615   3.043  10.036  1.0164 -0.4791  1.0065
14752TIP3   OH265746   1.063   2.968  11.241  0.2597  0.7579  0.0905
14752TIP3    H165747   1.102   2.910  11.306  1.5412  0.7465 -0.6708
14752TIP3    H265748   1.134   2.987  11.180 -0.6200  1.6939 -0.6655
14753TIP3   OH265749   2.798   6.577   4.148 -0.5960 -0.3911 -0.2184
14753TIP3    H165750   2.740   6.535   4.212 -0.9694 -0.6283 -0.7107
14753TIP3    H265751   2.849   6.640   4.199 -0.0289 -1.4437  0.5280
14754TIP3   OH265752   0.743   6.294   0.135  0.5002 -0.1813  0.7911
14754TIP3    H165753   0.665   6.349   0.136 -0.3416 -1.3100 -1.4058
14754TIP3    H265754   0.810   6.350   0.094 -0.0263 -0.3532 -0.3149
14755TIP3   OH265755   0.042   2.106  15.024  0.9310 -0.4286  0.2768
14755TIP3    H165756   0.110   2.139  14.965  1.6964 -3.2080 -0.4996
14755TIP3    H265757  -0.005   2.041  14.972 -1.5810  0.6094  1.1994
14756TIP3   OH265758   4.704   2.058   2.704  0.5748  0.3249 -0.4747
14756TIP3    H165759   4.756   1.982   2.729  0.4302  0.0818 -0.9193
14756TIP3    H265760   4.633   2.062   2.768 -0.3724 -0.8793 -1.4468
14757TIP3   OH265761   1.399   2.860   1.559  0.3068  0.2874  0.2623
14757TIP3    H165762   1.453   2.792   1.518 -1.2202 -0.4729 -0.5147
14757TIP3    H265763   1.314   2.818   1.573 -0.4822  1.8737  0.2842
14758TIP3   OH265764   1.234   6.235  12.902  0.9025  0.2502  0.2195
14758TIP3    H165765   1.189   6.312  12.936  4.1953  1.6391  1.5908
14758TIP3    H265766   1.231   6.172  12.974 -1.9092 -1.0861 -0.9445
14759TIP3   OH265767   1.880   1.838   1.139 -0.2718  0.5798  0.0842
14759TIP3    H165768   1.879   1.847   1.044  1.7116  1.0205  0.0766
14759TIP3    H265769   1.903   1.925   1.171 -2.2693  0.7674  1.0400
14760TIP3   OH265770   1.233   2.641  13.362 -0.3343  0.2176  0.3706
14760TIP3    H165771   1.256   2.734  13.363  0.1425  0.0919  1.1408
14760TIP3    H265772   1.261   2.608  13.447 -2.1666 -0.2339  0.8252
14761TIP3   OH265773   4.473   3.547   5.290  0.3752 -0.1033 -0.0531
14761TIP3    H165774   4.427   3.472   5.328 -0.5607  1.1147  1.2776
14761TIP3    H265775   4.537   3.572   5.357 -1.3234  2.1037  0.7821
14762TIP3   OH265776   4.619   0.846   1.115 -0.1465  0.3310  0.3459
14762TIP3    H165777   4.525   0.833   1.124  0.3711 -3.1447  1.5904
14762TIP3    H265778   4.647   0.776   1.056  1.8447  0.4795  1.0729
14763TIP3   OH265779   4.280   5.218   5.319  0.1077 -0.5180  0.2568
14763TIP3    H165780   4.216   5.268   5.369  1.3909  0.7323  0.7003
14763TIP3    H265781   4.262   5.127   5.340 -0.5814 -0.1039  1.5074
14764TIP3   OH265782   0.701   0.128  15.063 -0.2184  0.3524 -0.0341
14764TIP3    H165783   0.777   0.136  15.006  0.9228 -0.6784  1.3021
14764TIP3    H265784   0.646   0.204  15.041  0.8351  0.7004 -1.5206
14765TIP3   OH265785   2.106   4.133   1.141 -0.3070 -0.0390  0.1878
14765TIP3    H165786   2.041   4.072   1.106  0.6068 -0.5227 -0.6819
14765TIP3    H265787   2.180   4.078   1.166  0.2015  0.6294  0.1610
14766TIP3   OH265788   2.337   2.436   5.226 -0.0053  0.0800  0.4166
14766TIP3    H165789   2.323   2.439   5.321  0.7452 -3.6782  0.7084
14766TIP3    H265790   2.411   2.376   5.215 -0.8345 -0.4264 -2.6270
14767TIP3   OH265791   2.815   4.924  17.289 -0.3736  0.1960 -0.6059
14767TIP3    H165792   2.841   5.013  17.268  0.1468  0.4323  1.0167
14767TIP3    H265793   2.719   4.925  17.283 -0.3494  0.7877 -0.8863
14768TIP3   OH265794   5.096   2.223  13.121  0.1340 -0.2022 -0.1349
14768TIP3    H165795   5.074   2.295  13.181 -0.5001  1.2744 -2.1098
14768TIP3    H265796   5.016   2.209  13.071  0.3238 -2.1702  0.0736
14769TIP3   OH265797   0.857   0.909  17.079  0.2043 -0.0989 -0.1434
14769TIP3    H165798   0.848   0.970  17.153  0.9603  0.2207 -0.3057
14769TIP3    H265799   0.768   0.891  17.051 -0.1751 -1.5355  1.9074
14770TIP3   OH265800   2.720   4.763   0.326 -0.1902  0.1045 -0.1926
14770TIP3    H165801   2.667   4.784   0.250 -0.8859  1.6508  0.6836
14770TIP3    H265802   2.811   4.768   0.295 -0.4318  1.9314 -0.6514
14771TIP3   OH265803   3.985   0.319  12.000  0.4937  0.1937  0.0763
14771TIP3    H165804   4.039   0.381  12.049  1.3530  1.1204 -2.0073
14771TIP3    H265805   3.990   0.237  12.050  0.3895  1.4304  2.1530
14772TIP3   OH265806   5.048   6.663   2.150 -0.1215 -0.2811  0.1878
14772TIP3    H165807   5.004   6.613   2.081 -0.4856  1.0133 -0.5337
14772TIP3    H265808   5.033   6.755   2.127  0.1125  0.1715  1.7654
14773TIP3   OH265809   1.292   5.618   6.029 -0.0965  0.5440  0.3474
14773TIP3    H165810   1.356   5.678   6.068  1.1548 -0.6242  0.1492
14773TIP3    H265811   1.255   5.571   6.103 -2.1414  2.5576  0.6335
14774TIP3   OH265812   2.266   4.311   5.729 -0.0650  0.5923  0.6301
14774TIP3    H165813   2.328   4.281   5.663  1.5509  4.1999  0.3618
14774TIP3    H265814   2.182   4.274   5.702  1.1635 -0.7076 -1.5580
14775TIP3   OH265815   5.113   5.359   4.873 -0.2541  0.6822  0.1113
14775TIP3    H165816   5.167   5.317   4.941 -0.3355  2.5369  1.3600
14775TIP3    H265817   5.175   5.414   4.825 -0.7398  1.5603  0.4989
14776TIP3   OH265818   4.907   3.734  16.995 -0.1678  0.3089 -0.0261
14776TIP3    H165819   4.874   3.771  17.077 -0.4715  1.5598 -0.7040
14776TIP3    H265820   4.830   3.729  16.938 -0.3183 -2.2651  0.3625
14777TIP3   OH265821   5.740   1.275  15.804  0.0925  0.0110 -0.3464
14777TIP3    H165822   5.654   1.313  15.818  0.7995  0.4078  3.6131
14777TIP3    H265823   5.747   1.262  15.709 -3.5143  1.7483 -0.8923
14778TIP3   OH265824   4.644   0.391   2.331 -0.1854  0.7189  0.0537
14778TIP3    H165825   4.644   0.473   2.280  1.5552  0.0812 -1.0375
14778TIP3    H265826   4.736   0.363   2.330 -0.4895 -0.4121  1.8037
14779TIP3   OH265827   3.420   1.796  16.853 -0.3131 -0.3453  0.0657
14779TIP3    H165828   3.353   1.858  16.879  1.1508 -0.1074  3.5518
14779TIP3    H265829   3.444   1.822  16.764 -4.0157  0.2026 -0.8553
14780TIP3   OH265830   1.867   2.927  15.585 -0.1250 -0.6029 -0.5635
14780TIP3    H165831   1.777   2.944  15.610 -0.3713  1.7212 -2.7447
14780TIP3    H265832   1.860   2.884  15.500  0.7995 -0.6210 -0.6342
14781TIP3   OH265833   2.216   0.778  16.912 -0.2685  0.1421  0.2960
14781TIP3    H165834   2.154   0.812  16.848  1.2929  0.9700 -0.8216
14781TIP3    H265835   2.204   0.833  16.990 -0.2270  0.9592 -0.2681
14782TIP3   OH265836   3.983   6.651   4.396 -0.0374  0.1757  0.1459
14782TIP3    H165837   4.017   6.657   4.307 -1.5939  0.2786 -0.4526
14782TIP3    H265838   3.926   6.727   4.406  0.2054  0.2272  1.2769
14783TIP3   OH265839   3.529   5.164   2.263 -0.5419  0.5480 -0.0666
14783TIP3    H165840   3.518   5.149   2.357 -2.5725  1.6670 -0.1024
14783TIP3    H265841   3.604   5.223   2.256 -0.7822  0.9668  0.8921
14784TIP3   OH265842   0.796   1.737  17.239 -0.1264 -0.2654 -0.3646
14784TIP3    H165843   0.766   1.773  17.322 -2.1857 -1.9478 -0.3404
14784TIP3    H265844   0.769   1.802  17.173 -0.7371 -0.1449  0.0102
14785TIP3   OH265845   6.305   5.732   2.480  0.1458  0.2646 -0.6421
14785TIP3    H165846   6.316   5.648   2.523  2.0395  0.2760 -1.0405
14785TIP3    H265847   6.276   5.792   2.549 -0.1242 -0.4648 -0.1229
14786TIP3   OH265848   5.181   0.275  14.134  0.2385 -0.2835  0.4170
14786TIP3    H165849   5.170   0.180  14.128 -1.3023 -0.1639  1.1947
14786TIP3    H265850   5.123   0.302  14.205 -0.5072  1.4529 -0.8199
14787TIP3   OH265851   5.896   3.438   4.254  0.3249 -0.5628  0.2150
14787TIP3    H165852   5.842   3.395   4.320 -0.4973 -0.9104 -0.6886
14787TIP3    H265853   5.932   3.515   4.299  0.5627 -1.3385  1.3635
14788TIP3   OH265854   0.074   5.161   3.722  0.8585  0.3488 -0.2888
14788TIP3    H165855   0.080   5.139   3.815  3.2685  0.4737 -0.3763
14788TIP3    H265856   0.087   5.256   3.720 -0.1064  0.4717 -0.6742
14789TIP3   OH265857   5.654   0.795   2.319 -0.3709  0.6155  0.1893
14789TIP3    H165858   5.641   0.890   2.315 -0.2972  0.6566  0.8813
14789TIP3    H265859   5.602   0.767   2.394  0.0989  0.1924  0.3591
14790TIP3   OH265860   2.223   6.593   3.060 -0.2797  0.6039 -0.3486
14790TIP3    H165861   2.216   6.520   3.122 -1.2094 -0.0382 -1.2055
14790TIP3    H265862   2.232   6.670   3.116  0.1371 -0.0997  0.5743
14791TIP3   OH265863   2.246   6.432  16.341 -0.4591 -0.1855  0.3273
14791TIP3    H165864   2.152   6.432  16.359 -0.2369  0.0349  1.5984
14791TIP3    H265865   2.255   6.471  16.254 -1.3750  2.1955  1.2608
14792TIP3   OH265866   5.843   5.739   5.209 -0.2717 -0.0200 -0.2625
14792TIP3    H165867   5.831   5.718   5.301  0.9078 -0.6402 -0.2356
14792TIP3    H265868   5.857   5.655   5.166  0.1420  0.3417 -0.8536
14793TIP3   OH265869   3.448   1.389  16.165  0.4111  0.4085  0.4825
14793TIP3    H165870   3.373   1.334  16.186  1.4898 -1.0781  0.4695
14793TIP3    H265871   3.447   1.395  16.069  1.4023 -1.1664  0.3668
14794TIP3   OH265872   5.876   4.384  12.694 -0.2728  0.4592  0.1385
14794TIP3    H165873   5.890   4.427  12.778 -0.9868  2.1172 -0.5587
14794TIP3    H265874   5.782   4.364  12.692 -0.0613 -0.5591  0.1853
14795TIP3   OH265875   3.599   2.144   3.584  0.2101  0.1259  0.3743
14795TIP3    H165876   3.687   2.174   3.559  0.3003 -0.3006  0.1880
14795TIP3    H265877   3.550   2.225   3.597 -0.3762  0.3951 -3.0020
14796TIP3   OH265878   0.600   2.072   4.858  0.0100  0.0266 -0.1046
14796TIP3    H165879   0.641   2.005   4.913 -1.1515 -0.8351 -0.2799
14796TIP3    H265880   0.631   2.155   4.894  0.0507 -0.5600  1.2238
14797TIP3   OH265881   2.631   1.439   0.463 -0.4518  0.0697  0.4676
14797TIP3    H165882   2.536   1.432   0.468 -0.5855 -0.7139 -2.3255
14797TIP3    H265883   2.651   1.423   0.371  2.5193 -1.2294  1.2848
14798TIP3   OH265884   2.903   4.609   6.112 -0.3259  0.0160 -0.4516
14798TIP3    H165885   2.831   4.672   6.110 -2.0098 -1.9120 -1.2275
14798TIP3    H265886   2.938   4.616   6.201 -0.1173  2.4184 -0.6741
14799TIP3   OH265887   2.360   2.085  12.272  0.2262 -0.2950  0.1056
14799TIP3    H165888   2.421   2.157  12.291 -0.9351  0.4764  0.9917
14799TIP3    H265889   2.306   2.119  12.200 -1.0124  0.1606  1.2177
14800TIP3   OH265890   4.126   0.286  16.249 -0.1053 -1.2036 -0.4206
14800TIP3    H165891   4.033   0.278  16.226 -0.6929 -0.2250  1.4568
14800TIP3    H265892   4.156   0.363  16.201 -0.9175 -0.0887  0.8129
14801TIP3   OH265893   2.265   3.305   4.121 -0.0319 -0.4523  0.4610
14801TIP3    H165894   2.354   3.276   4.098  0.1342 -0.6049  1.3067
14801TIP3    H265895   2.247   3.263   4.205 -0.3812  0.6768  0.9544
14802TIP3   OH265896   4.895   0.296  11.239 -0.7710  0.7280  0.7591
14802TIP3    H165897   4.861   0.294  11.149 -0.4851  0.2608  0.6609
14802TIP3    H265898   4.820   0.325  11.292 -2.1275 -2.6312  0.8659
14803TIP3   OH265899   2.347   4.837   1.883 -0.4008  0.1788 -0.0646
14803TIP3    H165900   2.268   4.783   1.892 -0.8441  0.6694 -0.9034
14803TIP3    H265901   2.375   4.824   1.793  0.2279  0.3473  0.1072
14804TIP3   OH265902   4.395   4.067  12.484 -0.4485 -0.2839  0.0481
14804TIP3    H165903   4.464   4.037  12.424 -1.3390  0.1342 -1.1903
14804TIP3    H265904   4.421   4.156  12.507 -0.9253  0.1214 -0.9584
14805TIP3   OH265905   4.420   1.385   5.955  0.4138  0.1396 -0.3466
14805TIP3    H165906   4.412   1.417   5.865 -2.5279 -0.3528 -0.3187
14805TIP3    H265907   4.402   1.291   5.949 -0.9468  0.2988  0.8703
14806TIP3   OH265908   1.842   5.341  14.318  0.1771  0.4488 -0.2003
14806TIP3    H165909   1.907   5.345  14.388  0.5544 -0.4903 -0.4922
14806TIP3    H265910   1.883   5.290  14.249 -0.4362  0.8253 -0.8586
14807TIP3   OH265911   4.639   4.630  14.331 -0.0095 -0.1484 -0.4345
14807TIP3    H165912   4.596   4.684  14.265  0.7318 -0.4630 -1.1733
14807TIP3    H265913   4.603   4.661  14.414 -0.6615  0.5006 -0.9530
14808TIP3   OH265914   3.277   1.449  11.494  0.0973 -0.0891 -0.4159
14808TIP3    H165915   3.199   1.413  11.452  0.4112 -1.5998  0.2752
14808TIP3    H265916   3.347   1.386  11.475  1.2209  1.3538 -1.2129
14809TIP3   OH265917   1.717   5.399  16.403 -1.0414  0.3325 -0.1699
14809TIP3    H165918   1.724   5.324  16.462 -1.6224  0.4778  0.0830
14809TIP3    H265919   1.743   5.474  16.456 -0.6013  0.3333 -0.3833
14810TIP3   OH265920   0.885   5.275  13.152 -0.2461  0.4659 -0.0966
14810TIP3    H165921   0.866   5.326  13.231  0.0404  0.3159  0.0653
14810TIP3    H265922   0.978   5.287  13.137 -0.5931  1.8506 -1.3551
14811TIP3   OH265923   1.908   0.191   1.885  0.2346  0.5456  0.1085
14811TIP3    H165924   1.858   0.161   1.960 -0.0915 -0.1450 -0.3751
14811TIP3    H265925   1.982   0.129   1.878 -0.0041  0.3130 -0.4199
14812TIP3   OH265926   3.581   6.332  12.204 -0.0657 -0.2465 -0.1532
14812TIP3    H165927   3.671   6.312  12.178 -0.0402 -0.4167  0.0621
14812TIP3    H265928   3.580   6.427  12.218  0.5550 -0.4698  1.6123
14813TIP3   OH265929   4.747   5.279   5.764  0.0086  0.6726 -0.2621
14813TIP3    H165930   4.698   5.197   5.757 -1.9739  1.7998  0.0209
14813TIP3    H265931   4.703   5.338   5.703  1.0585  1.6984 -0.0433
14814TIP3   OH265932   2.754   4.336  13.818  0.0545  0.3943 -0.0164
14814TIP3    H165933   2.691   4.301  13.882  0.1222 -0.4364 -0.4099
14814TIP3    H265934   2.733   4.430  13.815 -2.7164 -0.2177 -1.8376
14815TIP3   OH265935   2.216   3.134   0.940 -0.4012  0.1124  0.7136
14815TIP3    H165936   2.202   3.201   0.873  2.1246 -1.4946 -1.5173
14815TIP3    H265937   2.152   3.066   0.921  0.1990 -0.2615 -0.0149
14816TIP3   OH265938   2.004   2.520   2.688  0.0530  0.5124 -0.3207
14816TIP3    H165939   2.079   2.463   2.675 -0.3146 -0.3045  1.0476
14816TIP3    H265940   2.037   2.608   2.669  0.7697 -0.0698 -1.8476
14817TIP3   OH265941   3.476   6.016  10.658 -0.2672  0.4033  0.1643
14817TIP3    H165942   3.551   5.981  10.705 -0.2796  1.2312  0.8200
14817TIP3    H265943   3.471   6.108  10.685 -1.7934  0.2386  0.4976
14818TIP3   OH265944   6.616   0.015   2.200  0.1016 -0.0611 -0.0397
14818TIP3    H165945   6.523  -0.004   2.205  0.0038  0.7077  1.4960
14818TIP3    H265946   6.658  -0.057   2.248  0.1781  0.3469  0.5162
14819TIP3   OH265947   0.158   4.728  16.919 -0.0146 -0.0547 -0.2632
14819TIP3    H165948   0.112   4.645  16.907 -0.3340  0.1472 -0.4605
14819TIP3    H265949   0.093   4.785  16.963  0.7736 -0.4478  1.4701
14820TIP3   OH265950   2.663   0.414  14.286  0.0840 -0.0955 -0.3954
14820TIP3    H165951   2.580   0.394  14.242  1.2801 -0.7864 -2.4455
14820TIP3    H265952   2.649   0.389  14.377 -1.5674 -1.3914 -0.9786
14821TIP3   OH265953   2.979   3.770  12.563 -0.5033 -0.0550  0.4992
14821TIP3    H165954   3.064   3.809  12.542 -0.9646  0.7253  0.0136
14821TIP3    H265955   2.990   3.731  12.649  0.0574  0.9243  0.8757
14822TIP3   OH265956   0.681   0.846  16.675 -0.0869  0.1041  0.3522
14822TIP3    H165957   0.763   0.872  16.717 -0.0482 -1.5129  1.3608
14822TIP3    H265958   0.624   0.822  16.749 -0.8611 -0.4480 -0.4165
14823TIP3   OH265959   3.537   4.607   4.767 -0.2628 -0.1700 -0.2578
14823TIP3    H165960   3.624   4.634   4.737  0.7782 -2.3444  0.6812
14823TIP3    H265961   3.483   4.609   4.688  0.9573 -0.0154 -1.1007
14824TIP3   OH265962   4.791   0.874  13.318  0.3764 -0.4367  0.1400
14824TIP3    H165963   4.820   0.932  13.247 -1.9332  0.3303 -0.1966
14824TIP3    H265964   4.772   0.933  13.391  1.5741 -1.1221  1.0283
14825TIP3   OH265965   0.833   1.894   1.765 -0.1058  0.3933 -0.2041
14825TIP3    H165966   0.923   1.895   1.798 -0.1852  0.2536  0.0188
14825TIP3    H265967   0.817   1.802   1.742  0.8311  0.8972 -3.0842
14826TIP3   OH265968   6.110   6.040   1.032  0.3733  0.2654 -0.3763
14826TIP3    H165969   6.026   6.086   1.033  1.4079  2.2405  1.4111
14826TIP3    H265970   6.116   5.998   1.117  1.3685  0.5022 -0.3189
14827TIP3   OH265971   4.724   6.319   1.866 -0.2879 -0.4530 -0.0351
14827TIP3    H165972   4.773   6.315   1.784 -1.7216 -0.9655 -0.8663
14827TIP3    H265973   4.700   6.229   1.885  0.3221 -0.3757  1.1255
14828TIP3   OH265974   5.128   0.883  12.145  0.3655 -0.2596  0.3083
14828TIP3    H165975   5.146   0.904  12.236  0.6803  2.2562 -0.2831
14828TIP3    H265976   5.214   0.871  12.105  0.2323 -1.2768  0.3320
14829TIP3   OH265977   6.150   0.268   0.392  0.2522  0.0112  0.9305
14829TIP3    H165978   6.158   0.205   0.321 -3.3506 -1.0479  1.3762
14829TIP3    H265979   6.187   0.223   0.468 -0.9296 -1.0180  0.9150
14830TIP3   OH265980   1.776   2.823   0.074 -0.0814  0.1650 -0.0310
14830TIP3    H165981   1.680   2.826   0.082 -0.3538 -2.0637 -1.8045
14830TIP3    H265982   1.803   2.914   0.083 -2.2685  0.6961  1.6494
14831TIP3   OH265983   6.163   0.486  17.020  0.6655 -0.2630  0.1127
14831TIP3    H165984   6.165   0.565  16.966  3.0545  0.5891  1.3889
14831TIP3    H265985   6.187   0.516  17.108  0.4437 -2.2302  0.8821
14832TIP3   OH265986   1.726   5.820   3.485  0.8101  0.3601 -0.0622
14832TIP3    H165987   1.662   5.887   3.462  0.9762  0.4351 -0.3010
14832TIP3    H265988   1.682   5.768   3.553 -1.0067 -1.9461 -2.8969
14833TIP3   OH265989   0.538   6.624   2.182 -0.2069  0.8287  0.2137
14833TIP3    H165990   0.491   6.562   2.238  1.0796 -1.2904 -0.9670
14833TIP3    H265991   0.473   6.651   2.117 -0.2761 -0.8972 -0.4774
14834TIP3   OH265992   3.011   5.817  12.412  0.0940 -0.0409 -0.2565
14834TIP3    H165993   3.026   5.724  12.399  1.8273 -0.0703  1.7134
14834TIP3    H265994   2.982   5.849  12.326 -0.2429 -2.3135 -1.0154
14835TIP3   OH265995   2.115   3.502   4.942 -0.0703 -0.2794  0.5765
14835TIP3    H165996   2.119   3.427   4.882  0.8612  0.7162 -0.6389
14835TIP3    H265997   2.067   3.569   4.893 -0.0839  0.2446  1.2941
14836TIP3   OH265998   4.091   1.938   4.403 -0.3429  1.0153  0.6146
14836TIP3    H165999   3.998   1.933   4.427 -0.5269 -0.8309 -0.3517
14836TIP3    H266000   4.091   1.977   4.316 -0.2635  0.3791  0.3298
14837TIP3   OH266001   5.050   5.984  16.149 -0.1735 -0.2778  0.6749
14837TIP3    H166002   5.134   5.994  16.105  0.8411 -2.8496  1.9111
14837TIP3    H266003   4.987   5.971  16.077  0.5741  1.0659 -0.2302
14838TIP3   OH266004   5.739   3.062   5.006  0.0405 -0.5016  0.0653
14838TIP3    H166005   5.789   3.115   5.068  0.0875  2.2968 -2.2559
14838TIP3    H266006   5.659   3.039   5.053  0.6936  0.3841  1.6402
14839TIP3   OH266007   6.202   0.670  17.260  0.1717  0.4657 -0.0034
14839TIP3    H166008   6.245   0.647  17.342 -1.3527 -2.5839  0.0199
14839TIP3    H266009   6.127   0.724  17.286  0.1552  0.1666  0.5674
14840TIP3   OH266010   3.409   4.954   4.427  0.3149 -0.5736  0.0365
14840TIP3    H166011   3.443   4.870   4.396  0.2417 -0.7417  0.4001
14840TIP3    H266012   3.353   4.985   4.356  0.3947 -0.8009 -0.1269
14841TIP3   OH266013   6.204   6.010   5.742  0.1082 -0.4750 -0.0958
14841TIP3    H166014   6.228   5.947   5.810 -0.7408  0.2798  0.9359
14841TIP3    H266015   6.275   6.004   5.678 -0.5354 -3.2729 -0.5995
14842TIP3   OH266016   5.049   2.993  14.020 -0.4252 -0.1086 -0.1859
14842TIP3    H166017   5.010   2.919  14.066  0.3303 -1.3665 -1.5423
14842TIP3    H266018   4.984   3.016  13.952 -1.1317  1.1655  0.8939
14843TIP3   OH266019   4.846   0.366  11.735  0.5597  0.0585 -0.4041
14843TIP3    H166020   4.760   0.328  11.721  1.6789 -2.6859 -0.1824
14843TIP3    H266021   4.896   0.341  11.657  1.7772 -0.2789  0.4767
14844TIP3   OH266022   4.078   3.605  11.547 -0.3121  0.0146  0.1865
14844TIP3    H166023   4.147   3.601  11.613 -1.1652 -0.5135  1.0496
14844TIP3    H266024   4.086   3.693  11.509  2.1577 -0.7260 -1.1752
14845TIP3   OH266025   0.392   2.958   1.601  0.1908 -0.8619  0.2513
14845TIP3    H166026   0.444   2.931   1.525  1.5289  1.4261  0.2934
14845TIP3    H266027   0.412   2.893   1.668  1.3582 -1.2130 -0.4254
14846TIP3   OH266028   1.202   5.987  11.467  0.4921 -0.0207 -0.1250
14846TIP3    H166029   1.223   6.035  11.386 -0.5298 -0.3616 -0.6038
14846TIP3    H266030   1.216   5.895  11.444 -2.4644 -0.3701 -0.8033
14847TIP3   OH266031   6.528   0.300   2.808 -0.0167 -0.1020 -0.1374
14847TIP3    H166032   6.545   0.354   2.730  0.1536  0.2575  0.1456
14847TIP3    H266033   6.585   0.338   2.875  0.4270 -0.9047 -0.0533
14848TIP3   OH266034   5.904   5.258   2.599 -0.1392 -0.0914  0.3608
14848TIP3    H166035   5.945   5.186   2.647 -0.5448 -0.5113  0.0805
14848TIP3    H266036   5.975   5.320   2.584  0.2872 -0.5761  0.3353
14849TIP3   OH266037   1.135   4.769   5.470 -0.0017 -0.2574  0.6128
14849TIP3    H166038   1.121   4.825   5.393  0.1274  0.2333  0.9410
14849TIP3    H266039   1.201   4.705   5.442  1.8064  1.3718  1.0316
14850TIP3   OH266040   0.469   4.184   1.710  0.0987  0.0847  0.0362
14850TIP3    H166041   0.549   4.185   1.658 -0.3770 -1.9110 -0.7663
14850TIP3    H266042   0.482   4.114   1.774 -0.8379  0.0235  0.1690
14851TIP3   OH266043   0.301   2.428   4.915  0.0541 -0.8193  0.1194
14851TIP3    H166044   0.347   2.375   4.849 -0.8167 -3.5553  1.6490
14851TIP3    H266045   0.371   2.460   4.972  0.5030 -1.1901 -0.2179
14852TIP3   OH266046   4.170   4.819   1.545 -0.3929  0.5005 -0.1282
14852TIP3    H166047   4.197   4.901   1.504 -0.1712  0.7733  0.5570
14852TIP3    H266048   4.190   4.752   1.479 -1.3635  1.0773 -1.0292
14853TIP3   OH266049   6.580   2.491  12.431  0.0559  0.1150 -0.5434
14853TIP3    H166050   6.533   2.409  12.449 -2.2444  1.4298 -0.4018
14853TIP3    H266051   6.671   2.472  12.456 -0.6744 -2.0069  0.6310
14854TIP3   OH266052   0.100   5.217  16.086 -0.5852  0.3648  0.0838
14854TIP3    H166053   0.168   5.163  16.047 -0.3286  0.2673  0.6551
14854TIP3    H266054   0.043   5.155  16.132 -1.6192  0.3431 -1.2027
14855TIP3   OH266055   3.125   2.660   3.798  0.2768 -0.3136  0.0991
14855TIP3    H166056   3.144   2.725   3.866  0.0954 -0.8298  0.6539
14855TIP3    H266057   3.209   2.616   3.783  0.2985 -0.2569  0.0548
14856TIP3   OH266058   5.602   3.069  11.563 -0.0936  0.1004  0.6047
14856TIP3    H166059   5.685   3.025  11.578  0.1314 -0.2627 -1.5394
14856TIP3    H266060   5.612   3.154  11.606  1.8142  0.4940 -0.5324
14857TIP3   OH266061   2.406   6.621   1.768  0.4484 -0.7248  0.7010
14857TIP3    H166062   2.366   6.634   1.682 -0.0208 -1.5830  0.7805
14857TIP3    H266063   2.480   6.681   1.770 -0.1177  0.0088  0.0760
14858TIP3   OH266064   1.083   2.769  16.798  0.1352 -0.5411  0.0568
14858TIP3    H166065   1.148   2.707  16.766  2.1989  2.1368 -1.1192
14858TIP3    H266066   1.129   2.819  16.866 -0.0681  2.5609 -1.9859
14859TIP3   OH266067   2.976   6.740  12.818  0.1738 -0.4438 -0.3637
14859TIP3    H166068   3.059   6.785  12.803 -0.1273 -0.4968 -2.3944
14859TIP3    H266069   2.983   6.659  12.767 -0.5182 -1.1945  0.7195
14860TIP3   OH266070   6.279   0.630  11.240  0.2711 -0.2756 -0.1388
14860TIP3    H166071   6.233   0.696  11.293 -0.6946 -0.8253 -0.2960
14860TIP3    H266072   6.219   0.611  11.168 -0.1707 -2.5622  0.8110
14861TIP3   OH266073   6.425   5.623  16.849  0.2431  0.0982 -0.0221
14861TIP3    H166074   6.346   5.654  16.892 -0.9889  1.8767 -3.3582
14861TIP3    H266075   6.481   5.701  16.843 -0.2933  0.2975 -2.9982
14862TIP3   OH266076   4.145   1.423  14.952 -0.2795  0.2559  0.1036
14862TIP3    H166077   4.195   1.493  14.909 -0.1039  0.2574  0.3109
14862TIP3    H266078   4.079   1.469  15.004  1.2001  0.3303  1.9452
14863TIP3   OH266079   6.002   5.131   5.869  0.5059 -0.1246  0.0314
14863TIP3    H166080   5.986   5.179   5.788 -1.3874 -1.5209 -0.4638
14863TIP3    H266081   6.002   5.039   5.844  0.0347 -0.5739  1.5664
14864TIP3   OH266082   3.740   6.816   4.166 -0.2707  0.1645  0.1549
14864TIP3    H166083   3.831   6.814   4.138 -0.4833  0.5234 -0.5566
14864TIP3    H266084   3.742   6.862   4.250  0.3924 -1.1441  0.8676
14865TIP3   OH266085   2.300   1.466   4.853 -0.0111  0.1686 -0.6122
14865TIP3    H166086   2.210   1.494   4.873  0.4080  0.6842  0.5427
14865TIP3    H266087   2.355   1.521   4.907  0.9769 -0.7153 -0.7059
14866TIP3   OH266088   1.738   2.703  16.675 -0.7406 -0.2189 -0.4204
14866TIP3    H166089   1.674   2.746  16.730  1.0932 -2.6035  3.7911
14866TIP3    H266090   1.804   2.770  16.657 -1.3498  0.5861  0.3499
14867TIP3   OH266091   4.757   1.404   5.833  0.2065  0.2490  0.2891
14867TIP3    H166092   4.720   1.492   5.823  0.8869  0.4351 -0.7045
14867TIP3    H266093   4.719   1.353   5.762  1.0302  0.1649 -0.0984
14868TIP3   OH266094   6.397   6.009  15.499  0.0118  0.3770 -0.2635
14868TIP3    H166095   6.336   5.991  15.571  1.7813  1.6636  1.5929
14868TIP3    H266096   6.354   5.972  15.422 -2.7519  0.5461  1.1358
14869TIP3   OH266097   1.234   4.836  12.627 -0.1723 -0.2146  0.5927
14869TIP3    H166098   1.160   4.850  12.686 -1.4071  1.2075 -1.2176
14869TIP3    H266099   1.195   4.800  12.548  1.1728 -0.1237 -0.1187
14870TIP3   OH266100   2.764   2.656  12.281 -0.1875 -0.1431  0.2787
14870TIP3    H166101   2.838   2.686  12.333  0.0296 -0.7970  0.3549
14870TIP3    H266102   2.794   2.661  12.190 -0.3186  0.3183  0.2595
14871TIP3   OH266103   2.467   6.027  13.439 -0.1438 -0.3636  0.4516
14871TIP3    H166104   2.413   5.956  13.473  0.4540 -1.1961 -0.3266
14871TIP3    H266105   2.418   6.060  13.364 -0.0744 -0.4292  0.3770
14872TIP3   OH266106   2.971   3.041  13.634  0.0008 -0.4667  0.3160
14872TIP3    H166107   3.033   3.021  13.704 -0.1152  0.2677  0.6366
14872TIP3    H266108   2.988   3.133  13.613 -1.9272  0.1608  1.3786
14873TIP3   OH266109   4.560   1.859   3.587  0.3777  0.3556 -0.1366
14873TIP3    H166110   4.494   1.810   3.636  1.8656 -2.6833 -1.0612
14873TIP3    H266111   4.512   1.932   3.548 -2.1478 -0.9969  0.3523
14874TIP3   OH266112   2.378   4.645   3.983  0.0201 -0.0186  0.6672
14874TIP3    H166113   2.400   4.621   4.073  1.0100  0.3699  0.5296
14874TIP3    H266114   2.455   4.621   3.932  0.2100  1.4840  0.2136
14875TIP3   OH266115   0.253   5.911   3.971 -0.2017  0.2280 -0.0714
14875TIP3    H166116   0.197   5.972   3.924 -0.4206  0.3378  0.3269
14875TIP3    H266117   0.227   5.920   4.063  0.8732  0.7048  0.1977
14876TIP3   OH266118   1.998   2.076   2.632  0.3316  0.0735  0.6087
14876TIP3    H166119   2.021   2.164   2.601  0.2352 -0.2771 -0.4765
14876TIP3    H266120   1.906   2.083   2.658 -0.0454 -0.0079 -0.6612
14877TIP3   OH266121   6.690   2.598   2.803 -0.1327  0.1017  0.4294
14877TIP3    H166122   6.743   2.521   2.821 -0.0343  0.3956  1.4287
14877TIP3    H266123   6.689   2.646   2.886 -2.5528 -0.2584  0.6536
14878TIP3   OH266124   3.690   5.093   5.429  0.3799  0.0916 -0.0041
14878TIP3    H166125   3.713   5.174   5.385 -1.6753 -0.7867 -2.8692
14878TIP3    H266126   3.602   5.109   5.464  1.6324  0.4703  3.0965
14879TIP3   OH266127   3.637   3.009   0.879 -0.2614 -0.6173 -0.7048
14879TIP3    H166128   3.713   3.000   0.821  0.6127  2.0267 -0.0267
14879TIP3    H266129   3.617   3.102   0.879 -3.5052 -1.2348 -0.7962
14880TIP3   OH266130   2.308   2.122   3.082 -0.3629  0.0536 -0.0698
14880TIP3    H166131   2.324   2.031   3.106  4.5862  0.3059 -1.7701
14880TIP3    H266132   2.260   2.159   3.157 -3.4548 -4.0885  0.1865
14881TIP3   OH266133   0.149   3.514  12.071 -0.5373 -0.4077  0.4977
14881TIP3    H166134   0.115   3.588  12.021  0.2999 -1.0757 -1.0851
14881TIP3    H266135   0.167   3.447  12.005  1.0150 -1.1447  1.6417
14882TIP3   OH266136   3.032   1.069  13.440 -0.6901 -0.4484  0.0281
14882TIP3    H166137   2.975   1.016  13.385  0.8568 -1.0406 -1.0597
14882TIP3    H266138   3.041   1.018  13.521  0.9804 -2.0572 -1.0988
14883TIP3   OH266139   0.740   1.103   1.865  0.0606  0.4842  0.2075
14883TIP3    H166140   0.749   1.019   1.819 -0.9799 -0.7848  2.2664
14883TIP3    H266141   0.777   1.087   1.952 -0.7314  1.9708  0.8391
14884TIP3   OH266142   4.694   2.703  11.873  0.0420  0.0064  0.5217
14884TIP3    H166143   4.771   2.727  11.821  0.2784 -3.3507 -0.7965
14884TIP3    H266144   4.730   2.668  11.955 -0.1200 -0.5455  0.3578
14885TIP3   OH266145   2.792   5.902   6.299  0.1432  0.5798  0.2166
14885TIP3    H166146   2.749   5.875   6.380  0.2231  0.2832  0.1602
14885TIP3    H266147   2.812   5.994   6.313 -2.2841  1.2619 -0.5203
14886TIP3   OH266148   4.855   0.842   3.278 -0.0107 -0.4399  0.0561
14886TIP3    H166149   4.869   0.836   3.372 -1.7394 -0.7953  0.3124
14886TIP3    H266150   4.931   0.890   3.245  0.1671  0.4777  1.7470
14887TIP3   OH266151   6.796   6.007  17.023 -0.2118 -0.0333  0.0465
14887TIP3    H166152   6.719   6.030  17.075  1.2178 -1.0240  2.6752
14887TIP3    H266153   6.870   6.037  17.075  1.4108 -3.8661  0.1166
14888TIP3   OH266154   4.906   5.305  16.334  0.1995  0.2029  0.0373
14888TIP3    H166155   4.815   5.313  16.364  0.6552  1.4062  1.1148
14888TIP3    H266156   4.927   5.212  16.346 -0.8917 -0.0904 -0.2622
14889TIP3   OH266157   4.880   1.513   1.955 -0.8680 -0.6179  0.8791
14889TIP3    H166158   4.802   1.537   2.006 -1.5198 -1.3554  0.2466
14889TIP3    H266159   4.847   1.451   1.890  0.3108 -1.1624  0.7992
14890TIP3   OH266160   5.124   2.247   4.662  0.2510 -0.1509  0.1853
14890TIP3    H166161   5.204   2.209   4.625 -0.1009 -0.3154 -0.4298
14890TIP3    H266162   5.143   2.340   4.669  0.5237 -0.1991  0.1098
14891TIP3   OH266163   2.427   0.937  16.756 -0.4550  0.5173 -0.2920
14891TIP3    H166164   2.373   0.874  16.805  0.4689  0.0243  0.1074
14891TIP3    H266165   2.512   0.894  16.748  0.6558  2.3682  1.3462
14892TIP3   OH266166   1.939   1.976   5.890  0.7329 -0.4091 -0.4428
14892TIP3    H166167   1.859   2.009   5.930 -0.1217 -0.0872 -2.3581
14892TIP3    H266168   1.948   2.027   5.810  2.2886 -1.1700 -0.7564
14893TIP3   OH266169   2.779   0.592  15.989  0.2801  0.9099  0.6669
14893TIP3    H166170   2.721   0.663  15.962  0.3826  0.4609 -0.7678
14893TIP3    H266171   2.754   0.517  15.934  2.5809  0.8730 -0.3884
14894TIP3   OH266172   5.231   0.317  13.204 -0.2654  0.2562 -0.7695
14894TIP3    H166173   5.271   0.327  13.291 -0.6662 -0.4479 -0.4999
14894TIP3    H266174   5.266   0.389  13.153 -3.7608  3.7215  1.3999
14895TIP3   OH266175   5.459   0.367  12.910  0.0253 -0.3770 -0.3205
14895TIP3    H166176   5.429   0.426  12.979  2.2011 -2.2945  2.3895
14895TIP3    H266177   5.548   0.397  12.890  0.3002 -1.3444 -0.5557
14896TIP3   OH266178   3.848   0.100  16.833 -0.2323  0.8202 -0.3375
14896TIP3    H166179   3.789   0.076  16.761  2.0557  0.3217 -2.0968
14896TIP3    H266180   3.929   0.126  16.789  0.6798  2.0677  2.0178
14897TIP3   OH266181   6.759   6.267  12.827  0.6384  0.3040 -0.0971
14897TIP3    H166182   6.737   6.224  12.745  0.6746  0.9538 -0.4536
14897TIP3    H266183   6.679   6.312  12.853  0.9250  0.9361 -0.3043
14898TIP3   OH266184   0.677   3.284   5.092  0.7481 -0.1866 -0.8468
14898TIP3    H166185   0.626   3.294   5.172  1.0586  2.0036 -0.8821
14898TIP3    H266186   0.755   3.235   5.119  0.8898  0.6063  0.2179
14899TIP3   OH266187   5.346   3.492   0.616  0.1652  0.4899 -0.6850
14899TIP3    H166188   5.364   3.398   0.608 -0.5193  0.4252 -1.5583
14899TIP3    H266189   5.261   3.496   0.660  0.2115  0.7028 -0.6164
14900TIP3   OH266190   4.924   2.681  12.739  0.0634  0.2686  0.0974
14900TIP3    H166191   4.929   2.622  12.664  2.3227  2.1494 -1.3084
14900TIP3    H266192   4.974   2.635  12.808 -0.0279 -0.4252 -0.2883
14901TIP3   OH266193   6.636   0.152  11.443 -0.0714  0.1934 -0.1242
14901TIP3    H166194   6.690   0.141  11.365 -0.1156  0.3343 -0.1750
14901TIP3    H266195   6.691   0.122  11.515  0.3810  1.1091 -0.0776
14902TIP3   OH266196   6.481   5.532  14.601 -0.1774  0.6137  0.1954
14902TIP3    H166197   6.484   5.440  14.627  1.0208  0.7891  0.7045
14902TIP3    H266198   6.522   5.579  14.674 -1.1895  1.6016  0.1398
14903TIP3   OH266199   5.149   4.780  12.405  0.2511  0.4657  0.1627
14903TIP3    H166200   5.101   4.863  12.402 -0.1352  0.2032 -1.3397
14903TIP3    H266201   5.098   4.720  12.350  0.8745 -0.5862  0.7049
14904TIP3   OH266202   1.678   5.635  13.841  0.4321 -0.2539 -1.0592
14904TIP3    H166203   1.660   5.555  13.791  1.1470  0.8650 -3.1352
14904TIP3    H266204   1.763   5.665  13.809  2.2304 -0.9569  2.7433
14905TIP3   OH266205   5.121   2.392  12.452  0.2849  0.1438  0.5610
14905TIP3    H166206   5.167   2.437  12.381 -0.0031 -1.5452 -0.7276
14905TIP3    H266207   5.049   2.451  12.475  1.3802  1.4804  0.6344
14906TIP3   OH266208   1.856   3.635   1.662  0.4076 -0.1152 -0.4454
14906TIP3    H166209   1.790   3.699   1.687  0.2933 -0.9236  1.4531
14906TIP3    H266210   1.819   3.551   1.690  1.4910 -0.7608 -0.9320
14907TIP3   OH266211   6.612   0.256  16.346  0.6631  0.2567 -0.0927
14907TIP3    H166212   6.656   0.176  16.317  1.3270  1.0438 -1.3117
14907TIP3    H266213   6.682   0.315  16.372  0.2080  0.6486  0.2689
14908TIP3   OH266214   1.362   3.205   4.539 -0.0210 -0.4751  0.7211
14908TIP3    H166215   1.299   3.266   4.576  0.0177 -0.4930  0.8171
14908TIP3    H266216   1.365   3.132   4.601  0.6062 -0.1603  1.0683
14909TIP3   OH266217   3.350   3.251  14.157 -0.4593 -0.3183  0.1678
14909TIP3    H166218   3.311   3.334  14.130  0.7721  0.1525 -0.2158
14909TIP3    H266219   3.306   3.185  14.104  0.3130  0.3586 -1.3330
14910TIP3   OH266220   6.148   4.583  14.920  0.7356 -0.5734  0.0810
14910TIP3    H166221   6.065   4.620  14.947  2.1338 -0.2691  4.3426
14910TIP3    H266222   6.202   4.659  14.897  0.7226 -0.5849  0.0124
14911TIP3   OH266223   6.026   1.766   4.499 -0.3700 -0.1783  0.0010
14911TIP3    H166224   5.978   1.796   4.422 -1.4351 -0.3673  0.5757
14911TIP3    H266225   5.962   1.713   4.547 -0.0852  0.9261  1.6143
14912TIP3   OH266226   4.593   5.980  14.804 -0.1875  0.1346  1.1549
14912TIP3    H166227   4.664   5.916  14.798 -0.0539  0.4460 -1.3085
14912TIP3    H266228   4.627   6.057  14.757 -1.9744  0.4198  0.2994
14913TIP3   OH266229   4.622   4.010   6.028  0.6429 -0.3560 -0.0881
14913TIP3    H166230   4.655   4.044   6.111  0.2900 -0.5545  0.1371
14913TIP3    H266231   4.691   4.030   5.965 -0.4557  2.7353 -0.4074
14914TIP3   OH266232   2.944   5.748  13.189 -0.2900 -0.0200 -0.0069
14914TIP3    H166233   2.926   5.705  13.105  1.0076  0.8644 -0.7610
14914TIP3    H266234   3.036   5.773  13.184 -0.4747  0.9802  1.2537
14915TIP3   OH266235   6.225   4.107  15.955  0.1956  0.1046 -0.1957
14915TIP3    H166236   6.275   4.035  15.916  1.2102  1.0223 -0.6251
14915TIP3    H266237   6.254   4.108  16.046 -2.1617 -2.0265  0.6498
14916TIP3   OH266238   5.453   5.546  10.885 -0.4733 -0.3931  0.3959
14916TIP3    H166239   5.362   5.523  10.904 -1.1062  1.5903 -0.0837
14916TIP3    H266240   5.467   5.628  10.933  1.0817 -0.7443  0.5473
14917TIP3   OH266241   3.095   4.176  15.015  0.1678  0.2765  0.4523
14917TIP3    H166242   3.044   4.151  15.092 -0.3689  2.2712  0.7904
14917TIP3    H266243   3.182   4.194  15.049 -0.2186  1.7368  0.7351
14918TIP3   OH266244   1.088   0.502   2.872 -0.5000  0.4461  0.5133
14918TIP3    H166245   1.068   0.593   2.896 -1.3441  0.3174  0.3140
14918TIP3    H266246   1.184   0.499   2.867 -0.4357  1.1384  1.2431
14919TIP3   OH266247   3.281   0.247  16.311  0.7837  0.2439  0.2214
14919TIP3    H166248   3.197   0.200  16.309  0.3097  1.1029 -0.7964
14919TIP3    H266249   3.311   0.240  16.401 -0.7980  0.6650  0.7807
14920TIP3   OH266250   5.514   6.407   5.210  0.3582 -0.2044 -0.0451
14920TIP3    H166251   5.573   6.339   5.243  0.3044 -0.5363 -0.6338
14920TIP3    H266252   5.447   6.416   5.278 -0.2015 -1.4509 -0.4290
14921TIP3   OH266253   6.271   6.310   1.634  0.1750  0.1120 -0.5386
14921TIP3    H166254   6.191   6.264   1.611 -0.5927  0.1055  1.9458
14921TIP3    H266255   6.338   6.275   1.575 -0.9473 -2.2803 -0.4216
14922TIP3   OH266256   0.720   2.960   4.338 -0.1676 -0.5959 -0.2040
14922TIP3    H166257   0.668   3.030   4.297  0.9215  0.6351  0.4626
14922TIP3    H266258   0.761   2.914   4.265  1.0006  0.9795 -0.5676
14923TIP3   OH266259   5.896   0.046  13.347  0.5487 -0.1921  0.1033
14923TIP3    H166260   5.834   0.036  13.276  0.8765  1.8289 -0.4936
14923TIP3    H266261   5.844   0.034  13.427 -0.5303  1.0109 -0.4041
14924TIP3   OH266262   0.696   4.881   5.282 -0.3169 -0.7060 -0.4295
14924TIP3    H166263   0.730   4.946   5.343  1.8393 -1.2749 -0.9778
14924TIP3    H266264   0.603   4.873   5.304  0.0692  0.2961  1.6625
14925TIP3   OH266265   0.675   3.773  14.042  0.1669 -0.4337 -0.0101
14925TIP3    H166266   0.582   3.787  14.026  0.2872  1.1571  0.5405
14925TIP3    H266267   0.681   3.752  14.135  0.6009  2.5145  0.7024
14926TIP3   OH266268   3.050   2.690  12.371  0.6039 -0.7035  0.0045
14926TIP3    H166269   3.016   2.603  12.395  1.1310 -0.7556  0.5614
14926TIP3    H266270   3.118   2.672  12.306  1.2636 -0.7609  0.7095
14927TIP3   OH266271   1.602   5.626  15.452  1.2681 -0.4261 -0.0535
14927TIP3    H166272   1.691   5.643  15.481  0.3145  2.6575  1.3029
14927TIP3    H266273   1.549   5.637  15.531 -0.4123 -1.2670 -1.0358
14928TIP3   OH266274   2.670   0.441   1.556 -0.6177 -0.0591  0.0730
14928TIP3    H166275   2.647   0.521   1.508 -2.0340  0.5269  1.6641
14928TIP3    H266276   2.595   0.383   1.543 -0.3423 -0.4721  0.3198
14929TIP3   OH266277   0.230   0.896   0.226  0.6714  0.1014  0.3256
14929TIP3    H166278   0.195   0.930   0.143  0.1253  0.3018  0.6335
14929TIP3    H266279   0.213   0.802   0.223  2.0995 -0.1356 -0.4882
14930TIP3   OH266280   2.078   6.313  11.229  0.2115 -0.1511  0.3486
14930TIP3    H166281   2.154   6.318  11.171 -0.1862 -0.7958 -0.2342
14930TIP3    H266282   2.021   6.383  11.198 -0.2880 -0.9005 -0.4736
14931TIP3   OH266283   5.625   0.630  12.499 -0.0055 -0.3922  0.1853
14931TIP3    H166284   5.648   0.538  12.504 -0.3056 -0.5366 -0.9095
14931TIP3    H266285   5.531   0.632  12.517  0.0457 -0.2695  0.4449
14932TIP3   OH266286   4.502   4.514   4.391  0.2533 -0.1570  0.0274
14932TIP3    H166287   4.519   4.565   4.470 -1.2734 -0.8515  0.8331
14932TIP3    H266288   4.546   4.430   4.407  0.9058  0.1127 -0.3501
14933TIP3   OH266289   0.328   4.047  11.380 -0.9339 -0.3406 -0.3225
14933TIP3    H166290   0.247   4.048  11.431  0.1174 -1.0777  1.4188
14933TIP3    H266291   0.391   4.096  11.434 -0.4052  0.8447 -1.9738
14934TIP3   OH266292   4.270   6.274  13.337  0.0538  0.3146  0.0371
14934TIP3    H166293   4.299   6.189  13.304 -0.4711  0.1558 -0.0176
14934TIP3    H266294   4.192   6.295  13.286  1.3773  1.8209 -1.4189
14935TIP3   OH266295   1.157   1.802   5.185 -0.3840  0.0478  0.4762
14935TIP3    H166296   1.099   1.746   5.237  0.0630 -0.7683  0.1138
14935TIP3    H266297   1.116   1.802   5.098  1.1876 -2.1271 -0.3025
14936TIP3   OH266298   6.564   2.421   5.483 -0.1046  0.3361  0.4592
14936TIP3    H166299   6.472   2.406   5.463 -0.2421  1.0539  0.5284
14936TIP3    H266300   6.606   2.336   5.471 -1.2287 -0.6111  2.9980
14937TIP3   OH266301   6.302   6.683   5.202 -0.7014 -0.9026 -0.7199
14937TIP3    H166302   6.256   6.755   5.246 -0.6541 -1.1713 -0.2303
14937TIP3    H266303   6.387   6.720   5.179 -1.0988 -0.4510 -1.4926
14938TIP3   OH266304   5.658   4.770  13.879  0.0702 -0.2563 -0.5036
14938TIP3    H166305   5.693   4.824  13.808 -0.9760 -0.4520 -1.1846
14938TIP3    H266306   5.682   4.817  13.959 -0.4750  1.0220 -1.0674
14939TIP3   OH266307   6.276   6.655   0.912  0.1260  0.2210  0.1227
14939TIP3    H166308   6.351   6.712   0.896  1.0488 -1.0126 -0.0254
14939TIP3    H266309   6.303   6.570   0.877 -1.8874  0.1060 -1.2393
14940TIP3   OH266310   0.054   2.129  12.467  0.2521  0.4340  1.0224
14940TIP3    H166311   0.064   2.185  12.390 -0.3985  0.0780  0.6733
14940TIP3    H266312   0.001   2.055  12.436  0.5309 -0.0332  1.6504
14941TIP3   OH266313   6.185   1.876  17.079  0.2565  0.0925  0.3428
14941TIP3    H166314   6.100   1.902  17.113 -0.4244 -0.8348 -0.6020
14941TIP3    H266315   6.240   1.866  17.156 -0.5303  0.5725  0.9646
14942TIP3   OH266316   5.220   4.959   4.879  0.3919 -0.5590 -0.5173
14942TIP3    H166317   5.254   5.010   4.806 -0.6510  0.0294 -0.6065
14942TIP3    H266318   5.276   4.982   4.953  2.1896 -2.0523 -1.3828
14943TIP3   OH266319   2.861   6.211  10.725  0.2565  0.7078 -0.4323
14943TIP3    H166320   2.809   6.183  10.800  1.3421 -2.1923 -0.7035
14943TIP3    H266321   2.799   6.209  10.651  0.4622 -1.7059 -0.5667
14944TIP3   OH266322   5.413   3.666   1.334  0.5458  0.0886 -0.5004
14944TIP3    H166323   5.473   3.735   1.306  0.5458  0.6645  0.8532
14944TIP3    H266324   5.373   3.700   1.414 -1.5551 -0.3196 -1.3486
14945TIP3   OH266325   2.064   2.907   3.237  0.2100 -1.0378 -0.0950
14945TIP3    H166326   2.044   2.867   3.322 -0.0941 -0.0495  0.3106
14945TIP3    H266327   2.102   2.992   3.259 -0.2672 -0.5956 -0.9573
14946TIP3   OH266328   2.362   6.640  12.738 -0.2584 -0.3489 -0.0106
14946TIP3    H166329   2.328   6.551  12.744 -2.6931  0.5795  0.7380
14946TIP3    H266330   2.290   6.691  12.702  0.9492  1.4194 -0.0029
14947TIP3   OH266331   4.976   3.456  15.058  0.3137 -0.2005 -0.1455
14947TIP3    H166332   4.899   3.509  15.040 -0.2565  0.1207  2.9294
14947TIP3    H266333   4.943   3.383  15.110  2.2815  0.9396  2.8499
14948TIP3   OH266334   6.638   0.821   5.003  0.1205 -0.6209 -0.0038
14948TIP3    H166335   6.654   0.730   4.976  2.9873  0.0210 -0.6164
14948TIP3    H266336   6.647   0.872   4.922  0.2432  0.4104  0.6509
14949TIP3   OH266337   0.706   4.998   2.114 -0.0170 -0.2024 -0.1113
14949TIP3    H166338   0.763   5.054   2.167  0.5008 -0.6181 -0.2335
14949TIP3    H266339   0.732   5.016   2.024 -1.7579  1.4645 -0.3322
14950TIP3   OH266340   5.930   5.384  16.188  0.5513  0.1830  0.0971
14950TIP3    H166341   5.880   5.465  16.177 -0.5431 -0.3488  0.9234
14950TIP3    H266342   5.911   5.357  16.279  0.6911 -1.1120 -0.2426
14951TIP3   OH266343   1.842   2.318   4.707 -0.3194 -0.1626 -0.1486
14951TIP3    H166344   1.789   2.388   4.667  0.0911  1.3340  1.8586
14951TIP3    H266345   1.800   2.301   4.791  1.7977  0.3691  1.0582
14952TIP3   OH266346   5.500   1.483   2.374 -0.2386 -0.0317  1.0155
14952TIP3    H166347   5.573   1.510   2.431  1.7794  0.3150 -1.6330
14952TIP3    H266348   5.542   1.429   2.307 -2.1665  1.5383 -1.5074
14953TIP3   OH266349   1.650   5.175   5.112  0.3372  0.1171  0.4341
14953TIP3    H166350   1.740   5.154   5.138  1.0552 -0.5066 -2.3150
14953TIP3    H266351   1.607   5.091   5.101 -0.1844  0.3762  0.4447
14954TIP3   OH266352   4.513   4.507  13.969 -0.0179  0.3413 -0.0405
14954TIP3    H166353   4.497   4.417  13.941 -0.6621  0.7215 -0.9743
14954TIP3    H266354   4.604   4.524  13.945  0.2358 -0.2066  0.5443
14955TIP3   OH266355   1.990   0.955   5.032 -0.1518  0.2922  0.0573
14955TIP3    H166356   2.019   0.896   5.102  2.0391  1.7143  0.3980
14955TIP3    H266357   1.993   0.901   4.953  1.8722 -0.0676  0.3586
14956TIP3   OH266358   5.357   2.637  12.972  0.0575 -0.3521 -0.2408
14956TIP3    H166359   5.435   2.632  13.028  1.3027 -0.3409 -1.9487
14956TIP3    H266360   5.347   2.548  12.939 -1.1192 -0.5283  0.5658
14957TIP3   OH266361   5.189   5.583   0.582 -0.3516 -0.5183 -0.2916
14957TIP3    H166362   5.225   5.617   0.500  0.1878  1.0828  0.5935
14957TIP3    H266363   5.094   5.594   0.572 -0.3046 -0.6018 -0.8307
14958TIP3   OH266364   3.702   6.292  13.805  0.6097  0.1650 -0.8180
14958TIP3    H166365   3.709   6.256  13.893 -0.3992 -0.5062 -0.9962
14958TIP3    H266366   3.760   6.237  13.752 -1.4394 -1.6898 -1.2172
14959TIP3   OH266367   4.358   1.171   2.261 -0.3108 -0.3691  0.1140
14959TIP3    H166368   4.421   1.112   2.301 -1.0889 -1.7471 -0.6619
14959TIP3    H266369   4.379   1.169   2.168 -1.8358 -1.2566 -0.2179
14960TIP3   OH266370   3.893   1.499   3.445  0.6157  0.5132 -0.0323
14960TIP3    H166371   3.845   1.533   3.521 -0.4577 -1.5228  0.2378
14960TIP3    H266372   3.964   1.562   3.431  0.5073  1.2042  2.3255
14961TIP3   OH266373   2.619   4.001  11.641 -0.6875  0.0577 -0.1084
14961TIP3    H166374   2.695   3.963  11.686 -0.4487  2.2241  1.4056
14961TIP3    H266375   2.637   3.986  11.548  0.5596 -1.3325  0.3258
14962TIP3   OH266376   2.912   5.530  16.743  0.2555 -0.4421 -0.3131
14962TIP3    H166377   3.000   5.554  16.713  2.0993 -3.7287  2.1119
14962TIP3    H266378   2.880   5.470  16.676  0.4741 -0.4356 -0.4277
14963TIP3   OH266379   4.071   5.808  10.837  0.0288  0.0650  0.2368
14963TIP3    H166380   4.109   5.816  10.750  0.3856 -0.7922  0.3084
14963TIP3    H266381   4.015   5.730  10.832 -1.0117  0.7971  0.3922
14964TIP3   OH266382   0.195   0.564  14.535  0.0852  0.1567  0.1195
14964TIP3    H166383   0.142   0.625  14.483 -0.0928 -1.0426 -1.1046
14964TIP3    H266384   0.252   0.521  14.472  1.1686  0.0176  1.1758
14965TIP3   OH266385   5.299   1.687   3.939  0.0797 -0.2086  0.0931
14965TIP3    H166386   5.282   1.709   3.848 -1.7970 -1.8062  0.0073
14965TIP3    H266387   5.393   1.701   3.950 -0.0401  2.1103 -1.4554
14966TIP3   OH266388   0.157   5.290   4.626 -0.1925  0.3333  0.3645
14966TIP3    H166389   0.243   5.332   4.635 -0.6899  1.4251  0.0703
14966TIP3    H266390   0.107   5.321   4.702 -0.1601 -0.7253  0.8262
14967TIP3   OH266391   5.358   0.225  13.911  0.3363  0.4418  0.0633
14967TIP3    H166392   5.308   0.257  13.986  0.4114  0.0588  0.2778
14967TIP3    H266393   5.397   0.144  13.941 -1.1996 -0.7275 -1.0145
14968TIP3   OH266394   3.188   2.972  14.881 -0.4975 -0.3687 -0.0379
14968TIP3    H166395   3.201   3.032  14.955 -0.6490  0.0399 -0.3429
14968TIP3    H266396   3.210   2.885  14.916 -1.0562 -0.2447  0.6291
14969TIP3   OH266397   4.722   3.751  15.706  0.3746 -0.7372 -0.3055
14969TIP3    H166398   4.776   3.672  15.708 -1.2188 -1.9174 -1.9771
14969TIP3    H266399   4.779   3.819  15.670  1.8655 -1.0067  1.4605
14970TIP3   OH266400   1.620   4.920  17.148 -0.7298 -0.4458 -0.1396
14970TIP3    H166401   1.622   4.892  17.057 -1.3069 -1.0696  0.0297
14970TIP3    H266402   1.663   4.849  17.196  0.2460  0.2293 -0.0133
14971TIP3   OH266403   1.022   6.336   1.542  0.1224  0.0866  0.2332
14971TIP3    H166404   1.033   6.301   1.630  0.0395 -0.3342  0.0767
14971TIP3    H266405   1.111   6.343   1.508  0.0824 -0.7848 -0.0500
14972TIP3   OH266406   6.197   3.831  12.251 -0.0176 -0.1289 -0.4571
14972TIP3    H166407   6.258   3.872  12.312  0.8601 -2.3683  0.2528
14972TIP3    H266408   6.138   3.901  12.223  0.7919  1.3351  1.4504
14973TIP3   OH266409   6.006   2.717  17.112  0.3853 -0.0932  0.0408
14973TIP3    H166410   6.096   2.684  17.111  0.2487 -0.5497  1.5947
14973TIP3    H266411   5.956   2.650  17.159 -0.4651  0.8903  0.5707
14974TIP3   OH266412   5.326   5.369  13.309 -0.3900 -0.0508 -0.1093
14974TIP3    H166413   5.316   5.274  13.316 -1.0024  0.0154 -0.0060
14974TIP3    H266414   5.365   5.395  13.392  0.8106 -0.3378 -0.5690
14975TIP3   OH266415   0.808   4.221  13.446 -0.3486  0.4947  0.0719
14975TIP3    H166416   0.717   4.193  13.433 -0.1322 -0.5464  0.7615
14975TIP3    H266417   0.855   4.185  13.372 -0.6950  2.0278 -0.9178
14976TIP3   OH266418   0.534   0.716   4.881  0.1771  0.0772  0.0238
14976TIP3    H166419   0.519   0.622   4.874  1.5349 -0.0836 -0.8809
14976TIP3    H266420   0.551   0.731   4.973 -0.3740 -0.5041  0.2243
14977TIP3   OH266421   2.270   1.787   4.441 -0.6077 -0.0597  0.6042
14977TIP3    H166422   2.301   1.797   4.531  0.3312 -0.6692  0.3504
14977TIP3    H266423   2.200   1.853   4.432 -0.0970  0.6050  1.5008
14978TIP3   OH266424   4.435   6.099   2.226  0.3267  0.2525  0.3668
14978TIP3    H166425   4.342   6.096   2.248  0.4677  0.2113  0.9455
14978TIP3    H266426   4.459   6.007   2.213 -0.0371  0.3547 -1.1387
14979TIP3   OH266427   5.551   2.701  10.860 -0.0302  0.0729 -0.4571
14979TIP3    H166428   5.645   2.718  10.868  0.1295 -0.6865 -0.6954
14979TIP3    H266429   5.544   2.631  10.795 -0.8436  1.0553 -1.4584
14980TIP3   OH266430   2.002   6.597   5.720 -0.1263 -0.3096 -0.4038
14980TIP3    H166431   1.929   6.565   5.773 -0.4325  0.5060 -0.3320
14980TIP3    H266432   2.062   6.523   5.716 -0.1340 -0.4068  1.0165
14981TIP3   OH266433   1.435   2.308   2.253  0.4822  0.1743  0.1254
14981TIP3    H166434   1.364   2.369   2.272  0.1911  0.1625 -0.9172
14981TIP3    H266435   1.391   2.231   2.217  1.0081  0.0838 -0.3185
14982TIP3   OH266436   1.511   2.069  10.742 -0.6564 -0.3301 -0.1495
14982TIP3    H166437   1.548   2.143  10.790 -1.1426 -1.1692  1.5682
14982TIP3    H266438   1.569   1.996  10.762 -2.0810 -1.1949  0.9839
14983TIP3   OH266439   4.858   2.197  14.319 -0.3826  0.1113  0.0037
14983TIP3    H166440   4.951   2.216  14.330 -0.4282  0.0679  0.4927
14983TIP3    H266441   4.815   2.282  14.324 -0.3841  0.1129 -0.0382
14984TIP3   OH266442   3.683   0.225  14.337 -1.0707  0.0032  0.0889
14984TIP3    H166443   3.741   0.185  14.403 -1.5947 -0.4114  0.3044
14984TIP3    H266444   3.726   0.307  14.314  0.9858 -1.4975 -1.6942
14985TIP3   OH266445   1.138   6.222   4.803  0.1031  0.5875 -0.6185
14985TIP3    H166446   1.057   6.183   4.772 -0.5188  0.7145  0.8077
14985TIP3    H266447   1.157   6.293   4.742 -0.3103 -0.0860 -1.5371
14986TIP3   OH266448   3.015   4.443  14.876 -0.1581 -0.8658  0.2619
14986TIP3    H166449   3.054   4.507  14.935 -0.9457 -0.9553  0.8871
14986TIP3    H266450   3.086   4.419  14.816  0.4413 -0.2311  0.7143
14987TIP3   OH266451   5.608   5.342  15.926  0.2322  0.4049  0.4593
14987TIP3    H166452   5.607   5.367  16.018 -0.5760  1.3783  0.1975
14987TIP3    H266453   5.557   5.261  15.922  1.8438 -0.6695  1.1303
14988TIP3   OH266454   6.693   4.299  15.167 -0.2796  0.2937 -0.6508
14988TIP3    H166455   6.776   4.267  15.131 -0.9676  1.1920 -3.1283
14988TIP3    H266456   6.626   4.250  15.120 -1.1957  0.1146  0.7983
14989TIP3   OH266457   1.931   6.500   6.350 -0.3769 -0.4590 -0.0380
14989TIP3    H166458   1.912   6.456   6.432 -0.5187 -0.9971 -0.3605
14989TIP3    H266459   1.879   6.581   6.354  1.0642  0.4304  1.2145
14990TIP3   OH266460   4.394   0.129   5.634 -0.0641 -0.8300  0.0394
14990TIP3    H166461   4.339   0.095   5.563  1.0915 -2.3502 -0.1565
14990TIP3    H266462   4.367   0.078   5.710 -1.8771  1.3672  0.9065
14991TIP3   OH266463   5.626   5.677  16.422  0.1544 -0.4643  0.2104
14991TIP3    H166464   5.721   5.679  16.419  0.1511 -1.7367 -1.1121
14991TIP3    H266465   5.605   5.689  16.515  1.6495 -1.6087  0.7180
14992TIP3   OH266466   1.528   1.778   5.097 -0.0821  0.0953 -0.7209
14992TIP3    H166467   1.571   1.863   5.097  2.0703 -0.9630 -0.8642
14992TIP3    H266468   1.562   1.733   5.020  2.7763 -2.7751  2.0311
14993TIP3   OH266469   1.531   0.457   2.030 -0.5345  0.3379  0.7722
14993TIP3    H166470   1.507   0.524   2.093 -1.2612  1.2888 -0.4983
14993TIP3    H266471   1.577   0.391   2.082  1.7608  2.6234  1.7497
14994TIP3   OH266472   5.215   4.650  13.415 -0.0061 -0.0583  0.1110
14994TIP3    H166473   5.176   4.737  13.424  2.4236  1.0078  0.7771
14994TIP3    H266474   5.237   4.624  13.504  2.0617  0.0087 -0.3475
14995TIP3   OH266475   3.602   1.282   1.628  0.2229 -0.3548  0.4252
14995TIP3    H166476   3.665   1.351   1.608  0.8463 -1.1140 -0.2846
14995TIP3    H266477   3.541   1.322   1.690  0.1701  1.0482 -0.4951
14996TIP3   OH266478   4.845   0.173   3.430 -0.1902  0.0856 -0.1928
14996TIP3    H166479   4.798   0.256   3.416 -2.8523 -1.7714 -2.8347
14996TIP3    H266480   4.921   0.178   3.372 -0.1333  0.7995 -0.0619
14997TIP3   OH266481   5.963   3.686  12.757 -0.5040  0.0732 -0.2617
14997TIP3    H166482   5.938   3.593  12.755  1.0418 -0.3745  0.0760
14997TIP3    H266483   5.975   3.709  12.665  1.1159 -0.6510 -0.2487
14998TIP3   OH266484   5.775   6.188   0.705 -0.2301  0.0012 -0.1688
14998TIP3    H166485   5.793   6.201   0.612  1.4941  0.0849  0.1545
14998TIP3    H266486   5.681   6.205   0.714 -0.3125  0.4977 -1.7974
14999TIP3   OH266487   0.527   2.800  14.535 -0.5691  1.1223 -0.4959
14999TIP3    H166488   0.522   2.730  14.470  3.0502 -0.6121  0.9556
14999TIP3    H266489   0.504   2.757  14.618  0.2686  1.9372  0.1715
15000TIP3   OH266490   0.308   4.098   1.375 -0.3853  0.3908 -0.8454
15000TIP3    H166491   0.385   4.153   1.369 -0.2425  0.2285 -0.5627
15000TIP3    H266492   0.342   4.008   1.372 -0.4022  0.3006  0.8481
15001TIP3   OH266493   1.772   3.957  12.041 -0.2020  0.1204 -0.0771
15001TIP3    H166494   1.857   4.002  12.040 -0.3211  0.3332 -0.9416
15001TIP3    H266495   1.782   3.889  12.108  0.7769 -0.0794 -0.4163
15002TIP3   OH266496   2.079   3.128  10.764  0.4049 -0.1594  0.4883
15002TIP3    H166497   2.135   3.205  10.768 -0.1558  0.3067 -0.3959
15002TIP3    H266498   2.139   3.056  10.742  0.7973  0.1707  0.4757
15003TIP3   OH266499   2.690   1.268   4.329  0.3743  0.1339  0.3853
15003TIP3    H166500   2.744   1.265   4.407  0.5042  2.1361  0.3833
15003TIP3    H266501   2.726   1.339   4.276 -0.8335 -0.0009 -0.6692
15004TIP3   OH266502   3.802   2.687   2.799  0.3712  0.5841  0.3836
15004TIP3    H166503   3.725   2.641   2.766  0.8101  0.3996 -0.4256
15004TIP3    H266504   3.873   2.622   2.791  0.6023  0.7448  1.1233
15005TIP3   OH266505   6.547   3.056  10.871 -0.5862 -0.2831 -0.1144
15005TIP3    H166506   6.637   3.069  10.839 -0.0277 -0.9026  1.1864
15005TIP3    H266507   6.517   3.144  10.893 -0.0212 -0.1589  0.1747
15006TIP3   OH266508   3.062   0.086  16.285 -0.0195 -0.7148 -0.2374
15006TIP3    H166509   3.029   0.005  16.324 -0.2115 -0.2667  0.5424
15006TIP3    H266510   3.019   0.091  16.200 -1.6610 -0.3316  0.6086
15007TIP3   OH266511   4.194   1.383   2.404 -0.4583  0.4974  0.7046
15007TIP3    H166512   4.103   1.372   2.378 -0.3491  0.6623  0.2360
15007TIP3    H266513   4.243   1.323   2.347 -0.3255  0.0366  1.3029
15008TIP3   OH266514   5.415   2.384  14.215 -0.1095 -0.6661 -0.2877
15008TIP3    H166515   5.321   2.405  14.220  0.3903  1.7283 -0.2670
15008TIP3    H266516   5.423   2.301  14.260 -2.0339 -0.2498  0.9078
15009TIP3   OH266517   0.323   3.680  13.219  0.6155 -0.6315  0.2490
15009TIP3    H166518   0.396   3.656  13.160 -0.1374 -0.6139 -0.7068
15009TIP3    H266519   0.299   3.598  13.262  0.0054 -1.0152 -0.8006
15010TIP3   OH266520   0.603   4.103  13.305 -0.3007  0.3776  0.0671
15010TIP3    H166521   0.581   4.054  13.227 -1.9836 -1.5623  1.7155
15010TIP3    H266522   0.539   4.174  13.308 -1.3151 -0.5532  0.5841
15011TIP3   OH266523   1.169   0.026  16.353  0.0818 -0.6810 -0.3790
15011TIP3    H166524   1.121   0.050  16.274  0.0150 -0.3137 -0.2298
15011TIP3    H266525   1.250   0.077  16.347 -0.6678  0.6625  0.6291
15012TIP3   OH266526   3.657   3.183  15.354 -0.5878 -0.2775 -0.2890
15012TIP3    H166527   3.692   3.107  15.307 -0.2516  0.4248 -1.1779
15012TIP3    H266528   3.632   3.148  15.439 -0.5560 -1.4180 -0.7381
15013TIP3   OH266529   3.243   2.428   3.394 -0.3277 -0.3781  0.2933
15013TIP3    H166530   3.241   2.521   3.372 -2.6942 -0.1411  1.3884
15013TIP3    H266531   3.244   2.426   3.489  0.3513 -1.4859  0.2681
15014TIP3   OH266532   2.354   3.228   2.105 -0.2017 -0.0508 -0.1018
15014TIP3    H166533   2.304   3.147   2.092  0.0548 -0.0455 -1.1414
15014TIP3    H266534   2.328   3.285   2.033 -1.4744  1.3598  1.4231
15015TIP3   OH266535   3.124   5.048   3.331 -0.0759  0.1808  0.4035
15015TIP3    H166536   3.078   4.967   3.352 -2.1489  1.2547  0.0821
15015TIP3    H266537   3.191   5.055   3.400 -2.0183 -0.1260  2.3947
15016TIP3   OH266538   4.004   5.036  14.031  0.1598  0.1431 -0.4380
15016TIP3    H166539   3.917   5.014  14.065 -0.6250  1.0588 -1.8371
15016TIP3    H266540   4.059   4.962  14.056 -0.3828  0.7671  2.8268
15017TIP3   OH266541   1.259   4.359  14.438 -0.0653 -0.8107  0.2021
15017TIP3    H166542   1.352   4.339  14.423 -0.3556 -0.0384 -2.8357
15017TIP3    H266543   1.222   4.277  14.469  1.1664 -1.7805 -0.8398
15018TIP3   OH266544   2.787   5.654  13.911  0.0244  0.1149  0.1444
15018TIP3    H166545   2.695   5.633  13.925 -0.0066 -0.1917 -0.4817
15018TIP3    H266546   2.801   5.638  13.817  0.9160 -0.6193  0.3938
15019TIP3   OH266547   1.260   0.275   3.242  0.6231  0.3444  0.4235
15019TIP3    H166548   1.318   0.326   3.185  0.6871  1.6958  1.6621
15019TIP3    H266549   1.303   0.277   3.328  0.2624 -1.2124  0.6648
15020TIP3   OH266550   6.346   0.979   0.724  0.6311  0.1887  0.3653
15020TIP3    H166551   6.260   1.019   0.736 -0.0375 -1.2035  0.2463
15020TIP3    H266552   6.352   0.963   0.629  0.5601 -0.7391  0.5159
15021TIP3   OH266553   4.712   6.589  12.789  0.1988  0.7090  0.0328
15021TIP3    H166554   4.671   6.509  12.822 -0.5554  0.7234 -0.8597
15021TIP3    H266555   4.801   6.564  12.767  0.1171  0.2428  0.2372
15022TIP3   OH266556   6.192   3.234  15.465  0.5405 -0.2367 -0.5565
15022TIP3    H166557   6.211   3.141  15.456 -0.3867 -0.4165 -0.8008
15022TIP3    H266558   6.275   3.274  15.487  0.4287 -1.4814  2.2828
15023TIP3   OH266559   1.946   3.596   2.663  0.0275 -0.2554 -0.0566
15023TIP3    H166560   1.872   3.640   2.706 -0.1601  0.5576 -1.1983
15023TIP3    H266561   2.023   3.630   2.708 -0.1692  0.5607 -0.3293
15024TIP3   OH266562   6.051   2.551   2.506 -0.3710  0.0379  0.3981
15024TIP3    H166563   6.097   2.621   2.553  0.5759  0.0886 -0.5735
15024TIP3    H266564   6.095   2.547   2.421 -1.6551 -0.4636 -0.2546
15025TIP3   OH266565   4.014   3.591   2.080 -0.2751 -0.4670 -0.1990
15025TIP3    H166566   3.989   3.518   2.024  1.5992 -0.8328 -0.5908
15025TIP3    H266567   4.104   3.611   2.055 -0.8031  2.1198 -0.2322
15026TIP3   OH266568   5.429   3.922  16.117  0.2021 -0.0442  0.4761
15026TIP3    H166569   5.455   3.894  16.029 -0.3816  0.3634  0.1682
15026TIP3    H266570   5.333   3.925  16.113  0.1932  0.3271  1.0186
15027TIP3   OH266571   4.478   6.783  15.964 -0.3944 -0.6168 -0.2894
15027TIP3    H166572   4.383   6.795  15.966 -0.2122  0.7052  1.2386
15027TIP3    H266573   4.513   6.856  16.016  1.6796  1.0104 -3.7653
15028TIP3   OH266574   0.121   5.792   1.278  0.6137 -0.6712  0.2050
15028TIP3    H166575   0.132   5.815   1.370  0.9901  0.6904 -0.1594
15028TIP3    H266576   0.035   5.826   1.254  1.2164  0.5238 -0.3642
15029TIP3   OH266577   5.098   2.423   3.467  0.4207  0.0078  0.1450
15029TIP3    H166578   5.057   2.509   3.473  0.0313 -0.2299  0.9231
15029TIP3    H266579   5.164   2.433   3.399 -0.6980  0.4836 -0.8793
15030TIP3   OH266580   4.800   6.680   1.264 -0.0615 -0.0713 -0.2913
15030TIP3    H166581   4.717   6.633   1.257  0.4198 -0.6612 -2.0378
15030TIP3    H266582   4.822   6.675   1.358 -0.6074 -2.2946 -0.2606
15031TIP3   OH266583   2.159   2.783   2.106  0.0182  0.0616  0.6632
15031TIP3    H166584   2.234   2.816   2.156 -0.5496 -1.5751  2.6218
15031TIP3    H266585   2.198   2.744   2.027  1.1867 -0.4867  1.5070
15032TIP3   OH266586   1.100   5.508   3.544 -0.0632 -0.2706  0.4563
15032TIP3    H166587   1.043   5.544   3.475  0.5911  0.4375  0.2729
15032TIP3    H266588   1.145   5.435   3.502 -0.4279 -0.4903  0.4413
15033TIP3   OH266589   0.600   1.727   1.231 -0.7360 -0.3953  0.6343
15033TIP3    H166590   0.583   1.821   1.222 -0.3082 -0.3118  0.6941
15033TIP3    H266591   0.694   1.718   1.218 -0.6428 -0.7106  1.4420
15034TIP3   OH266592   1.572   2.070   1.597 -0.0724  0.0387 -0.2730
15034TIP3    H166593   1.632   2.144   1.605 -0.5776  0.6222 -1.7480
15034TIP3    H266594   1.612   2.000   1.649  2.0754  0.2804 -1.5581
15035TIP3   OH266595   4.435   4.568  12.660 -0.0566 -0.1591 -0.3720
15035TIP3    H166596   4.501   4.608  12.716 -0.9047 -0.8358  1.1593
15035TIP3    H266597   4.379   4.640  12.633  1.2672  0.4107 -1.6588
15036TIP3   OH266598   3.236   1.999   0.933 -0.5550 -0.2247  0.7500
15036TIP3    H166599   3.279   1.914   0.922  3.1803  1.8452 -1.9378
15036TIP3    H266600   3.166   2.000   0.867  0.7364 -0.4670 -0.6523
15037TIP3   OH266601   4.134   0.770  12.279  0.1937  0.0672 -0.3371
15037TIP3    H166602   4.218   0.752  12.235  0.8324  0.3322  0.7554
15037TIP3    H266603   4.129   0.866  12.283 -0.5371  0.0662 -1.0949
15038TIP3   OH266604   6.712   1.190   5.996  0.4329  0.1290 -0.4101
15038TIP3    H166605   6.738   1.265   5.942  0.4402  0.3067 -0.1604
15038TIP3    H266606   6.794   1.146   6.017  0.6145  1.0936  0.9726
15039TIP3   OH266607   0.549   1.026   5.538  0.2354 -0.5556 -0.0384
15039TIP3    H166608   0.596   1.004   5.619  2.4023  2.1767 -0.4638
15039TIP3    H266609   0.461   1.050   5.567  1.6666  2.7990  1.9407
15040TIP3   OH266610   3.197   3.421   5.754  0.0759  0.0716  0.2536
15040TIP3    H166611   3.187   3.505   5.710 -1.5168 -0.1467  0.1646
15040TIP3    H266612   3.277   3.431   5.806 -0.1891  1.7060  0.3881
15041TIP3   OH266613   0.691   3.818  10.511 -0.6354  0.2916  0.5304
15041TIP3    H166614   0.751   3.743  10.509  1.3049  1.8308 -1.6457
15041TIP3    H266615   0.605   3.780  10.493  0.6558 -1.1665 -3.0628
15042TIP3   OH266616   3.991   0.388   2.047 -0.1755  0.1198 -0.1837
15042TIP3    H166617   4.013   0.295   2.043  0.3305  0.2780 -1.1807
15042TIP3    H266618   3.904   0.390   2.087 -0.8028 -0.8839 -1.4766
15043TIP3   OH266619   1.625   3.659   0.463  0.8489  0.1615  0.1666
15043TIP3    H166620   1.598   3.580   0.511 -0.0262  0.3064 -0.0800
15043TIP3    H266621   1.550   3.680   0.407  1.8759 -0.0393 -1.3202
15044TIP3   OH266622   2.412   5.949   0.022 -0.1165  0.4789  0.0415
15044TIP3    H166623   2.444   5.904   0.100 -1.0789  0.5314  0.4712
15044TIP3    H266624   2.427   5.886  -0.049 -0.2728 -0.0212  0.4409
15045TIP3   OH266625   6.223   3.061  14.165 -0.1972  0.0883 -0.6108
15045TIP3    H166626   6.171   2.999  14.114 -3.3478  1.9507  0.2540
15045TIP3    H266627   6.222   3.142  14.114  1.4637  0.3192 -0.3199
15046TIP3   OH266628   6.003   3.891   5.631  0.1631 -0.2612  0.0621
15046TIP3    H166629   5.910   3.869   5.636  0.4973 -1.3129  1.9967
15046TIP3    H266630   6.047   3.826   5.685  1.8623  1.2624  0.5945
15047TIP3   OH266631   4.182   6.340   6.295 -0.2070  0.0378 -0.1249
15047TIP3    H166632   4.270   6.367   6.324 -0.0811 -0.9657  0.4673
15047TIP3    H266633   4.138   6.421   6.272  0.4774  0.6603  0.7386
15048TIP3   OH266634   0.855   2.166   1.688  0.2409 -0.1396 -0.6321
15048TIP3    H166635   0.826   2.085   1.728  2.8351 -1.1370 -0.6602
15048TIP3    H266636   0.811   2.167   1.603 -3.1596  0.6607  1.0544
15049TIP3   OH266637   5.564   4.136  15.616  0.7800 -0.0711  0.0005
15049TIP3    H166638   5.512   4.211  15.587 -0.3224 -0.5706  0.6824
15049TIP3    H266639   5.652   4.172  15.631  0.3879  0.9702 -0.2004
15050TIP3   OH266640   6.104   4.635   0.252 -0.1264  0.1020  0.0133
15050TIP3    H166641   6.039   4.631   0.322  0.5678  0.0492  0.6617
15050TIP3    H266642   6.183   4.668   0.295  0.4437 -0.4019 -0.6412
15051TIP3   OH266643   3.866   3.130   4.148  0.7630  0.4089  0.7579
15051TIP3    H166644   3.878   3.097   4.059  0.5690  0.0939  0.8486
15051TIP3    H266645   3.828   3.056   4.196  1.3545  0.4118  1.2281
15052TIP3   OH266646   2.782   4.701   1.123  0.9220 -0.2355  0.0478
15052TIP3    H166647   2.718   4.754   1.075  0.5383  0.6031  1.4638
15052TIP3    H266648   2.839   4.665   1.054  0.4178  0.9898 -1.0403
15053TIP3   OH266649   3.692   3.082  14.414  0.2405  0.2812 -0.2867
15053TIP3    H166650   3.715   3.009  14.472 -0.5288 -0.6303 -1.1194
15053TIP3    H266651   3.752   3.153  14.440  1.3844 -0.8253  0.1474
15054TIP3   OH266652   6.367   0.563   0.187  0.2808  0.4719  0.3911
15054TIP3    H166653   6.425   0.507   0.239  1.2186  1.1135  0.0377
15054TIP3    H266654   6.389   0.652   0.215  0.4349  0.7928 -0.7466
15055TIP3   OH266655   6.359   4.923  11.705 -0.8405 -0.2362  0.5430
15055TIP3    H166656   6.338   4.937  11.797 -2.1158  0.0751  0.2249
15055TIP3    H266657   6.385   5.009  11.673  0.4387 -0.5171  0.8106
15056TIP3   OH266658   0.972   6.661   1.491 -0.4570 -0.1055  0.1016
15056TIP3    H166659   0.981   6.748   1.452 -1.9753 -0.5419 -1.2691
15056TIP3    H266660   0.998   6.601   1.421  0.1830 -0.7678  0.9064
15057TIP3   OH266661   6.401   3.045   4.494 -0.0621 -0.0006 -0.0006
15057TIP3    H166662   6.371   2.992   4.568  0.3906  0.7820  0.7618
15057TIP3    H266663   6.375   2.996   4.416  0.8444 -1.6049  0.6901
15058TIP3   OH266664   6.752   0.387  11.301 -0.1809 -0.5433 -0.0954
15058TIP3    H166665   6.657   0.395  11.289 -0.1049 -0.5474 -0.7148
15058TIP3    H266666   6.784   0.477  11.297  0.0069 -0.6608 -1.3251
15059TIP3   OH266667   0.693   4.736  16.327  0.5676  0.2602 -0.8203
15059TIP3    H166668   0.731   4.649  16.340 -0.0318  0.1147  0.0083
15059TIP3    H266669   0.760   4.796  16.359 -0.0685 -0.0165  1.1389
15060TIP3   OH266670   1.560   1.844   1.426 -0.4246  0.4669 -0.0894
15060TIP3    H166671   1.568   1.920   1.483  0.9376  0.0076  0.3587
15060TIP3    H266672   1.561   1.880   1.338  0.8088  0.9391  0.1070
15061TIP3   OH266673   4.813   0.684  13.651  0.0064 -0.3665 -0.5911
15061TIP3    H166674   4.825   0.599  13.611 -1.0317 -0.8540  0.0967
15061TIP3    H266675   4.819   0.668  13.745  2.3852  0.7543 -0.5229
15062TIP3   OH266676   3.160   6.386  12.235  0.5464  0.3934 -0.2563
15062TIP3    H166677   3.136   6.418  12.147  1.3318  0.6468 -0.3783
15062TIP3    H266678   3.239   6.334  12.221  0.4747  0.1474  0.2518
15063TIP3   OH266679   3.332   4.415   1.488  0.6522 -0.2031 -0.3368
15063TIP3    H166680   3.292   4.396   1.573  0.4249  1.8687  0.0391
15063TIP3    H266681   3.294   4.351   1.429 -1.0021 -0.1490  0.6261
15064TIP3   OH266682   5.072   4.524   0.817 -0.4499 -0.0722  0.3524
15064TIP3    H166683   5.068   4.616   0.793  0.6403 -0.1433 -0.1106
15064TIP3    H266684   5.064   4.523   0.912 -1.8694  0.3992  0.2579
15065TIP3   OH266685   0.507   1.735  11.400 -0.0418 -0.2876  0.1417
15065TIP3    H166686   0.549   1.721  11.315 -0.5086  0.6659 -0.2494
15065TIP3    H266687   0.578   1.726  11.464  0.4467 -0.2988 -0.4019
15066TIP3   OH266688   4.082   4.984  14.391  0.0983 -0.1501  0.1554
15066TIP3    H166689   4.037   5.067  14.403  0.0829 -0.0860 -0.3424
15066TIP3    H266690   4.153   4.986  14.455 -0.6679 -0.3002  1.0134
15067TIP3   OH266691   5.204   4.395  14.189 -0.5423  0.0154  0.3345
15067TIP3    H166692   5.223   4.304  14.209 -0.3837 -0.0829 -0.2488
15067TIP3    H266693   5.109   4.401  14.187 -0.5526 -0.1061  0.5212
15068TIP3   OH266694   2.082   5.127   0.022 -0.7314 -0.3725  0.0668
15068TIP3    H166695   2.038   5.207  -0.008 -0.7181  0.5110  2.2948
15068TIP3    H266696   2.012   5.076   0.063 -0.6890 -1.3933 -1.1304
15069TIP3   OH266697   3.570   3.924  12.060  0.3793 -0.2972 -0.0260
15069TIP3    H166698   3.591   3.928  12.153 -1.7234 -0.6988  0.4956
15069TIP3    H266699   3.604   3.839  12.032 -1.7026 -1.5688  1.1299
15070TIP3   OH266700   0.314   2.886  10.992 -0.1901  0.3504 -0.0559
15070TIP3    H166701   0.285   2.839  11.070  3.6256 -1.9090  0.1276
15070TIP3    H266702   0.349   2.969  11.027  0.2031 -0.0353  0.4746
15071TIP3   OH266703   2.599   5.127  15.511  0.2720 -0.1975 -0.2906
15071TIP3    H166704   2.505   5.120  15.501 -0.2157  1.1196  2.7191
15071TIP3    H266705   2.618   5.220  15.498  1.0571 -0.3489 -0.2891
15072TIP3   OH266706   3.373   6.756  14.022 -0.6971  1.1582 -0.7809
15072TIP3    H166707   3.377   6.850  14.008 -3.2510  1.6332  1.3837
15072TIP3    H266708   3.409   6.743  14.110  2.5684 -0.2836 -2.2345
15073TIP3   OH266709   5.076   5.089   1.060  0.2188 -0.3206  0.2104
15073TIP3    H166710   5.075   5.184   1.054 -0.3761 -0.3377  0.0024
15073TIP3    H266711   5.083   5.071   1.154  3.6102 -0.0719  0.0607
15074TIP3   OH266712   5.108   2.543   2.810 -0.3387  0.2863 -0.4830
15074TIP3    H166713   5.075   2.592   2.885 -1.0362 -2.1320  0.8310
15074TIP3    H266714   5.195   2.514   2.837 -1.2881 -2.1002  0.1329
15075TIP3   OH266715   1.196   0.390  15.447  0.3777 -0.4462 -0.0569
15075TIP3    H166716   1.246   0.469  15.428  0.4925 -0.3293  0.7242
15075TIP3    H266717   1.231   0.325  15.386  0.4218  0.0451 -0.5643
15076TIP3   OH266718   1.574   3.786  11.945  0.3182 -0.1801  0.3318
15076TIP3    H166719   1.588   3.788  11.851 -1.7669 -0.1016 -0.0043
15076TIP3    H266720   1.623   3.860  11.979  1.2161 -0.3189 -0.6705
15077TIP3   OH266721   2.756   3.849   0.660  0.0455  0.6919 -0.6243
15077TIP3    H166722   2.698   3.813   0.727  1.3852  1.7537  1.1604
15077TIP3    H266723   2.733   3.942   0.657  0.9376  0.9122 -0.6551
15078TIP3   OH266724   0.533   3.204   1.839 -0.0283 -0.0570 -0.2485
15078TIP3    H166725   0.538   3.181   1.931  1.9453 -1.4271 -0.6608
15078TIP3    H266726   0.446   3.176   1.811  0.0876 -1.4251  0.7339
15079TIP3   OH266727   6.404   3.668   0.895 -0.1864 -0.5819 -0.4078
15079TIP3    H166728   6.485   3.694   0.852  1.1708 -2.3522  0.9883
15079TIP3    H266729   6.378   3.586   0.852 -0.6208 -0.6131 -0.0961
15080TIP3   OH266730   4.332   4.238  11.511 -0.1162  0.4402  0.3719
15080TIP3    H166731   4.424   4.263  11.504 -0.2645  0.5742 -1.3223
15080TIP3    H266732   4.319   4.172  11.442 -1.0682 -0.2529  1.1855
15081TIP3   OH266733   3.957   1.836  12.853  0.2364 -0.0701 -0.6474
15081TIP3    H166734   3.873   1.792  12.860 -1.0792  2.2608 -1.1802
15081TIP3    H266735   3.991   1.811  12.767  0.0598 -0.9474 -0.4604
15082TIP3   OH266736   2.029   1.774   4.668 -0.4528 -0.6276 -0.0943
15082TIP3    H166737   2.022   1.828   4.589  0.8258 -0.8801 -0.3951
15082TIP3    H266738   1.949   1.723   4.669 -0.9611  0.1416 -0.6595
15083TIP3   OH266739   6.572   0.815   3.906  0.5162  0.7343  0.3614
15083TIP3    H166740   6.655   0.767   3.907 -0.5806 -1.2425 -0.0395
15083TIP3    H266741   6.550   0.828   3.998  0.3858 -0.3546  0.4949
15084TIP3   OH266742   2.581   0.644   0.996  0.4771  0.2343  0.1146
15084TIP3    H166743   2.614   0.564   1.037  0.5409  1.9255  3.6384
15084TIP3    H266744   2.654   0.706   1.005 -1.1669  1.9822  1.6174
15085TIP3   OH266745   3.574   5.142  10.956 -0.2558  0.7700  0.0573
15085TIP3    H166746   3.561   5.109  10.867 -0.2071  0.8961  0.0036
15085TIP3    H266747   3.526   5.080  11.012  0.9192 -0.1344  0.0887
15086TIP3   OH266748   1.252   5.376  13.910 -0.0361 -0.1608  0.3801
15086TIP3    H166749   1.261   5.471  13.915 -0.6213 -0.0370 -0.6105
15086TIP3    H266750   1.338   5.341  13.933  1.0760  0.7196 -2.3057
15087TIP3   OH266751   4.060   1.834  16.640  0.0970  0.1717 -0.7974
15087TIP3    H166752   4.075   1.798  16.553  0.6292 -0.9984 -0.2340
15087TIP3    H266753   4.103   1.920  16.638  0.4336 -0.0067 -1.5731
15088TIP3   OH266754   0.928   1.459  16.815  0.1558 -0.2881 -0.3589
15088TIP3    H166755   0.974   1.514  16.878  0.0800 -2.2683  1.4832
15088TIP3    H266756   0.836   1.467  16.838  0.0956 -0.7725 -0.4344
15089TIP3   OH266757   1.943   1.017   2.028 -0.4493 -0.4263 -0.2750
15089TIP3    H166758   1.869   1.050   1.977  0.3519  1.4102 -0.2981
15089TIP3    H266759   1.995   0.967   1.964 -0.3739  0.3753 -0.8530
15090TIP3   OH266760   0.564   3.603   2.768 -0.1828  0.0690  0.2111
15090TIP3    H166761   0.506   3.558   2.830  1.9639 -0.7428  1.7034
15090TIP3    H266762   0.576   3.690   2.805 -0.6725  0.3345 -0.2503
15091TIP3   OH266763   2.417   4.194   2.490 -0.2287 -0.1743 -0.0534
15091TIP3    H166764   2.459   4.267   2.537  1.7228 -0.2903 -1.5117
15091TIP3    H266765   2.324   4.213   2.495  0.0649  0.9130  2.0433
15092TIP3   OH266766   1.723   2.692   4.222  0.3648 -0.6650  0.7676
15092TIP3    H166767   1.705   2.605   4.187 -0.0290 -0.9616  1.6995
15092TIP3    H266768   1.637   2.731   4.236  0.5422 -0.0500  0.1728
15093TIP3   OH266769   0.074   0.155   1.272  0.0843  0.1096 -0.0721
15093TIP3    H166770   0.074   0.165   1.368  0.6091 -2.8961  0.3077
15093TIP3    H266771   0.163   0.180   1.247  1.0734 -2.4521  0.7024
15094TIP3   OH266772   4.099   0.680  15.787 -0.5524  0.7401  0.0451
15094TIP3    H166773   4.190   0.652  15.793 -0.7867  0.0660  0.5049
15094TIP3    H266774   4.052   0.603  15.756 -0.7510  1.5124 -1.6342
15095TIP3   OH266775   5.334   0.223   4.705  0.0853  0.1451 -0.2341
15095TIP3    H166776   5.298   0.300   4.750  0.0703  0.9175 -1.5579
15095TIP3    H266777   5.391   0.182   4.770  2.2810  2.8155 -0.4247
15096TIP3   OH266778   5.878   3.200  13.631  0.6041  0.1398  0.6456
15096TIP3    H166779   5.937   3.246  13.690  1.3442 -0.0243  0.0409
15096TIP3    H266780   5.848   3.124  13.680  3.2462 -1.4227 -0.0760
15097TIP3   OH266781   5.531   3.473  11.225  0.0130  0.1467 -0.3982
15097TIP3    H166782   5.569   3.561  11.215  0.0771  0.1194 -0.3924
15097TIP3    H266783   5.489   3.475  11.311  1.4742 -0.3777  0.3525
15098TIP3   OH266784   5.969   2.656  13.326 -0.3471 -0.1232 -0.0826
15098TIP3    H166785   6.022   2.672  13.248 -0.2492  1.2904  0.2753
15098TIP3    H266786   5.896   2.603  13.293 -0.0375  0.0166 -1.0316
15099TIP3   OH266787   1.668   5.370  14.603  0.5224  0.1880 -0.1969
15099TIP3    H166788   1.689   5.463  14.611 -0.2076  0.1821  2.2342
15099TIP3    H266789   1.703   5.345  14.517  2.3929  2.2537 -0.1032
15100TIP3   OH266790   2.972   3.880  13.126 -0.0624 -0.5385 -0.0306
15100TIP3    H166791   2.877   3.885  13.118 -0.1590  1.1173  1.8164
15100TIP3    H266792   2.994   3.942  13.196  2.2942 -1.4738  0.1143
15101TIP3   OH266793   5.298   4.541  16.869  0.5935  0.3261  0.3396
15101TIP3    H166794   5.266   4.451  16.859 -0.3042  0.7017 -0.2459
15101TIP3    H266795   5.225   4.587  16.910  0.6827  1.0074 -0.2619
15102TIP3   OH266796   2.828   0.101  14.684 -0.3496  0.6438 -0.0720
15102TIP3    H166797   2.827   0.042  14.609  0.7612 -0.1589  0.5235
15102TIP3    H266798   2.909   0.152  14.674  0.5827 -0.5103  1.3443
15103TIP3   OH266799   4.510   4.087  15.953  0.1403 -0.1338  0.2953
15103TIP3    H166800   4.542   4.028  16.022  0.2450 -0.4010  0.0203
15103TIP3    H266801   4.533   4.174  15.983 -0.6949 -0.1767  1.0794
15104TIP3   OH266802   6.384   3.625  14.583  0.0662 -0.2564  0.2621
15104TIP3    H166803   6.441   3.558  14.621  0.2981 -0.6249 -0.7148
15104TIP3    H266804   6.415   3.634  14.493 -0.7074  0.3470  0.0506
15105TIP3   OH266805   5.219   6.442   4.911 -0.1534  0.0443 -0.4558
15105TIP3    H166806   5.231   6.371   4.974 -1.5853  0.4883  0.3399
15105TIP3    H266807   5.288   6.428   4.846 -1.3305 -2.9592 -1.1183
15106TIP3   OH266808   0.114   4.941  12.347  0.0054  0.1163  0.2717
15106TIP3    H166809   0.172   4.927  12.272 -0.6260 -1.5458  0.0737
15106TIP3    H266810   0.153   4.890  12.417 -0.6679 -0.1990  0.4193
15107TIP3   OH266811   1.963   5.835  14.471 -0.2686 -0.4017 -0.2716
15107TIP3    H166812   1.957   5.745  14.439  1.5994  0.1072 -2.2064
15107TIP3    H266813   2.042   5.836  14.524 -0.7985 -0.1220  0.5138
15108TIP3   OH266814   3.454   1.223   2.647 -0.5764 -0.1175 -0.2342
15108TIP3    H166815   3.408   1.249   2.727 -2.4019 -1.6702 -0.7374
15108TIP3    H266816   3.440   1.128   2.642  2.4751 -0.5759 -0.5598
15109TIP3   OH266817   2.717   5.946   3.153  0.6155  0.4168  0.4624
15109TIP3    H166818   2.672   5.961   3.236 -0.8606 -0.8637 -0.0724
15109TIP3    H266819   2.655   5.894   3.101  2.3449 -0.6071 -0.6490
15110TIP3   OH266820   6.287   2.363  10.990 -0.1171  0.1857  0.5493
15110TIP3    H166821   6.360   2.317  10.950 -0.6695  0.9338 -1.3943
15110TIP3    H266822   6.212   2.305  10.978 -0.1285  0.0614  1.2194
15111TIP3   OH266823   6.200   3.229  12.620 -0.0053  0.2073 -0.1019
15111TIP3    H166824   6.149   3.294  12.571 -0.6402  0.4198  0.8393
15111TIP3    H266825   6.264   3.196  12.556 -1.1619  0.1096 -1.2268
15112TIP3   OH266826   4.734   4.843   0.159  0.3300  0.0015  0.4514
15112TIP3    H166827   4.789   4.826   0.236 -0.9583 -0.9211  1.1906
15112TIP3    H266828   4.683   4.921   0.184  0.9201  0.5391 -0.0229
15113TIP3   OH266829   1.824   3.849  17.105 -0.5297  1.1974 -0.5474
15113TIP3    H166830   1.906   3.801  17.093 -1.4629 -0.7941  0.8549
15113TIP3    H266831   1.846   3.923  17.161  0.0687 -0.0059  0.8006
15114TIP3   OH266832   4.443   5.094  12.362 -0.2391 -0.2413 -0.0149
15114TIP3    H166833   4.523   5.134  12.328 -1.3090  1.5486 -0.4825
15114TIP3    H266834   4.424   5.143  12.442 -2.3296  1.2040 -1.3241
15115TIP3   OH266835   5.195   2.475  15.526 -0.2277 -0.1780 -0.2854
15115TIP3    H166836   5.190   2.397  15.582 -1.7184  0.0639 -0.0782
15115TIP3    H266837   5.114   2.475  15.477 -0.7886  1.8878  0.5855
15116TIP3   OH266838   4.326   3.073   5.340  0.2666 -0.2022 -0.7167
15116TIP3    H166839   4.399   3.073   5.402  0.5778 -1.3441 -1.0680
15116TIP3    H266840   4.301   3.165   5.333 -0.6924 -0.1969  2.1348
15117TIP3   OH266841   1.466   3.776  13.427  0.1890  0.5822 -0.4280
15117TIP3    H166842   1.395   3.823  13.470  0.6347  0.1456  0.7807
15117TIP3    H266843   1.424   3.700  13.387 -0.4754  1.7859 -2.0760
15118TIP3   OH266844   6.166   1.083  15.552 -0.2009  0.1792  0.4683
15118TIP3    H166845   6.227   1.132  15.606 -1.0997 -0.1523  1.8293
15118TIP3    H266846   6.218   1.012  15.515  0.4512  0.4652  0.8290
15119TIP3   OH266847   3.372   5.791  14.712  0.2520 -0.2008 -0.7089
15119TIP3    H166848   3.365   5.871  14.765  1.6779 -1.1379  0.9144
15119TIP3    H266849   3.309   5.731  14.751 -0.1769 -0.1920 -1.3777
15120TIP3   OH266850   6.679   3.753   6.194 -0.0845 -0.6171  0.7222
15120TIP3    H166851   6.652   3.823   6.135 -2.1138 -2.5190 -0.6728
15120TIP3    H266852   6.625   3.766   6.272  0.1073 -0.1610  0.7797
15121TIP3   OH266853   2.282   5.831  14.326 -1.0176  0.6343  0.1589
15121TIP3    H166854   2.198   5.875  14.336 -1.4771 -0.5460  1.6037
15121TIP3    H266855   2.346   5.895  14.358 -1.4988  1.0307  0.3324
15122TIP3   OH266856   6.651   1.121  12.510  0.0970  0.2802  0.5216
15122TIP3    H166857   6.591   1.173  12.456 -1.0567 -2.2417 -0.7081
15122TIP3    H266858   6.663   1.173  12.589 -1.6915  2.0321 -0.3196
15123TIP3   OH266859   6.081   4.222   2.957 -0.3711  1.4359 -0.0377
15123TIP3    H166860   6.015   4.234   3.025 -1.5778  0.6753 -1.0512
15123TIP3    H266861   6.122   4.308   2.948 -0.0346  1.4899  1.7924
15124TIP3   OH266862   1.482   6.628   6.266 -0.0215  0.1749 -0.0223
15124TIP3    H166863   1.421   6.699   6.287 -0.9155 -0.1494 -1.5035
15124TIP3    H266864   1.558   6.672   6.229 -0.1254  0.4457  0.0845
15125TIP3   OH266865   2.430   1.934  14.322 -0.0273  0.0276  0.1906
15125TIP3    H166866   2.367   1.902  14.257  1.9064  1.7431 -2.6407
15125TIP3    H266867   2.380   1.941  14.403 -2.1889 -3.4284 -0.7686
15126TIP3   OH266868   5.076   2.301   0.312 -0.3769  0.5309 -0.3732
15126TIP3    H166869   5.076   2.377   0.254 -0.1553  1.1234  0.3891
15126TIP3    H266870   5.000   2.250   0.285 -1.2432  1.6489 -0.1022
15127TIP3   OH266871   5.816   6.215  13.190 -0.3641 -0.2337 -0.1432
15127TIP3    H166872   5.863   6.235  13.109 -1.1946 -0.7894 -0.7712
15127TIP3    H266873   5.729   6.188  13.161 -1.3430  1.5553  1.0498
15128TIP3   OH266874   4.747   4.147  14.419  0.1916  0.6351 -0.5124
15128TIP3    H166875   4.701   4.086  14.476  1.5087 -0.2317 -0.3536
15128TIP3    H266876   4.699   4.229  14.428  0.1531  0.4106  1.5810
15129TIP3   OH266877   5.962   3.855  14.245 -0.3879  0.1625 -0.4451
15129TIP3    H166878   6.043   3.905  14.236  0.1475 -0.5605  0.2782
15129TIP3    H266879   5.979   3.796  14.319 -2.1227  1.0917  0.7268
15130TIP3   OH266880   0.993   4.914  15.808 -0.6404 -0.0034 -0.0712
15130TIP3    H166881   0.953   5.000  15.791  3.1705  1.8432 -0.2090
15130TIP3    H266882   1.030   4.922  15.895  0.8420 -1.0877 -0.5936
15131TIP3   OH266883   5.747   5.427   1.878  0.0963 -0.2608  0.1096
15131TIP3    H166884   5.795   5.354   1.916 -1.6549 -0.9483  1.1001
15131TIP3    H266885   5.760   5.420   1.784  3.3774  0.6426  0.4282
15132TIP3   OH266886   0.473   1.202   0.811 -0.0189  0.0700  0.0081
15132TIP3    H166887   0.561   1.238   0.825  0.0894 -0.0916 -0.2384
15132TIP3    H266888   0.481   1.152   0.730 -0.9863  2.1903 -1.4302
15133TIP3   OH266889   2.698   1.708   0.360 -0.7882  0.2920  0.3185
15133TIP3    H166890   2.792   1.693   0.368 -0.5913 -0.4392 -2.6284
15133TIP3    H266891   2.657   1.632   0.400 -0.0671 -0.5022 -0.4390
15134TIP3   OH266892   0.229   3.515   4.033  0.3790 -0.8555  0.1771
15134TIP3    H166893   0.206   3.442   3.975  0.0637  0.0008 -0.7932
15134TIP3    H266894   0.313   3.491   4.070  0.1234 -1.8690  0.1240
15135TIP3   OH266895   0.354   3.098   5.154  0.7547  0.4552 -0.0235
15135TIP3    H166896   0.322   3.188   5.153  0.6419  0.4135 -0.0809
15135TIP3    H266897   0.402   3.091   5.237 -0.8847 -0.0179  0.8887
15136TIP3   OH266898   0.934   3.432   2.856  0.3590  0.7665  0.0999
15136TIP3    H166899   0.997   3.457   2.924  1.2230  1.0927 -0.8199
15136TIP3    H266900   0.975   3.458   2.774 -1.7136  2.6252 -0.4195
15137TIP3   OH266901   5.829   4.542   0.110 -0.3000 -0.0512  0.0252
15137TIP3    H166902   5.787   4.518   0.193 -0.4236  1.3324  0.3820
15137TIP3    H266903   5.907   4.488   0.106 -0.1679  0.0332  1.1738
15138TIP3   OH266904   5.738   4.944   3.596 -0.3739 -0.1989 -0.3823
15138TIP3    H166905   5.753   4.923   3.688 -2.2089 -0.3047 -0.0901
15138TIP3    H266906   5.742   4.859   3.551 -0.2028 -0.2306 -0.3102
15139TIP3   OH266907   5.299   6.223   5.018 -0.7531  0.0926 -0.2169
15139TIP3    H166908   5.349   6.142   5.007 -0.2586  0.4389 -0.5332
15139TIP3    H266909   5.334   6.262   5.099 -0.6423  0.2387 -0.3351
15140TIP3   OH266910   3.601   2.933   3.999  0.4058 -0.0482 -0.1784
15140TIP3    H166911   3.685   2.891   4.016  0.1507 -0.0777  1.0511
15140TIP3    H266912   3.543   2.900   4.068 -0.6407 -0.0923 -1.0548
15141TIP3   OH266913   1.057   5.950  15.729 -0.2216 -0.4422  0.0344
15141TIP3    H166914   1.122   5.886  15.757  1.4141  1.1361 -0.0444
15141TIP3    H266915   1.090   6.034  15.762 -0.9891  0.7193 -1.9968
15142TIP3   OH266916   1.265   2.252  12.628 -0.3257 -0.0930 -0.5372
15142TIP3    H166917   1.260   2.339  12.588 -0.1178 -0.3615 -1.1569
15142TIP3    H266918   1.342   2.212  12.587  0.5255  0.0339  0.9321
15143TIP3   OH266919   1.678   3.713  13.582 -0.2722  0.4356  0.1397
15143TIP3    H166920   1.610   3.708  13.515  0.3014  0.3669 -0.4455
15143TIP3    H266921   1.632   3.696  13.664 -0.6938 -1.2854 -0.4183
15144TIP3   OH266922   4.233   1.817  15.519  0.3300  0.1501  0.1391
15144TIP3    H166923   4.144   1.784  15.534  0.4159 -0.2339 -0.2121
15144TIP3    H266924   4.234   1.902  15.564 -0.6437  0.8007 -1.0333
15145TIP3   OH266925   0.975   3.907   5.864 -0.0703 -0.2078 -0.2198
15145TIP3    H166926   1.057   3.859   5.850 -1.0081 -1.7396 -0.6290
15145TIP3    H266927   0.937   3.866   5.942 -0.5847  0.3055 -0.2004
15146TIP3   OH266928   1.146   1.105  13.807 -0.1010 -0.6114  0.2666
15146TIP3    H166929   1.144   1.101  13.902  0.7180 -2.2760  0.2425
15146TIP3    H266930   1.130   1.015  13.779  0.3410 -0.2680 -1.1433
15147TIP3   OH266931   3.391   4.291  16.430 -0.0813 -0.1111 -0.3602
15147TIP3    H166932   3.468   4.307  16.377  0.9803 -0.6736  0.9616
15147TIP3    H266933   3.340   4.226  16.381  0.9666 -0.7493 -0.6201
15148TIP3   OH266934   3.816   4.449  17.160 -0.1684 -0.2177 -0.0916
15148TIP3    H166935   3.804   4.357  17.138  1.1802 -0.5838  0.6728
15148TIP3    H266936   3.757   4.464  17.234 -1.4428 -0.0917 -1.1154
15149TIP3   OH266937   5.288   0.726   4.169 -0.5402 -0.3422 -0.2657
15149TIP3    H166938   5.223   0.700   4.234 -1.2580  0.2083 -0.7531
15149TIP3    H266939   5.277   0.821   4.162  0.2669 -0.2552 -0.4137
15150TIP3   OH266940   3.943   3.019   1.698  0.2310 -0.1745  0.2729
15150TIP3    H166941   3.982   2.990   1.780 -0.9538 -0.0538  0.8901
15150TIP3    H266942   4.008   3.078   1.660  0.4269  0.4560  1.5489
15151TIP3   OH266943   3.995   0.809   3.517 -0.0634 -0.4907 -0.3328
15151TIP3    H166944   4.090   0.810   3.505  0.5369 -2.0518  3.4638
15151TIP3    H266945   3.983   0.834   3.609 -3.3928  0.5393 -1.0002
15152TIP3   OH266946   1.838   4.874   0.943 -0.1007  0.2791  0.3317
15152TIP3    H166947   1.921   4.882   0.897 -0.9324  0.7473 -1.1484
15152TIP3    H266948   1.861   4.842   1.030  1.4790 -1.1486 -0.5913
15153TIP3   OH266949   3.419   2.535   5.026 -0.3795  0.7844 -0.5531
15153TIP3    H166950   3.500   2.563   5.069  1.1725 -1.2234 -2.0952
15153TIP3    H266951   3.402   2.448   5.061 -0.3107  0.0414 -2.3070
15154TIP3   OH266952   4.938   2.016  15.505 -0.4069 -0.8250 -0.1171
15154TIP3    H166953   4.888   1.949  15.552 -1.3085 -0.3222 -0.3451
15154TIP3    H266954   4.927   2.095  15.557  0.0516 -0.6818 -0.2372
15155TIP3   OH266955   1.515   1.733   0.509 -0.0054  0.0753 -0.1511
15155TIP3    H166956   1.520   1.758   0.417  1.8239 -1.3874 -0.4833
15155TIP3    H266957   1.518   1.815   0.557  1.7740  0.7139 -1.3213
15156TIP3   OH266958   4.555   5.388   4.874  0.0926 -0.3321  0.0046
15156TIP3    H166959   4.640   5.344   4.883  0.7379  1.0165  0.5460
15156TIP3    H266960   4.514   5.376   4.960  0.7424  1.0837  0.5262
15157TIP3   OH266961   2.802   2.464   3.732  0.0960  0.3379  0.0299
15157TIP3    H166962   2.842   2.453   3.818  0.8176  0.0612 -0.3441
15157TIP3    H266963   2.819   2.555   3.709  1.3705 -0.0478 -0.5651
15158TIP3   OH266964   0.413   5.910  15.887 -0.4210 -0.5516 -0.2441
15158TIP3    H166965   0.404   5.960  15.968 -0.1269 -0.4605 -0.2678
15158TIP3    H266966   0.464   5.967  15.829 -0.4270 -0.7133 -0.4095
15159TIP3   OH266967   3.811   1.949   0.105 -0.6831  1.1719 -0.0682
15159TIP3    H166968   3.905   1.960   0.089 -0.9437  2.8115 -0.5089
15159TIP3    H266969   3.769   2.001   0.036 -1.9342 -0.3354 -0.4643
15160TIP3   OH266970   1.989   5.141  13.803 -0.1858  0.1621  0.5459
15160TIP3    H166971   1.916   5.142  13.865  0.1433 -2.0860  1.0117
15160TIP3    H266972   1.948   5.145  13.717 -0.7195  1.6560  0.8604
15161TIP3   OH266973   5.319   0.853  12.670  0.0767  0.4334  0.3573
15161TIP3    H166974   5.385   0.805  12.720  0.0543 -0.2737 -0.2680
15161TIP3    H266975   5.250   0.872  12.734  1.1656  1.7519  1.1624
15162TIP3   OH266976   5.941   4.446   1.954 -0.6081 -0.3417  0.1739
15162TIP3    H166977   5.982   4.421   2.037 -1.3706 -0.5077  0.5088
15162TIP3    H266978   6.008   4.429   1.888  0.1375  0.1533  0.7946
15163TIP3   OH266979   4.903   4.268  13.645 -0.2205 -0.4608  0.0075
15163TIP3    H166980   4.964   4.213  13.597  0.0217 -1.7788  1.7904
15163TIP3    H266981   4.831   4.210  13.668 -0.0212 -0.0052  1.8047
15164TIP3   OH266982   3.155   0.008   5.370 -0.3591  0.4555 -0.2318
15164TIP3    H166983   3.115   0.051   5.295 -1.0631  1.2224  0.5595
15164TIP3    H266984   3.193   0.080   5.421  0.3003 -0.0772  0.0324
15165TIP3   OH266985   2.325   0.686   0.663  0.1355  0.4336  0.1141
15165TIP3    H166986   2.298   0.733   0.742 -0.1277  1.0114 -0.3128
15165TIP3    H266987   2.419   0.672   0.673  0.7161  3.3502 -0.9373
15166TIP3   OH266988   1.595   6.013  13.521  0.1618  0.2788  0.2274
15166TIP3    H166989   1.519   6.048  13.475  0.1838  1.1928  0.8719
15166TIP3    H266990   1.593   5.919  13.504 -0.1440  0.5307 -1.1625
15167TIP3   OH266991   5.061   4.474   5.381  0.5891 -0.3467 -0.4198
15167TIP3    H166992   5.021   4.561   5.373  0.7726 -0.1276  0.9168
15167TIP3    H266993   5.135   4.476   5.321 -0.8305 -0.4291 -2.2207
15168TIP3   OH266994   0.123   6.258   1.628 -0.5668  0.1143 -0.0640
15168TIP3    H166995   0.096   6.265   1.719  0.8013  1.4506  0.2656
15168TIP3    H266996   0.077   6.181   1.595 -2.2789  0.5065  1.3171
15169TIP3   OH266997   2.405   4.002  11.817  0.0145 -0.0492 -0.0234
15169TIP3    H166998   2.478   3.976  11.761 -0.9792 -0.0478 -1.3187
15169TIP3    H266999   2.442   4.071  11.873  1.7210 -1.8334  1.1310
15170TIP3   OH267000   6.187   4.139   2.040 -0.5585 -0.1664 -0.3813
15170TIP3    H167001   6.280   4.117   2.040 -0.1384  1.3975  2.4985
15170TIP3    H267002   6.151   4.090   2.114 -1.4405  1.3507  0.2222
15171TIP3   OH267003   0.963   2.325   2.370 -0.0113  0.2372 -0.0235
15171TIP3    H167004   0.911   2.325   2.450 -0.3297 -0.5514 -0.2293
15171TIP3    H267005   0.935   2.247   2.323  1.3064 -0.1623 -0.1711
15172TIP3   OH267006   5.903   1.574   2.955 -0.4350 -0.1646  0.0666
15172TIP3    H167007   5.940   1.593   3.041  1.8394 -1.7326 -0.5396
15172TIP3    H267008   5.858   1.655   2.930  1.7052  1.4569  1.2932
15173TIP3   OH267009   0.289   5.312  17.058 -0.3142 -0.3928  0.3910
15173TIP3    H167010   0.202   5.287  17.029 -1.2412  1.6789  1.2702
15173TIP3    H267011   0.345   5.301  16.981 -1.1259 -2.7626  0.1198
15174TIP3   OH267012   0.110   1.367  16.153 -0.0701 -0.8381 -0.4598
15174TIP3    H167013   0.188   1.423  16.155  0.0052 -0.9804  2.8342
15174TIP3    H267014   0.036   1.429  16.157 -0.0293 -0.8696  0.8920
15175TIP3   OH267015   4.500   5.653   0.852  0.1445  0.0408  0.3089
15175TIP3    H167016   4.526   5.601   0.777 -0.9444  0.3110 -0.2683
15175TIP3    H267017   4.410   5.679   0.833 -0.1354  0.1195  1.7034
15176TIP3   OH267018   0.592   0.949  13.369 -0.3016  0.5798  0.0478
15176TIP3    H167019   0.660   1.016  13.359 -0.5821  0.8465 -0.0725
15176TIP3    H267020   0.590   0.931  13.462  1.0750 -0.6120 -0.1351
15177TIP3   OH267021   2.739   3.625  15.744 -0.6814 -0.2879  0.0041
15177TIP3    H167022   2.710   3.642  15.654  1.2052 -0.7236 -0.7017
15177TIP3    H267023   2.685   3.684  15.797  0.8471  2.8415 -1.7621
15178TIP3   OH267024   2.516   1.058  10.728  0.4417  0.2715  0.0175
15178TIP3    H167025   2.606   1.037  10.752 -0.2317  1.4988  3.9776
15178TIP3    H267026   2.464   0.988  10.768 -0.3879 -0.4760 -2.3214
15179TIP3   OH267027   3.938   5.182   5.817 -0.3421 -0.1929 -0.1369
15179TIP3    H167028   3.949   5.157   5.909  0.7268 -0.9371 -0.4544
15179TIP3    H267029   3.951   5.100   5.769 -0.1111  0.3444 -0.9948
15180TIP3   OH267030   4.289   2.336  11.995  0.9090  0.8698  0.3041
15180TIP3    H167031   4.367   2.348  11.941  0.8115  0.4995  0.0820
15180TIP3    H267032   4.278   2.241  12.001 -0.4962  0.9341 -1.0615
15181TIP3   OH267033   2.146   5.295  15.599  0.6294 -0.3771  0.0602
15181TIP3    H167034   2.058   5.259  15.588  0.6972 -0.7657  0.7810
15181TIP3    H267035   2.158   5.301  15.694  0.9820  0.6465 -0.0425
15182TIP3   OH267036   5.033   4.693  16.069  0.0203 -0.6168  0.0919
15182TIP3    H167037   5.108   4.753  16.073  0.0887 -0.7970  2.0416
15182TIP3    H267038   4.959   4.750  16.045  0.0304  0.3434  2.2016
15183TIP3   OH267039   2.734   5.171   3.917 -0.8665  0.0260 -0.0789
15183TIP3    H167040   2.676   5.168   3.842 -0.3982 -0.7942 -0.4226
15183TIP3    H267041   2.758   5.079   3.932 -0.7455  0.2137  0.8945
15184TIP3   OH267042   3.552   2.161  12.328 -0.1193  0.0603  0.4484
15184TIP3    H167043   3.619   2.176  12.394 -0.4646  0.0139  0.8052
15184TIP3    H267044   3.490   2.100  12.369  1.2357 -2.3511 -0.9435
15185TIP3   OH267045   3.429   4.993   5.147  0.1518  0.9934  0.3361
15185TIP3    H167046   3.520   5.004   5.174  0.2598  1.8969 -0.3545
15185TIP3    H267047   3.433   4.936   5.070  0.1948  1.5800 -0.0960
15186TIP3   OH267048   4.044   6.574   6.263 -0.5414 -0.9178 -0.2194
15186TIP3    H167049   4.017   6.662   6.291  0.3951 -0.8144  0.3526
15186TIP3    H267050   3.966   6.520   6.275 -0.8197 -0.3796  0.3821
15187TIP3   OH267051   6.777   6.173   1.038 -0.0058  0.5144  0.4201
15187TIP3    H167052   6.861   6.134   1.014  0.7405  1.9949  0.6056
15187TIP3    H267053   6.779   6.179   1.133 -0.7066 -0.2820  0.4925
15188TIP3   OH267054   5.318   2.098  16.282  0.4079 -0.5009 -0.5652
15188TIP3    H167055   5.331   2.188  16.253 -0.5855  0.3182  1.4435
15188TIP3    H267056   5.281   2.053  16.205 -0.0795  1.0474 -1.2490
15189TIP3   OH267057   1.854   2.026   0.865 -0.0702 -0.1257  0.0092
15189TIP3    H167058   1.818   2.021   0.776  1.8379  1.7939 -0.9251
15189TIP3    H267059   1.825   2.112   0.897  0.9681  0.0661  0.4487
15190TIP3   OH267060   6.154   3.859   4.862  0.5818 -0.0306  0.0876
15190TIP3    H167061   6.193   3.837   4.946 -0.1115 -0.9796  0.1651
15190TIP3    H267062   6.070   3.813   4.862 -0.5349  1.9451 -0.0764
15191TIP3   OH267063   5.574   6.521   2.805  0.1117  0.3359  0.1557
15191TIP3    H167064   5.596   6.570   2.884  1.9521  1.2985 -0.9166
15191TIP3    H267065   5.628   6.560   2.737 -1.6484 -0.2933 -1.6530
15192TIP3   OH267066   1.399   4.672   3.794 -0.0985  0.0983 -0.2594
15192TIP3    H167067   1.324   4.642   3.743  0.8046 -1.5735 -0.6369
15192TIP3    H267068   1.464   4.699   3.728 -0.2612  1.2975  0.0599
15193TIP3   OH267069   4.812   5.368  14.339  0.2712  0.6144  0.0250
15193TIP3    H167070   4.777   5.385  14.251 -2.1583 -2.3518  0.3478
15193TIP3    H267071   4.884   5.307  14.325  0.5011  0.8852  0.0205
15194TIP3   OH267072   2.252   4.602  12.193  0.9500 -0.3138  0.1416
15194TIP3    H167073   2.205   4.663  12.136  0.7316 -1.2240 -0.6580
15194TIP3    H267074   2.284   4.657  12.265 -0.2848  0.5316  0.0654
15195TIP3   OH267075   1.629   2.280   5.951  0.3501 -0.2671 -0.5155
15195TIP3    H167076   1.571   2.314   6.019 -0.2229 -1.9190 -0.1487
15195TIP3    H267077   1.708   2.252   5.998  0.8771  0.6906 -0.8293
15196TIP3   OH267078   6.600   6.114   5.259  0.3229  0.4068  0.1827
15196TIP3    H167079   6.639   6.083   5.341 -0.6971 -1.4536 -0.0060
15196TIP3    H267080   6.652   6.071   5.190 -0.3304  0.0836 -0.1080
15197TIP3   OH267081   2.673   2.189   6.632 -0.2850 -0.1457  0.0771
15197TIP3    H167082   2.597   2.244   6.652 -0.2621 -0.0100 -0.2129
15197TIP3    H267083   2.749   2.242   6.656 -0.2676 -0.1009 -0.0755
15198TIP3   OH267084   6.721   6.586  17.240 -0.5041  0.7134  0.1517
15198TIP3    H167085   6.635   6.604  17.276 -0.6786 -1.0681  0.7019
15198TIP3    H267086   6.770   6.667  17.253 -1.6516  1.2671  1.1749
15199TIP3   OH267087   1.312   0.309  13.543  0.1953  0.2820 -0.0037
15199TIP3    H167088   1.320   0.324  13.449 -0.2181  0.2853 -0.0403
15199TIP3    H267089   1.270   0.223  13.550 -1.6442  1.1690  0.1497
15200TIP3   OH267090   4.822   1.706   2.885  0.5607  0.3747  0.4131
15200TIP3    H167091   4.842   1.678   2.975 -0.6808  1.1864  0.9643
15200TIP3    H267092   4.820   1.801   2.890 -1.2141  0.3863 -0.0745
15201TIP3   OH267093   6.373   2.142   5.473 -0.0090 -0.4128  0.3813
15201TIP3    H167094   6.344   2.094   5.396 -1.6998 -0.2047  0.8758
15201TIP3    H267095   6.334   2.229   5.463 -0.0970 -0.3366  1.3845
15202TIP3   OH267096   4.347   2.761  15.925 -0.7859 -0.3186  0.0894
15202TIP3    H167097   4.357   2.816  16.003 -1.2339  0.2590 -0.2556
15202TIP3    H267098   4.282   2.807  15.872 -0.9708 -1.0538 -0.3208
15203TIP3   OH267099   0.818   4.580  12.363 -0.1244 -0.2204  0.4352
15203TIP3    H167100   0.892   4.522  12.379 -0.0450 -0.2934 -0.1837
15203TIP3    H267101   0.838   4.660  12.411  0.4277 -0.1845  0.1397
15204TIP3   OH267102   5.304   2.357  10.705  0.1125  0.1014 -0.4686
15204TIP3    H167103   5.288   2.448  10.680 -0.3444 -0.5188 -2.5466
15204TIP3    H267104   5.232   2.308  10.665 -2.4373 -0.6562  4.5624
15205TIP3   OH267105   0.959   0.127  12.151  0.2247  0.6529  0.9298
15205TIP3    H167106   0.912   0.067  12.208  0.6309  0.6126  1.2243
15205TIP3    H267107   0.965   0.208  12.201  1.1882  0.4044  1.2308
15206TIP3   OH267108   6.300   0.923  13.415 -0.2525  0.2484 -0.4014
15206TIP3    H167109   6.312   0.996  13.354  2.1559 -0.2715 -0.5808
15206TIP3    H267110   6.303   0.845  13.360 -3.2705 -0.0095 -0.2632
15207TIP3   OH267111   3.605   4.931  13.137  0.1826 -0.1465 -0.7835
15207TIP3    H167112   3.650   4.860  13.183 -0.6635 -0.6840 -0.7840
15207TIP3    H267113   3.654   5.010  13.161 -0.2448 -0.4197  1.0189
15208TIP3   OH267114   3.545   4.741   0.006 -0.5334 -0.0136 -0.4913
15208TIP3    H167115   3.462   4.694  -0.002 -0.0695 -0.6111 -1.9527
15208TIP3    H267116   3.610   4.673   0.021  0.0199  0.2246 -1.7550
15209TIP3   OH267117   2.599   0.611  11.840  0.5139  0.5709 -0.2353
15209TIP3    H167118   2.508   0.613  11.808  1.1693 -1.5689 -2.3559
15209TIP3    H267119   2.593   0.568  11.926 -0.4965  0.6383 -0.2640
15210TIP3   OH267120   4.400   5.912   5.945  0.1216  0.3143  0.1556
15210TIP3    H167121   4.443   5.997   5.942  0.5084  0.1531  1.2613
15210TIP3    H267122   4.309   5.932   5.968 -0.2826  0.5990 -1.5943
15211TIP3   OH267123   3.696   6.379  15.323  0.1139 -0.1455 -0.0199
15211TIP3    H167124   3.621   6.335  15.282  0.0676  0.0710 -0.1681
15211TIP3    H267125   3.685   6.471  15.299  0.0875 -0.0161  0.4794
15212TIP3   OH267126   4.672   6.686  16.300  0.6509  0.0497 -0.1037
15212TIP3    H167127   4.725   6.752  16.255  1.9589 -1.3309 -0.6576
15212TIP3    H267128   4.609   6.736  16.351  2.1002  1.7365  0.0951
15213TIP3   OH267129   6.020   2.160   4.104  0.4054 -0.3862 -0.1564
15213TIP3    H167130   6.004   2.087   4.045  0.4404  0.2309 -0.9375
15213TIP3    H267131   6.113   2.153   4.127  1.1661  1.1189 -2.5931
15214TIP3   OH267132   2.231   3.046   6.531 -0.1535  0.3373 -0.5642
15214TIP3    H167133   2.293   3.021   6.463 -0.5714 -0.6165 -0.5994
15214TIP3    H267134   2.253   3.137   6.551  0.9746  0.1372 -0.8759
15215TIP3   OH267135   0.783   3.002  16.318  0.4305  0.3847 -0.3615
15215TIP3    H167136   0.871   3.023  16.349  0.4246 -0.8007  0.4969
15215TIP3    H267137   0.796   2.978  16.227  1.1087 -0.4872 -0.0449
15216TIP3   OH267138   5.048   6.099   1.512 -0.2860 -0.0046 -0.7252
15216TIP3    H167139   4.984   6.063   1.451 -1.0833  0.0925  0.0385
15216TIP3    H267140   5.045   6.041   1.587  0.4692  0.0521 -0.6437
15217TIP3   OH267141   1.820   1.155  16.993 -0.4215 -0.1790 -1.5565
15217TIP3    H167142   1.757   1.092  16.957 -1.4639  0.8240 -1.5307
15217TIP3    H267143   1.845   1.119  17.078 -3.1766  0.8119 -0.2497
15218TIP3   OH267144   2.683   1.775  14.639  0.6609 -0.0913 -0.2278
15218TIP3    H167145   2.658   1.801  14.728  0.0781  2.0919 -1.0089
15218TIP3    H267146   2.673   1.680  14.638  1.3153 -0.2195  2.2410
15219TIP3   OH267147   3.689   4.651  16.499  0.1653 -0.0033  0.2113
15219TIP3    H167148   3.723   4.719  16.557  1.2049 -2.1136  2.1714
15219TIP3    H267149   3.599   4.638  16.527  0.6808 -1.0581  1.4677
15220TIP3   OH267150   4.097   6.211  11.167 -0.6107 -0.2930  0.4651
15220TIP3    H167151   4.192   6.214  11.166 -0.6079  0.0489  1.1503
15220TIP3    H267152   4.070   6.264  11.092 -0.2500 -1.3423 -0.4083
15221TIP3   OH267153   4.676   4.806   1.437  0.4369  0.6411 -0.4333
15221TIP3    H167154   4.607   4.861   1.399  0.3615 -0.0087 -1.2545
15221TIP3    H267155   4.639   4.718   1.437  0.6498  0.5429  0.6582
15222TIP3   OH267156   6.793   0.192   3.502 -0.4291  0.2081 -0.0914
15222TIP3    H167157   6.735   0.250   3.453 -0.0331  0.1381 -0.6434
15222TIP3    H267158   6.860   0.249   3.539 -1.8263  0.5482  2.0359
15223TIP3   OH267159   4.592   3.698   0.641  0.3602  0.1512  0.6008
15223TIP3    H167160   4.571   3.726   0.730 -0.2215 -1.0453  0.8591
15223TIP3    H267161   4.595   3.602   0.647 -2.3397 -0.1084 -1.2010
15224TIP3   OH267162   1.323   2.631  10.279  0.0599  0.2321 -0.0719
15224TIP3    H167163   1.266   2.560  10.309  0.6127 -0.4284 -0.5545
15224TIP3    H267164   1.276   2.711  10.302 -1.3456 -0.3100 -1.0041
15225TIP3   OH267165   5.109   1.921   2.267 -0.0276 -0.2243 -0.1282
15225TIP3    H167166   5.066   1.892   2.187  1.6642  1.2825 -1.6289
15225TIP3    H267167   5.043   1.911   2.335 -1.6321 -1.1125 -1.7923
15226TIP3   OH267168   6.139   4.430   1.766  0.3448  0.0751  0.1557
15226TIP3    H167169   6.075   4.426   1.696  0.4118  1.0478  0.0251
15226TIP3    H267170   6.166   4.522   1.768  2.1224 -0.4221 -0.1429
15227TIP3   OH267171   4.098   4.010  14.046  0.1012 -0.1238  0.7602
15227TIP3    H167172   4.137   4.012  13.959  1.6504  0.4604  1.4418
15227TIP3    H267173   4.172   3.998  14.105 -1.0074 -1.2281  1.9607
15228TIP3   OH267174   6.170   4.810  15.137  0.4917 -0.2797 -0.0053
15228TIP3    H167175   6.244   4.870  15.146 -0.0556  0.6791 -1.7680
15228TIP3    H267176   6.130   4.833  15.053 -0.0809 -2.7313 -0.4417
15229TIP3   OH267177   3.543   3.913  10.747  0.3103 -0.1994 -0.1773
15229TIP3    H167178   3.501   3.970  10.682  0.0610 -1.1545 -0.8532
15229TIP3    H267179   3.606   3.970  10.791 -0.0953  0.6636 -0.6951
15230TIP3   OH267180   2.226   0.438  16.493  0.2699 -0.1463  0.7753
15230TIP3    H167181   2.315   0.472  16.495  0.6708 -1.2240  1.1727
15230TIP3    H267182   2.191   0.456  16.581  0.2520 -0.1619  0.7709
15231TIP3   OH267183   4.056   6.128   0.574 -0.2822 -0.0423 -0.1900
15231TIP3    H167184   3.965   6.144   0.600 -0.1240 -1.6613  1.5188
15231TIP3    H267185   4.105   6.131   0.656  1.1177  0.1769 -1.0166
15232TIP3   OH267186   3.695   5.213  16.423 -0.5405  0.1852  0.2524
15232TIP3    H167187   3.728   5.127  16.396  0.5101  1.0226 -1.1440
15232TIP3    H267188   3.674   5.202  16.516  1.3535 -1.0555  0.5608
15233TIP3   OH267189   4.916   5.650  11.925 -0.0969  0.2433  0.4635
15233TIP3    H167190   4.846   5.715  11.932 -1.4271 -1.2142  1.1850
15233TIP3    H267191   4.869   5.566  11.919  1.5714 -0.6513 -0.4433
15234TIP3   OH267192   4.604   0.673  16.571 -0.1403 -0.7190  0.4847
15234TIP3    H167193   4.561   0.747  16.613  0.0089 -0.2959 -0.1051
15234TIP3    H267194   4.630   0.616  16.643 -1.9700 -1.1445  0.8360
15235TIP3   OH267195   3.084   2.458  16.506 -0.0171 -0.1137 -0.5567
15235TIP3    H167196   3.028   2.536  16.510 -0.2119 -0.1540 -2.2373
15235TIP3    H267197   3.048   2.399  16.571 -0.0229  1.0936  0.5714
15236TIP3   OH267198   3.114   2.258  12.556 -0.5806 -0.5268 -0.1332
15236TIP3    H167199   3.104   2.347  12.591  1.2334 -0.7705  1.0273
15236TIP3    H267200   3.115   2.201  12.633 -0.9151 -1.4951 -0.8287
15237TIP3   OH267201   1.699   4.354   1.513  0.3686 -0.3063  0.1112
15237TIP3    H167202   1.791   4.336   1.532  0.6026  1.3105  0.5464
15237TIP3    H267203   1.697   4.371   1.419  0.7460  0.9956  0.3284
15238TIP3   OH267204   1.158   2.490  14.080  0.3349  0.3344 -0.2663
15238TIP3    H167205   1.217   2.517  14.009 -0.1700  1.3278 -0.3253
15238TIP3    H267206   1.075   2.473  14.036  0.6823 -1.5226 -0.2508
15239TIP3   OH267207   0.468   0.117  14.178 -0.3722 -0.2712 -0.0197
15239TIP3    H167208   0.411   0.048  14.145  0.5617 -0.8576 -0.4418
15239TIP3    H267209   0.555   0.077  14.181  0.0321  0.6214  0.5591
15240TIP3   OH267210   5.338   2.130  17.162 -0.5649 -0.2138  0.0698
15240TIP3    H167211   5.387   2.138  17.080 -1.4136 -1.7186 -0.5846
15240TIP3    H267212   5.247   2.142  17.137 -0.7207  0.5622  0.9927
15241TIP3   OH267213   3.705   6.207   5.558  0.2212 -0.1921  0.1328
15241TIP3    H167214   3.657   6.189   5.477  1.1040 -1.6459 -0.0891
15241TIP3    H267215   3.641   6.251   5.614 -0.1926  1.5256 -1.6036
15242TIP3   OH267216   0.475   1.190  15.785  0.1299  0.0853 -0.6432
15242TIP3    H167217   0.506   1.120  15.728  1.5741 -2.7331  3.3949
15242TIP3    H267218   0.540   1.196  15.854 -2.0468  2.6738  1.3211
15243TIP3   OH267219   5.372   4.839   4.243 -0.0412 -0.5737 -0.0992
15243TIP3    H167220   5.431   4.901   4.287  1.7094 -1.0777 -1.6537
15243TIP3    H267221   5.341   4.887   4.166  1.2744 -1.5908 -1.2752
15244TIP3   OH267222   1.117   1.176  14.623  0.0349  0.6579 -0.0806
15244TIP3    H167223   1.156   1.194  14.709 -0.5417  2.5632 -0.1903
15244TIP3    H267224   1.192   1.159  14.566  0.4606  0.1384  0.6146
15245TIP3   OH267225   6.563   5.376  16.596  0.0378  0.3640 -0.1481
15245TIP3    H167226   6.553   5.406  16.686 -0.5382  0.5415 -0.2691
15245TIP3    H267227   6.626   5.304  16.602 -0.3431  0.0731  0.4636
15246TIP3   OH267228   5.264   0.654  14.537 -0.8102  0.2560  0.3286
15246TIP3    H167229   5.226   0.711  14.604 -1.0328 -1.0388  1.3216
15246TIP3    H267230   5.358   0.665  14.547 -0.8570  0.7748  0.2269
15247TIP3   OH267231   2.244   0.795   2.864 -0.5134  0.0621  0.4217
15247TIP3    H167232   2.245   0.718   2.922 -0.0440 -0.7350 -0.6324
15247TIP3    H267233   2.316   0.781   2.803 -1.0709  0.8359 -0.4372
15248TIP3   OH267234   0.764   1.792   2.778  0.3106  0.1669  0.1192
15248TIP3    H167235   0.782   1.703   2.746  0.7216  0.1675  0.3540
15248TIP3    H267236   0.754   1.844   2.698 -0.6777 -0.2371 -0.0336
15249TIP3   OH267237   1.655   4.946   2.015  0.5720 -0.1959  0.1071
15249TIP3    H167238   1.704   5.012   1.966  1.5885 -0.8149  0.2783
15249TIP3    H267239   1.619   4.887   1.948  2.1474 -1.1730  0.0945
15250TIP3   OH267240   5.559   2.229  13.615 -0.3339 -0.3572 -0.7364
15250TIP3    H167241   5.651   2.251  13.628  0.1919 -2.1107 -1.3862
15250TIP3    H267242   5.557   2.178  13.534 -2.0622  0.8082 -1.4569
15251TIP3   OH267243   2.192   5.605   4.432  0.2503  0.0548 -0.3564
15251TIP3    H167244   2.253   5.678   4.444  0.5989 -0.0606 -1.3694
15251TIP3    H267245   2.107   5.647   4.420 -0.2395  0.1600  3.0376
15252TIP3   OH267246   6.285   1.740   3.616  0.2199  0.0513  0.1123
15252TIP3    H167247   6.293   1.789   3.698 -1.5298  1.2378 -0.3866
15252TIP3    H267248   6.364   1.686   3.612  0.2501 -0.1398  2.6447
15253TIP3   OH267249   3.403   1.134   2.348 -0.1271  0.6119  0.3572
15253TIP3    H167250   3.369   1.050   2.316 -1.8715  1.5913 -0.4828
15253TIP3    H267251   3.333   1.168   2.405 -0.0998  2.1360 -0.4729
15254TIP3   OH267252   5.502   6.344  13.456  0.1624  0.6138 -0.1466
15254TIP3    H167253   5.507   6.430  13.414 -0.7647  1.0781  0.6764
15254TIP3    H267254   5.478   6.363  13.547 -1.1734 -0.5800 -0.2402
15255TIP3   OH267255   4.938   4.403  14.936 -0.4796  0.5022 -0.2231
15255TIP3    H167256   4.868   4.459  14.970 -0.9011 -0.4286  0.4723
15255TIP3    H267257   4.896   4.349  14.869  0.0170  1.2935 -1.1818
15256TIP3   OH267258   1.750   2.508  14.320  0.3127 -0.0053 -0.0800
15256TIP3    H167259   1.685   2.530  14.254  0.5815 -0.3407 -0.4573
15256TIP3    H267260   1.703   2.454  14.383  0.6239 -1.5962 -1.2018
15257TIP3   OH267261   1.346   4.667  14.403  0.8020  0.0953  0.4617
15257TIP3    H167262   1.319   4.754  14.433 -0.9705 -0.6575  1.1191
15257TIP3    H267263   1.265   4.618  14.396  1.6287 -1.0738 -1.3914
15258TIP3   OH267264   0.227   2.286  15.438  0.5878 -0.0474  0.2291
15258TIP3    H167265   0.277   2.228  15.496  1.9802  0.1964 -0.7024
15258TIP3    H267266   0.156   2.231  15.406  1.0006 -0.7917  0.5616
15259TIP3   OH267267   6.197   6.062   4.190  0.1485 -0.2185 -0.7231
15259TIP3    H167268   6.281   6.099   4.219 -0.1231 -0.3654  0.2665
15259TIP3    H267269   6.205   5.968   4.204 -1.4647  0.0971  2.8009
15260TIP3   OH267270   0.985   2.534   6.636 -0.4483  0.6400 -0.3664
15260TIP3    H167271   1.047   2.495   6.574  0.0552  0.6437  0.1295
15260TIP3    H267272   1.033   2.606   6.676  0.4698 -1.5167  2.5627
15261TIP3   OH267273   3.411   2.646   4.388  0.1489  0.5863  0.0490
15261TIP3    H167274   3.402   2.655   4.483  0.0478  1.4162 -0.0405
15261TIP3    H267275   3.346   2.579   4.365  0.0089  0.5515  0.5281
15262TIP3   OH267276   5.024   5.787  13.632  0.1447  0.0285 -0.4054
15262TIP3    H167277   4.950   5.727  13.634 -2.1731  2.7840 -0.8287
15262TIP3    H267278   5.062   5.776  13.545  0.7626 -1.9532  0.0924
15263TIP3   OH267279   1.698   3.214  12.730  0.6485  0.4870  0.5653
15263TIP3    H167280   1.663   3.181  12.646  1.1761 -0.1833  0.6049
15263TIP3    H267281   1.733   3.136  12.773  0.5652  0.8648  1.3284
15264TIP3   OH267282   3.332   5.432   0.610 -0.3530  0.2112  0.7134
15264TIP3    H167283   3.421   5.396   0.607 -0.7896 -0.8916  0.7810
15264TIP3    H267284   3.338   5.507   0.669  1.1447  1.8825 -1.4501
15265TIP3   OH267285   0.785   2.603   6.249 -0.3964  0.1570 -0.0203
15265TIP3    H167286   0.796   2.696   6.229 -0.3693  0.1906  0.1492
15265TIP3    H267287   0.766   2.601   6.342 -0.8247  0.0249 -0.1092
15266TIP3   OH267288   1.372   6.743  17.168  0.2206 -0.0243  0.1437
15266TIP3    H167289   1.285   6.777  17.190 -0.1028 -1.1033  0.6021
15266TIP3    H267290   1.427   6.820  17.160 -0.4281  0.5995  1.4636
15267TIP3   OH267291   0.532   2.478  11.042 -0.0869 -0.2081 -0.0040
15267TIP3    H167292   0.478   2.399  11.049  0.4098 -0.5069  0.4918
15267TIP3    H267293   0.535   2.496  10.948 -2.5252  0.8419  0.0772
15268TIP3   OH267294   4.658   4.714   2.575 -0.6076 -0.3935  0.2002
15268TIP3    H167295   4.597   4.709   2.649  0.2587  0.5319  1.0015
15268TIP3    H267296   4.669   4.808   2.561 -0.2916 -0.5699 -0.7130
15269TIP3   OH267297   1.182   3.179   5.248  0.3388 -0.2504 -0.3895
15269TIP3    H167298   1.176   3.250   5.184  2.7947  1.1993  0.9207
15269TIP3    H267299   1.122   3.205   5.319  1.9661  1.0606  0.5441
15270TIP3   OH267300   4.706   2.481  14.298  0.0946 -0.5188  0.3079
15270TIP3    H167301   4.700   2.574  14.322  1.4446  0.2217 -2.0619
15270TIP3    H267302   4.748   2.440  14.373  1.3786  1.1570  0.5452
15271TIP3   OH267303   1.446   4.284   0.544 -0.4582 -0.3127  0.1435
15271TIP3    H167304   1.424   4.295   0.452  1.0475  0.8242 -0.1083
15271TIP3    H267305   1.440   4.373   0.581  0.6677 -0.4665  0.7186
15272TIP3   OH267306   1.876   6.231  16.127 -0.5114  0.3484 -0.2270
15272TIP3    H167307   1.904   6.157  16.074  0.0017  0.3622  0.0205
15272TIP3    H267308   1.780   6.230  16.121 -0.5631 -0.9108  0.5411
15273TIP3   OH267309   6.126   4.407   3.734  0.1627 -0.5464 -0.3539
15273TIP3    H167310   6.174   4.419   3.816 -1.3938 -0.8304  0.6228
15273TIP3    H267311   6.176   4.456   3.669 -0.1481  2.0980  1.3404
15274TIP3   OH267312   2.800   2.437   2.251  0.0608  0.2626 -0.2140
15274TIP3    H167313   2.788   2.504   2.319 -0.7831  2.0933 -2.1073
15274TIP3    H267314   2.725   2.378   2.262 -1.0451  1.5661 -0.6774
15275TIP3   OH267315   1.101   5.365  11.952  0.5093 -0.2691 -0.2257
15275TIP3    H167316   1.182   5.415  11.940 -0.1206  0.8220 -0.0028
15275TIP3    H267317   1.092   5.315  11.871  2.2679 -1.6910  0.4045
15276TIP3   OH267318   6.695   0.401  17.178 -0.7413  0.6532 -0.2866
15276TIP3    H167319   6.615   0.381  17.228 -0.2061 -0.4392  0.1562
15276TIP3    H267320   6.683   0.356  17.095 -1.5286  2.2788 -1.0722
15277TIP3   OH267321   4.242   1.748   5.838  0.1985 -0.3257 -0.0545
15277TIP3    H167322   4.244   1.664   5.793 -0.0863 -1.2100  1.5576
15277TIP3    H267323   4.191   1.733   5.917  1.6085  0.9052  1.1477
15278TIP3   OH267324   5.518   3.333   6.277 -0.6679  0.1605  0.4220
15278TIP3    H167325   5.567   3.335   6.359  0.1568 -1.8285  0.0157
15278TIP3    H267326   5.442   3.278   6.295 -0.1839 -0.7591 -0.2845
15279TIP3   OH267327   5.252   1.683   2.782 -0.0225  0.9956  0.3315
15279TIP3    H167328   5.164   1.660   2.751  0.3856  1.2684 -1.0532
15279TIP3    H267329   5.245   1.678   2.877 -1.7363  1.7165  0.2721
15280TIP3   OH267330   4.526   3.061  15.540 -0.2753 -0.2564  0.1151
15280TIP3    H167331   4.621   3.071  15.546  0.1896 -3.4605 -0.7670
15280TIP3    H267332   4.494   3.089  15.625  1.4649  0.7067  0.4856
15281TIP3   OH267333   4.421   0.529  17.203  0.3386  0.1174 -0.7864
15281TIP3    H167334   4.434   0.435  17.216  1.8515  0.4024 -0.1281
15281TIP3    H267335   4.459   0.547  17.117  0.0914  0.1397 -0.8911
15282TIP3   OH267336   2.228   0.388   4.447  0.4388  0.0654 -0.0897
15282TIP3    H167337   2.208   0.478   4.421 -2.1281 -0.3142  0.4889
15282TIP3    H267338   2.187   0.378   4.533 -0.7922 -2.1974 -0.9058
15283TIP3   OH267339   6.644   3.885   5.887 -0.4570 -0.0981 -0.1072
15283TIP3    H167340   6.698   3.825   5.836  0.1736  1.8353 -1.7850
15283TIP3    H267341   6.661   3.971   5.849 -1.6632  1.1045  1.9571
15284TIP3   OH267342   4.736   6.017  16.398 -0.2821 -0.4550 -0.1703
15284TIP3    H167343   4.748   6.013  16.303  0.2624 -1.2933 -0.0717
15284TIP3    H267344   4.698   5.933  16.421  0.3513 -0.5735  0.4615
15285TIP3   OH267345   5.558   5.017  11.469 -0.1181  0.2662  0.2297
15285TIP3    H167346   5.504   5.032  11.392 -0.3755 -0.5088  0.2600
15285TIP3    H267347   5.647   5.015  11.436 -0.1072  1.3766  0.1542
15286TIP3   OH267348   2.851   1.584  13.464 -0.6295  0.6836  0.3949
15286TIP3    H167349   2.915   1.539  13.519 -0.5419 -1.2794 -1.2487
15286TIP3    H267350   2.766   1.561  13.500 -0.5653 -0.4758 -0.1797
15287TIP3   OH267351   6.697   3.173   3.069 -0.6058  0.1045 -0.1124
15287TIP3    H167352   6.775   3.229   3.074 -0.8145  0.7779 -3.2487
15287TIP3    H267353   6.635   3.223   3.016 -1.9278 -1.8289 -0.4511
15288TIP3   OH267354   5.969   2.109   6.583 -0.0963 -0.4486  0.6378
15288TIP3    H167355   6.037   2.137   6.644  1.8414 -0.7553 -1.2717
15288TIP3    H267356   5.916   2.187   6.567 -1.6695 -0.7931  3.9503
15289TIP3   OH267357   5.524   6.244  13.792 -0.0945  0.5928  0.1741
15289TIP3    H167358   5.531   6.335  13.821 -2.1867  0.6747  0.5263
15289TIP3    H267359   5.555   6.193  13.866  2.7445  1.0369 -0.6554
15290TIP3   OH267360   4.613   1.409   0.912  0.4894 -0.1441 -0.2403
15290TIP3    H167361   4.663   1.392   0.833 -0.5598 -0.9315 -0.7529
15290TIP3    H267362   4.572   1.325   0.933 -0.6123  0.4791  0.1636
15291TIP3   OH267363   0.682   5.021  12.831 -0.0075 -0.2453  0.2393
15291TIP3    H167364   0.621   4.956  12.866  0.3433 -0.5919  0.2017
15291TIP3    H267365   0.628   5.074  12.773 -0.5638  0.2285  1.1602
15292TIP3   OH267366   4.635   5.221  13.429 -0.0195 -0.2559  0.5659
15292TIP3    H167367   4.570   5.152  13.443 -2.6838  2.4324  2.0507
15292TIP3    H267368   4.677   5.232  13.514  0.4414 -0.1381  0.3198
15293TIP3   OH267369   2.821   6.744   0.912  0.0547 -0.0962  0.5003
15293TIP3    H167370   2.743   6.781   0.954  0.2981  0.9333  0.0627
15293TIP3    H267371   2.890   6.809   0.928  0.5851 -0.5530  0.0735
15294TIP3   OH267372   1.229   1.307   0.630  0.7676  0.1146 -0.3351
15294TIP3    H167373   1.158   1.364   0.661  0.8744  0.8120 -1.3399
15294TIP3    H267374   1.292   1.368   0.590  2.7886 -0.2945  2.1105
15295TIP3   OH267375   3.215   1.411  16.478  0.3142 -0.0101 -0.0885
15295TIP3    H167376   3.171   1.404  16.563  0.3078  0.3044 -0.0667
15295TIP3    H267377   3.306   1.433  16.500  0.1338  0.8368 -0.1951
15296TIP3   OH267378   4.202   6.205   0.816  0.3038 -0.0518 -0.8358
15296TIP3    H167379   4.296   6.217   0.826 -0.1279  1.5715  1.8404
15296TIP3    H267380   4.185   6.119   0.855  0.6054 -0.1133 -0.8400
15297TIP3   OH267381   2.502   5.833   2.011 -0.4510 -0.5641 -0.0774
15297TIP3    H167382   2.525   5.772   2.081 -0.5342  1.3712  1.6765
15297TIP3    H267383   2.548   5.914   2.033 -1.2180  0.3748 -1.7822
15298TIP3   OH267384   0.991   4.835  12.745  0.3817  0.2106  0.9623
15298TIP3    H167385   0.982   4.753  12.794  0.7905  0.2926  1.1853
15298TIP3    H267386   0.936   4.824  12.668 -1.1606  0.5024  1.9899
15299TIP3   OH267387   4.326   4.771  14.352 -0.0967 -0.7216  0.0943
15299TIP3    H167388   4.386   4.763  14.426  0.8223 -1.3183 -0.6993
15299TIP3    H267389   4.383   4.776  14.276 -0.9959  1.2372 -0.4825
15300TIP3   OH267390   3.758   0.791  15.829 -0.0932  0.3734 -0.3181
15300TIP3    H167391   3.722   0.880  15.836  0.0993  0.4416 -0.1953
15300TIP3    H267392   3.847   0.798  15.863 -0.3315 -0.0269  0.3945
15301TIP3   OH267393   0.650   1.568   6.144 -0.0931  0.4424  0.1254
15301TIP3    H167394   0.628   1.515   6.221  2.4434 -0.9467 -0.0425
15301TIP3    H267395   0.667   1.655   6.178 -0.6935  0.2661  0.8940
15302TIP3   OH267396   4.275   3.199   5.030  0.6138 -0.7106  0.3406
15302TIP3    H167397   4.223   3.214   5.109  0.1642 -2.2469  0.3707
15302TIP3    H267398   4.339   3.270   5.028 -0.6468  0.4609  1.0220
15303TIP3   OH267399   4.161   4.541   4.706  0.0452 -0.3273 -0.9745
15303TIP3    H167400   4.070   4.531   4.678  0.3797  0.3730 -2.3770
15303TIP3    H267401   4.155   4.586   4.790 -0.9137 -0.7057 -0.8243
15304TIP3   OH267402   0.442   6.435  10.700 -0.8144  0.0837 -0.3371
15304TIP3    H167403   0.397   6.509  10.659 -0.2394  0.0361 -1.0719
15304TIP3    H267404   0.418   6.359  10.647 -2.0593 -0.3975  0.9084
15305TIP3   OH267405   0.787   4.054   5.759  0.1000 -0.0427  0.2658
15305TIP3    H167406   0.862   3.996   5.769 -0.3003 -0.7375 -0.6074
15305TIP3    H267407   0.730   4.033   5.833  0.5872  0.2019  0.7061
15306TIP3   OH267408   1.293   3.814   4.103 -0.4369  0.0567 -0.2687
15306TIP3    H167409   1.346   3.894   4.100  2.3898 -1.7225  0.1450
15306TIP3    H267410   1.318   3.773   4.186 -0.9916 -1.8078 -1.0137
15307TIP3   OH267411   6.468   2.925   3.856  0.4850 -0.0831  0.2358
15307TIP3    H167412   6.385   2.933   3.902  0.6241  1.0414  0.3020
15307TIP3    H267413   6.461   2.986   3.783  1.4299  0.3775  0.5160
15308TIP3   OH267414   2.743   2.561  16.219 -0.3761  0.0766  0.1985
15308TIP3    H167415   2.790   2.545  16.137  0.2294  0.4365  0.4738
15308TIP3    H267416   2.655   2.588  16.191 -0.0367  0.6366 -0.3401
15309TIP3   OH267417   6.724   4.109  14.231 -0.5182  0.0574 -0.2465
15309TIP3    H167418   6.687   4.174  14.291  0.7460 -0.5471  1.2371
15309TIP3    H267419   6.800   4.153  14.193 -1.1484  0.3352 -1.1918
15310TIP3   OH267420   1.906   1.793  14.249 -0.6471 -0.1835  0.1347
15310TIP3    H167421   1.831   1.740  14.275 -1.8407  1.4007 -0.0281
15310TIP3    H267422   1.940   1.827  14.331  1.0121 -2.3074  0.3854
15311TIP3   OH267423   5.991   2.839  13.123  0.2477  0.2671 -0.3709
15311TIP3    H167424   6.048   2.845  13.046 -0.7268  1.9447 -0.9836
15311TIP3    H267425   5.906   2.816  13.087  0.1879 -0.7308  0.4015
15312TIP3   OH267426   5.747   0.172  16.985  0.3366  0.2382  0.0281
15312TIP3    H167427   5.763   0.081  16.958  0.6774  0.0781  0.7190
15312TIP3    H267428   5.828   0.217  16.963  0.3029  0.2909  0.0133
15313TIP3   OH267429   6.756   2.923  15.439  0.2489 -0.0790  0.1624
15313TIP3    H167430   6.717   2.879  15.515 -0.1672  1.4728  0.8714
15313TIP3    H267431   6.840   2.956  15.472  0.4555 -0.1455 -0.3002
15314TIP3   OH267432   0.922   4.030   2.749  0.1625  0.2547  0.2645
15314TIP3    H167433   0.889   4.065   2.666  0.3135  0.5235  0.3158
15314TIP3    H267434   0.987   4.094   2.777  1.5629 -0.8424 -0.4146
15315TIP3   OH267435   3.768   3.794   4.626  0.0121  0.1952 -0.5220
15315TIP3    H167436   3.841   3.837   4.581  1.2106 -2.5650 -1.3274
15315TIP3    H267437   3.699   3.861   4.630  2.7810  3.0783  0.8549
15316TIP3   OH267438   4.822   4.087   1.405  0.3851 -0.0305 -0.2836
15316TIP3    H167439   4.829   3.997   1.436 -1.3024 -0.9155 -2.3688
15316TIP3    H267440   4.839   4.141   1.483 -2.2898 -2.1619  1.8572
15317TIP3   OH267441   5.854   5.866   5.670  0.4098 -0.0191  0.1552
15317TIP3    H167442   5.913   5.938   5.693 -0.2113  0.5321  0.0475
15317TIP3    H267443   5.817   5.837   5.753  0.2555  0.1389  0.1408
15318TIP3   OH267444   4.828   1.200  14.337 -0.1360 -0.3212 -0.0472
15318TIP3    H167445   4.745   1.216  14.292 -0.7596  1.3100  1.6195
15318TIP3    H267446   4.807   1.204  14.430  2.0882  1.8271  0.4347
15319TIP3   OH267447   2.976   2.030   0.805 -0.4774  0.0756  1.2604
15319TIP3    H167448   2.896   2.071   0.840 -0.9573  0.2595 -0.0152
15319TIP3    H267449   2.955   2.011   0.713  0.0273 -2.2710  1.5854
15320TIP3   OH267450   5.157   6.444   3.217  0.0562  0.1104 -0.3342
15320TIP3    H167451   5.184   6.374   3.157 -1.7698  0.7688 -1.9682
15320TIP3    H267452   5.120   6.398   3.293  0.2264 -0.7005 -0.7411
15321TIP3   OH267453   4.946   0.200   1.327  0.5450 -0.2221  0.6028
15321TIP3    H167454   4.965   0.149   1.406 -1.9996 -0.2369  1.2426
15321TIP3    H267455   5.026   0.193   1.274  2.6437  0.5520  3.5422
15322TIP3   OH267456   5.936   6.494   2.140  0.1479 -0.4420  0.0766
15322TIP3    H167457   5.931   6.452   2.055  2.4664  1.1710 -0.9151
15322TIP3    H267458   6.028   6.521   2.148 -0.5445  1.4607  2.0826
15323TIP3   OH267459   2.443   1.112  14.391  0.2828 -0.1813 -0.1450
15323TIP3    H167460   2.494   1.033  14.372  1.3746  0.5709 -0.4278
15323TIP3    H267461   2.417   1.145  14.305  1.1120  0.5716 -0.1253
15324TIP3   OH267462   5.071   3.361  17.160 -0.0414 -0.5127 -0.6275
15324TIP3    H167463   5.006   3.357  17.231 -0.4744  0.0799 -0.9893
15324TIP3    H267464   5.155   3.356  17.205 -0.2991  0.3575 -0.0237
15325TIP3   OH267465   3.831   2.180  13.111  0.2133 -0.1111  0.0954
15325TIP3    H167466   3.901   2.226  13.066 -0.1597  1.5058  1.1078
15325TIP3    H267467   3.762   2.245  13.121 -1.6369 -1.8033 -1.2989
15326TIP3   OH267468   5.674   6.198  16.936  0.3015 -0.2171 -0.4432
15326TIP3    H167469   5.598   6.254  16.918 -0.6111 -0.9053  1.0901
15326TIP3    H267470   5.723   6.245  17.004  0.8714 -0.0966 -0.9375
15327TIP3   OH267471   1.087   2.165   3.993 -0.7574  0.1143  0.0194
15327TIP3    H167472   1.034   2.091   4.024 -1.5733  0.4032 -0.6592
15327TIP3    H267473   1.140   2.129   3.923  0.4248 -0.3262  1.1221
15328TIP3   OH267474   4.020   2.656   5.998 -0.5707  0.2379 -0.5123
15328TIP3    H167475   4.099   2.602   6.004  0.4228  1.7978  1.1307
15328TIP3    H267476   4.015   2.682   5.906  0.9493  0.2701 -0.6008
15329TIP3   OH267477   0.259   2.817  14.085  0.2764 -0.3866  0.3281
15329TIP3    H167478   0.350   2.835  14.107  0.5944 -1.8045  0.2715
15329TIP3    H267479   0.261   2.798  13.991 -0.2339  0.5114  0.1329
15330TIP3   OH267480   4.498   2.752  14.870  0.3239  0.5471 -0.5506
15330TIP3    H167481   4.539   2.680  14.918  0.4668  0.9714 -0.0161
15330TIP3    H267482   4.447   2.799  14.937 -0.7867  0.2082 -1.1408
15331TIP3   OH267483   5.973   3.722   6.305  0.2746 -0.3038 -0.1966
15331TIP3    H167484   5.941   3.782   6.237  0.6849 -0.8004 -0.8267
15331TIP3    H267485   6.065   3.708   6.284  0.7502  0.5631  1.2187
15332TIP3   OH267486   2.336   4.488  15.367  0.1273  0.3611  0.1523
15332TIP3    H167487   2.416   4.439  15.385  0.7731  1.3519  0.0093
15332TIP3    H267488   2.317   4.534  15.449 -1.0842 -0.9685  0.6324
15333TIP3   OH267489   5.174   6.341   3.967 -0.3387 -0.3772  0.1548
15333TIP3    H167490   5.186   6.252   3.997 -1.3655 -0.5931 -0.0415
15333TIP3    H267491   5.239   6.392   4.015 -0.5783 -1.0341  1.2001
15334TIP3   OH267492   1.787   0.314  16.542 -0.1542 -0.0554  0.3311
15334TIP3    H167493   1.777   0.409  16.546 -0.7363 -0.0893 -0.2938
15334TIP3    H267494   1.728   0.280  16.609 -0.7466 -0.0266 -0.1737
15335TIP3   OH267495   3.886   2.249   0.239 -0.0871  0.3573 -0.0695
15335TIP3    H167496   3.871   2.327   0.185  1.4596  0.5605 -0.2243
15335TIP3    H267497   3.907   2.180   0.175 -1.0187 -0.0929  0.0969
15336TIP3   OH267498   1.924   2.841   3.671  0.4863 -0.5079 -0.1075
15336TIP3    H167499   1.919   2.915   3.611 -0.0887  0.5344  1.2017
15336TIP3    H267500   1.854   2.782   3.642  1.6177 -1.0338 -1.7895
15337TIP3   OH267501   5.790   2.801   5.751 -0.4788  0.0833 -0.3015
15337TIP3    H167502   5.726   2.860   5.792 -0.4435  0.6101 -1.0033
15337TIP3    H267503   5.847   2.858   5.701 -0.0454 -0.4891 -0.4631
15338TIP3   OH267504   4.488   6.367  12.886 -0.1647 -0.2396  0.4330
15338TIP3    H167505   4.409   6.408  12.922  0.3387  1.6424 -0.5404
15338TIP3    H267506   4.514   6.303  12.952 -1.8443 -0.0623  1.2941
15339TIP3   OH267507   6.543   2.249   4.021  0.0900 -0.0843  0.4288
15339TIP3    H167508   6.588   2.326   4.055 -0.4226 -0.0891  1.1308
15339TIP3    H267509   6.551   2.257   3.926  1.0542  0.2167  0.5316
15340TIP3   OH267510   2.255   0.365   6.102 -0.6427  0.0428  0.2383
15340TIP3    H167511   2.246   0.459   6.117  1.6812  0.3701 -0.2268
15340TIP3    H267512   2.263   0.327   6.190 -0.3713  0.4280  0.3805
15341TIP3   OH267513   1.947   6.817  12.007  0.0830  0.4398 -0.3971
15341TIP3    H167514   1.962   6.741  11.951 -0.7718 -0.8850  1.1421
15341TIP3    H267515   1.999   6.800  12.085  1.0784  2.1651 -0.6616
15342TIP3   OH267516   0.411   3.625  16.537  0.0412  0.3250 -0.4216
15342TIP3    H167517   0.435   3.614  16.445  0.1879  1.5203 -0.5317
15342TIP3    H267518   0.334   3.681  16.536 -0.1315  0.1065  0.1690
15343TIP3   OH267519   3.891   4.814  14.658 -0.2801 -0.2942 -0.2985
15343TIP3    H167520   3.915   4.904  14.679 -0.6340  0.1600 -1.7790
15343TIP3    H267521   3.960   4.783  14.601 -0.6643 -0.6432 -0.5781
15344TIP3   OH267522   2.770   4.269   1.273 -0.9322  0.5588 -0.3303
15344TIP3    H167523   2.685   4.304   1.298 -1.2983  0.1494 -0.9834
15344TIP3    H267524   2.830   4.344   1.279 -1.4610  0.9933 -0.4729
15345TIP3   OH267525   5.493   6.654  15.050  0.4697 -0.3221  0.2502
15345TIP3    H167526   5.429   6.721  15.073 -1.6666 -2.0422 -0.5067
15345TIP3    H267527   5.519   6.675  14.961 -1.4712 -1.4075 -0.6103
15346TIP3   OH267528   6.102   2.112  13.166 -0.2041  0.0162 -0.0881
15346TIP3    H167529   6.129   2.195  13.126 -1.1664  0.6248  0.5078
15346TIP3    H267530   6.009   2.125  13.187 -0.4584 -1.3395 -0.3175
15347TIP3   OH267531   2.893   5.547   4.969 -0.6419 -0.8131  0.1393
15347TIP3    H167532   2.888   5.501   4.885 -2.9313  0.4554 -0.4741
15347TIP3    H267533   2.883   5.640   4.947 -0.3488 -0.3842  1.7153
15348TIP3   OH267534   5.771   4.013   4.345  0.0399 -0.0129 -0.7792
15348TIP3    H167535   5.744   3.927   4.378  0.7821 -0.5954 -1.6734
15348TIP3    H267536   5.816   4.053   4.419  1.3305 -1.1562 -0.9131
15349TIP3   OH267537   2.148   6.442  14.098 -0.2387 -0.3789 -0.1969
15349TIP3    H167538   2.089   6.512  14.126 -0.6506 -1.5919  2.1141
15349TIP3    H267539   2.228   6.456  14.149  0.1643 -0.8065 -0.7085
15350TIP3   OH267540   3.223   5.322   6.711  0.1121 -0.2000 -0.1639
15350TIP3    H167541   3.219   5.239   6.759 -1.6680  1.6068  2.9906
15350TIP3    H267542   3.143   5.323   6.658 -0.1547 -0.2686  0.2319
15351TIP3   OH267543   0.853   4.112   2.473 -0.9082 -0.6931 -0.2991
15351TIP3    H167544   0.915   4.149   2.410 -1.0180  0.0265  0.0135
15351TIP3    H267545   0.775   4.166   2.465 -0.4903  0.1784  1.3084
15352TIP3   OH267546   3.263   3.430  13.063  0.8604  0.2762  0.3114
15352TIP3    H167547   3.276   3.458  13.154  0.8306  0.2285  0.3312
15352TIP3    H267548   3.176   3.464  13.041  1.1938  0.9584  0.0442
15353TIP3   OH267549   5.096   3.938   4.972  0.5635 -0.0989 -0.2987
15353TIP3    H167550   5.112   3.876   5.043 -1.5027  0.9954  1.1624
15353TIP3    H267551   5.006   3.967   4.985  0.1344  0.1361 -3.3861
15354TIP3   OH267552   2.521   5.948  14.895 -0.1919 -0.3254  0.5589
15354TIP3    H167553   2.432   5.947  14.862  0.6159  1.6320 -1.7934
15354TIP3    H267554   2.518   6.006  14.971 -0.8612 -0.1098  0.3705
15355TIP3   OH267555   5.540   6.202   5.692 -0.4535 -0.0285 -0.6360
15355TIP3    H167556   5.616   6.236   5.739  0.2223  0.5134 -2.0982
15355TIP3    H267557   5.511   6.126   5.743 -0.5945  1.3890  1.4128
15356TIP3   OH267558   2.549   1.337  13.764  0.0839  0.4247  0.0959
15356TIP3    H167559   2.631   1.286  13.763 -0.2022 -0.0452  0.5807
15356TIP3    H267560   2.481   1.273  13.741  0.0804  1.2448 -2.2993
15357TIP3   OH267561   3.354   1.634   1.236 -0.3484 -0.2430  0.1062
15357TIP3    H167562   3.294   1.633   1.161 -0.9638  0.6305  0.5813
15357TIP3    H267563   3.353   1.543   1.268  0.2718 -0.7217 -1.2144
15358TIP3   OH267564   5.052   3.447   1.749 -0.7401  0.3317  0.3539
15358TIP3    H167565   5.067   3.536   1.781 -1.2983 -0.1718  2.0546
15358TIP3    H267566   4.985   3.411   1.808  1.2383 -2.0569  1.2018
15359TIP3   OH267567   0.673   3.722   4.914  0.1774  0.3852 -0.3817
15359TIP3    H167568   0.710   3.642   4.953 -1.0540  1.2443  2.7013
15359TIP3    H267569   0.747   3.763   4.869  1.9690 -0.1602  1.9505
15360TIP3   OH267570   2.888   1.556  11.722 -1.0743  0.3334  0.1702
15360TIP3    H167571   2.877   1.474  11.674  0.9279  0.9075 -1.3202
15360TIP3    H267572   2.867   1.534  11.813  2.7244 -2.6327  0.4286
15361TIP3   OH267573   0.116   4.064  11.539 -0.3387  0.7297 -0.3461
15361TIP3    H167574   0.031   4.056  11.495 -0.9579  1.6817  0.6611
15361TIP3    H267575   0.095   4.063  11.632  0.7451  1.2311 -0.0876
15362TIP3   OH267576   5.886   4.193  14.720  0.0338 -0.1217  0.7354
15362TIP3    H167577   5.861   4.110  14.761  1.9845 -0.6961  0.8189
15362TIP3    H267578   5.956   4.227  14.775  0.2082  0.9074 -0.0938
15363TIP3   OH267579   0.338   5.204  13.844 -0.2121 -0.8626 -0.0464
15363TIP3    H167580   0.335   5.134  13.908  0.7045  0.7165  1.7926
15363TIP3    H267581   0.251   5.244  13.847  0.1960 -0.0261  1.1419
15364TIP3   OH267582   6.652   5.002   3.109  0.3530 -0.7690  0.0593
15364TIP3    H167583   6.714   4.993   3.181  0.5196 -0.6382 -0.0683
15364TIP3    H267584   6.673   5.087   3.069  0.4075 -0.9409 -0.2795
15365TIP3   OH267585   0.614   2.837   3.192 -0.4523  0.0125 -0.6078
15365TIP3    H167586   0.692   2.863   3.240  0.1930  1.0464 -2.1774
15365TIP3    H267587   0.624   2.877   3.106 -1.4988 -1.9438 -1.6798
15366TIP3   OH267588   0.183   3.810  15.140 -0.0989  0.4012  0.5756
15366TIP3    H167589   0.228   3.725  15.146 -0.9906 -0.1009  0.1905
15366TIP3    H267590   0.153   3.827  15.229 -2.0376 -0.8586  0.1809
15367TIP3   OH267591   4.779   2.179   3.063 -0.5045  0.0239  0.1298
15367TIP3    H167592   4.716   2.117   3.099 -0.0206 -1.2486 -1.1592
15367TIP3    H267593   4.726   2.247   3.022 -1.0368  0.2338  1.1541
15368TIP3   OH267594   1.284   0.541   2.488  0.2559 -0.1778  0.0917
15368TIP3    H167595   1.341   0.592   2.545  0.2966  1.3737 -1.3082
15368TIP3    H267596   1.279   0.455   2.530  3.3093 -0.2375  0.4522
15369TIP3   OH267597   6.719   0.787   1.953  0.0498 -0.3010 -0.7299
15369TIP3    H167598   6.779   0.713   1.964 -0.1937 -0.5419 -1.0316
15369TIP3    H267599   6.752   0.853   2.014 -0.0645 -0.8709 -0.0392
15370TIP3   OH267600   0.734   3.190  12.882  0.1291 -0.2976  0.3882
15370TIP3    H167601   0.717   3.284  12.875  0.9842 -0.0848  1.0642
15370TIP3    H267602   0.728   3.157  12.793  0.5576  0.5324  0.0547
15371TIP3   OH267603   2.808   2.091   3.866  0.2268  0.0975  0.2468
15371TIP3    H167604   2.869   2.133   3.927  0.5276  0.1152 -0.0647
15371TIP3    H267605   2.785   2.009   3.909 -0.4649  0.6405  0.9168
15372TIP3   OH267606   6.221   6.605   1.682 -0.4298 -0.1648 -0.6166
15372TIP3    H167607   6.182   6.518   1.675 -2.7538  0.7907 -0.0219
15372TIP3    H267608   6.305   6.598   1.637  0.8771 -3.5668  2.1485
15373TIP3   OH267609   6.725   3.230  13.661  0.7177 -0.2574  1.0251
15373TIP3    H167610   6.670   3.246  13.738 -1.6015 -0.8223 -0.4579
15373TIP3    H267611   6.700   3.298  13.599 -0.4048 -2.1763 -0.7215
15374TIP3   OH267612   5.758   3.076  12.737  0.0241  0.4950  0.1612
15374TIP3    H167613   5.715   3.161  12.721 -0.6003 -0.0358 -1.0588
15374TIP3    H267614   5.729   3.021  12.664 -0.1062 -0.9785  1.3056
15375TIP3   OH267615   6.218   4.738   5.842  0.4772  0.2105 -0.4440
15375TIP3    H167616   6.310   4.717   5.827  0.4802  0.1156 -0.2927
15375TIP3    H267617   6.187   4.771   5.758 -0.0242 -2.1881 -1.2275
15376TIP3   OH267618   6.813   5.424   1.794  0.9295  0.2787 -0.1155
15376TIP3    H167619   6.807   5.392   1.704  2.0554  0.1068 -0.1371
15376TIP3    H267620   6.905   5.411   1.819  0.5749  0.0698  1.1542
15377TIP3   OH267621   3.130   1.094   4.047 -0.6382 -0.2980 -0.6350
15377TIP3    H167622   3.108   1.023   3.986  0.3749  0.8584 -2.4033
15377TIP3    H267623   3.176   1.050   4.118 -0.5888 -1.5154 -1.3894
15378TIP3   OH267624   4.542   2.841   3.333  0.4888 -0.5565 -0.4959
15378TIP3    H167625   4.527   2.919   3.280  1.8902 -0.2577 -0.4649
15378TIP3    H267626   4.584   2.873   3.413 -1.3833 -1.0318  0.7133
15379TIP3   OH267627   5.815   3.162  13.075  0.1214 -0.1617 -0.0356
15379TIP3    H167628   5.855   3.248  13.091  1.2857 -0.3182 -2.0596
15379TIP3    H267629   5.825   3.115  13.158 -1.8430  2.1433  1.5954
15380TIP3   OH267630   5.423   5.691  14.308 -0.1739  0.2339  0.1982
15380TIP3    H167631   5.334   5.708  14.339 -0.4377 -0.1008 -0.3502
15380TIP3    H267632   5.458   5.626  14.369 -0.9636 -1.0082 -0.6242
15381TIP3   OH267633   3.517   4.819   1.401  0.6107  0.3674 -0.1662
15381TIP3    H167634   3.523   4.842   1.308  1.6970  1.9400  0.2597
15381TIP3    H267635   3.607   4.797   1.425  0.9251  2.9417  1.2100
15382TIP3   OH267636   5.011   1.061  12.477 -0.1448  0.7150 -0.5443
15382TIP3    H167637   4.943   1.001  12.446 -2.2603  1.3660  2.5843
15382TIP3    H267638   4.970   1.148  12.472  1.0650  1.3124 -0.2279
15383TIP3   OH267639   0.772   2.917   2.635  0.3115  0.1824 -0.1684
15383TIP3    H167640   0.692   2.886   2.592  0.5850 -0.2861 -0.3455
15383TIP3    H267641   0.743   2.988   2.692 -0.1334  0.4813 -0.7524
15384TIP3   OH267642   0.242   3.248   2.677  0.6397 -0.5227  0.2727
15384TIP3    H167643   0.310   3.267   2.612  0.1746  0.0140 -0.0630
15384TIP3    H267644   0.193   3.175   2.639  2.6596 -2.6951  1.7357
15385TIP3   OH267645   4.473   2.868  14.316 -0.5502 -0.4825  0.2638
15385TIP3    H167646   4.445   2.930  14.249 -0.1078 -0.1049  0.4213
15385TIP3    H267647   4.406   2.800  14.316 -2.3584  1.2308  1.7844
15386TIP3   OH267648   4.495   3.262   4.004  0.0332 -0.0314 -0.8023
15386TIP3    H167649   4.487   3.173   3.970 -2.1358 -0.0219 -0.4244
15386TIP3    H267650   4.465   3.257   4.094 -0.2037  1.0931 -0.8041
15387TIP3   OH267651   5.567   2.124   3.895  0.2276  0.4388 -0.7268
15387TIP3    H167652   5.612   2.208   3.887 -0.5949  1.0062  0.3319
15387TIP3    H267653   5.628   2.069   3.945  1.6654 -0.3058 -3.2249
15388TIP3   OH267654   2.279   3.623   1.392  0.2265  0.1122  0.1099
15388TIP3    H167655   2.338   3.648   1.321  1.3159  0.7826  1.2384
15388TIP3    H267656   2.327   3.643   1.472 -0.5523 -1.6578  1.0612
15389TIP3   OH267657   4.678   1.044   1.652 -0.2432  0.5491  0.3517
15389TIP3    H167658   4.633   0.969   1.615  1.1858  0.1887 -0.7141
15389TIP3    H267659   4.608   1.105   1.677 -1.3480 -0.5792  0.0282
15390TIP3   OH267660   4.322   2.984   1.459  0.0646  0.4374 -0.6661
15390TIP3    H167661   4.351   2.943   1.540 -0.5007 -0.5314 -0.9416
15390TIP3    H267662   4.335   2.917   1.392  0.1433  1.0872 -1.3078
15391TIP3   OH267663   1.747   0.602  16.603  0.3811 -0.0289 -0.1332
15391TIP3    H167664   1.781   0.680  16.558 -1.1826  0.2976 -0.7705
15391TIP3    H267665   1.680   0.635  16.662 -0.4182 -0.8952 -0.5323
15392TIP3   OH267666   6.185   4.373   0.405 -0.3123  0.4459  0.4136
15392TIP3    H167667   6.133   4.427   0.346 -0.0964  0.1557 -0.0475
15392TIP3    H267668   6.269   4.419   0.410  0.2693 -0.4411 -0.8922
15393TIP3   OH267669   6.091   1.195   3.210  0.6076 -0.1216  0.3545
15393TIP3    H167670   6.186   1.182   3.211  0.6726  0.3946  1.5484
15393TIP3    H267671   6.070   1.224   3.299 -0.5305  0.7690 -0.1961
15394TIP3   OH267672   1.980   6.131  13.578 -0.6045 -0.3473  0.7446
15394TIP3    H167673   1.981   6.047  13.625  2.6771 -0.4966  0.5271
15394TIP3    H267674   2.034   6.189  13.632  1.5195  0.0735 -1.7379
15395TIP3   OH267675   3.259   6.150  11.604  0.0047 -0.5449 -0.5910
15395TIP3    H167676   3.229   6.072  11.557 -0.2619 -0.5227 -0.4599
15395TIP3    H267677   3.266   6.218  11.537 -0.1045 -0.5868 -0.6441
15396TIP3   OH267678   4.547   3.150  12.019  0.4514 -0.1470  0.4627
15396TIP3    H167679   4.627   3.099  12.028  0.2808 -1.5875 -4.4987
15396TIP3    H267680   4.478   3.084  12.006 -0.8338  1.1870  0.3686
15397TIP3   OH267681   4.912   4.186   0.624  0.0652  0.0907  0.3359
15397TIP3    H167682   4.946   4.186   0.713  0.2772 -1.9377  0.2716
15397TIP3    H267683   4.983   4.150   0.571 -0.4686  0.2535 -0.5019
15398TIP3   OH267684   0.083   3.623   0.398 -0.7154 -0.4969 -0.2297
15398TIP3    H167685   0.051   3.686   0.462 -2.4929 -0.7803 -0.8030
15398TIP3    H267686   0.055   3.538   0.431  0.0101 -0.8234 -0.4294
15399TIP3   OH267687   0.178   1.210   0.116 -0.3531  0.1688  0.1827
15399TIP3    H167688   0.151   1.135   0.063 -1.4774  0.3617  0.4737
15399TIP3    H267689   0.168   1.180   0.207 -1.9606  1.0522  0.3151
15400TIP3   OH267690   4.073   0.209  15.021 -0.1849  0.5664  0.1766
15400TIP3    H167691   3.998   0.268  15.029 -0.5333  0.4265 -1.8081
15400TIP3    H267692   4.080   0.168  15.107 -2.5099  0.4427  0.3346
15401TIP3   OH267693   5.541   2.582  15.643  0.3333  0.1880 -0.5557
15401TIP3    H167694   5.535   2.497  15.687  0.1419 -1.3756 -3.5263
15401TIP3    H267695   5.456   2.623  15.659 -0.7193 -1.4926 -1.6693
15402TIP3   OH267696   5.906   1.827   1.919  0.7285  0.2828  0.4456
15402TIP3    H167697   5.906   1.883   1.997 -0.1902 -1.6194  1.8408
15402TIP3    H267698   5.949   1.746   1.948  0.3064 -0.4608 -1.0108
15403TIP3   OH267699   2.781   4.752  11.320 -0.2752  0.1830 -0.1152
15403TIP3    H167700   2.695   4.710  11.333 -0.0480 -0.5341 -0.8738
15403TIP3    H267701   2.800   4.739  11.227  0.9872 -0.3125  0.2028
15404TIP3   OH267702   0.275   2.869   3.069 -0.5470 -0.3907 -0.0616
15404TIP3    H167703   0.338   2.914   3.013  0.1264  1.9719  2.4821
15404TIP3    H267704   0.328   2.806   3.118 -0.4620  0.2734  0.7099
15405TIP3   OH267705   0.972   1.555  14.138  0.3617 -0.3371  0.9300
15405TIP3    H167706   0.980   1.507  14.055  2.1943 -0.3906  1.1217
15405TIP3    H267707   0.919   1.632  14.116  0.3512 -0.6457 -0.1637
15406TIP3   OH267708   0.133   6.089  12.966  0.0424  0.0487  0.4414
15406TIP3    H167709   0.093   6.138  12.895  0.5850 -0.8292 -0.4925
15406TIP3    H267710   0.151   6.154  13.034 -0.7655  0.8395 -0.0997
15407TIP3   OH267711   5.566   5.575  15.335  0.8417 -0.2463 -0.8950
15407TIP3    H167712   5.521   5.492  15.347  0.0406  0.0611 -1.6869
15407TIP3    H267713   5.497   5.641  15.337  1.7113  0.6489  2.0738
15408TIP3   OH267714   5.907   0.235   0.263  0.6225  0.3263  0.4052
15408TIP3    H167715   5.972   0.260   0.329  0.0768  0.3103  0.9555
15408TIP3    H267716   5.831   0.206   0.314 -0.1327  1.1679 -0.2209
15409TIP3   OH267717   4.900   3.709  16.326 -0.4421  0.1350 -0.6418
15409TIP3    H167718   4.865   3.620  16.315 -0.0806  0.1025 -1.5442
15409TIP3    H267719   4.992   3.695  16.351 -0.2019  0.2601 -1.4448
15410TIP3   OH267720   4.156   5.941  14.402  0.5685  0.0317  0.4394
15410TIP3    H167721   4.121   6.023  14.366 -0.5972 -0.9335 -0.6644
15410TIP3    H267722   4.237   5.967  14.445  0.5548  1.6728 -0.4714
15411TIP3   OH267723   6.680   2.260  12.258 -0.4012 -0.6937  0.1937
15411TIP3    H167724   6.718   2.266  12.346  1.4176 -2.5541 -0.4191
15411TIP3    H267725   6.682   2.350  12.225  1.3050 -0.3781  1.0908
15412TIP3   OH267726   5.372   0.960  14.525  0.1010 -0.3557  0.1752
15412TIP3    H167727   5.440   0.903  14.560 -0.5613 -2.5080 -1.9293
15412TIP3    H267728   5.393   0.969  14.432 -1.6127  0.1934 -0.1860
15413TIP3   OH267729   6.731   6.241   5.857  0.3299  0.2892  0.6357
15413TIP3    H167730   6.732   6.149   5.833 -1.3958  1.0694 -2.7904
15413TIP3    H267731   6.815   6.275   5.828  0.6818 -0.0396  1.2604
15414TIP3   OH267732   3.758   4.979   3.689  0.2335 -0.6279 -0.4399
15414TIP3    H167733   3.849   5.009   3.683 -0.2183  0.7776 -0.4955
15414TIP3    H267734   3.722   5.025   3.765 -0.9318  0.2278 -1.4882
15415TIP3   OH267735   6.624   5.288  15.110 -0.4446 -0.0293  0.5532
15415TIP3    H167736   6.632   5.382  15.126  1.7334  0.0583 -0.9033
15415TIP3    H267737   6.560   5.282  15.039  0.1382  0.4199 -0.0164
15416TIP3   OH267738   4.470   1.247   3.841 -0.3641  0.0943 -0.5463
15416TIP3    H167739   4.516   1.277   3.763  2.2536 -0.4630  0.7394
15416TIP3    H267740   4.463   1.324   3.897 -2.3816  0.5315 -1.3465
15417TIP3   OH267741   6.454   0.593   3.262 -0.5521  0.2714  0.7124
15417TIP3    H167742   6.388   0.662   3.251  0.2067  0.7929 -0.6918
15417TIP3    H267743   6.538   0.640   3.263 -0.0556 -0.5973  0.1816
15418TIP3   OH267744   3.309   3.332  16.123 -0.2495 -0.0687  0.2638
15418TIP3    H167745   3.232   3.389  16.136 -0.5852 -0.9876  2.6405
15418TIP3    H267746   3.272   3.244  16.117  0.5878 -0.4784  1.1078
15419TIP3   OH267747   1.372   6.251  15.465 -0.4036  0.0924  0.3574
15419TIP3    H167748   1.317   6.299  15.403 -0.1833 -0.9251 -0.6538
15419TIP3    H267749   1.328   6.167  15.477  0.4500 -0.3841  0.2303
15420TIP3   OH267750   5.692   4.811  12.976 -0.0431 -0.0170 -0.2387
15420TIP3    H167751   5.777   4.855  12.976 -0.9506  1.7663  0.3873
15420TIP3    H267752   5.696   4.752  13.052  0.3891  0.5445  0.1785
15421TIP3   OH267753   5.479   1.229   6.239 -0.1552 -0.5410 -0.6557
15421TIP3    H167754   5.523   1.259   6.319  0.2313 -1.4809 -0.5028
15421TIP3    H267755   5.418   1.299   6.217  1.6427  0.9289 -1.0410
15422TIP3   OH267756   4.875   1.972  13.466  0.1129  0.8951  0.3908
15422TIP3    H167757   4.898   1.992  13.376 -0.9143 -0.2105 -0.1384
15422TIP3    H267758   4.797   1.915  13.459  1.4477 -1.1906  1.8532
15423TIP3   OH267759   0.628   6.136  13.941 -0.1389  0.2874 -0.8918
15423TIP3    H167760   0.544   6.091  13.932 -1.4208  2.4525  0.1003
15423TIP3    H267761   0.606   6.229  13.943  2.1640  0.8361  0.7226
15424TIP3   OH267762   1.985   5.972   1.296 -0.0037 -0.3954 -0.7301
15424TIP3    H167763   2.079   5.987   1.291 -0.1641  0.4248 -1.5925
15424TIP3    H267764   1.953   6.039   1.356 -0.3664  1.0327 -2.4740
15425TIP3   OH267765   6.718   4.181  13.881 -0.0432  0.0506 -0.6141
15425TIP3    H167766   6.802   4.139  13.862 -1.2669 -1.5288 -2.8383
15425TIP3    H267767   6.663   4.110  13.915 -0.4714  1.0831  0.8840
15426TIP3   OH267768   5.677   5.274  14.587 -0.2728  0.5209 -0.3813
15426TIP3    H167769   5.716   5.316  14.663  0.3189  0.9627 -0.9253
15426TIP3    H267770   5.751   5.247  14.533 -0.6696 -0.6035 -0.3693
15427TIP3   OH267771   0.678   4.149   4.885 -0.4445 -0.5456  0.0884
15427TIP3    H167772   0.600   4.176   4.837 -0.3107 -0.4759 -0.0914
15427TIP3    H267773   0.750   4.160   4.822 -0.1830  0.1711  0.5137
15428TIP3   OH267774   3.719   5.243  16.140  0.2166  0.2665 -0.2167
15428TIP3    H167775   3.720   5.223  16.233  1.4716  1.2558  0.0008
15428TIP3    H267776   3.730   5.158  16.097 -1.7022 -0.3523  0.4778
15429TIP3   OH267777   1.867   3.638   1.952  0.5237 -0.2956 -0.8716
15429TIP3    H167778   1.772   3.643   1.956  0.5817 -0.2178  0.8133
15429TIP3    H267779   1.885   3.564   1.893 -0.5575  0.2088 -1.8497
15430TIP3   OH267780   4.598   3.915  12.346  0.5175 -0.7782 -0.0404
15430TIP3    H167781   4.608   3.860  12.424  0.4947 -1.8796 -0.8018
15430TIP3    H267782   4.675   3.897  12.293 -0.1680 -1.1281 -0.9356
15431TIP3   OH267783   1.362   1.831   2.917 -0.4925  0.1187 -0.3080
15431TIP3    H167784   1.323   1.762   2.972 -1.2234 -0.6283 -1.7447
15431TIP3    H267785   1.289   1.866   2.867  0.1092  1.0616 -0.5231
15432TIP3   OH267786   2.245   2.406  16.601  0.7113 -0.1315 -0.6824
15432TIP3    H167787   2.150   2.391  16.603  0.8457 -0.9876 -0.9441
15432TIP3    H267788   2.259   2.476  16.666  0.0257 -0.6464  0.0266
15433TIP3   OH267789   2.851   4.719  13.631 -0.0077 -0.6629  0.2211
15433TIP3    H167790   2.859   4.641  13.576 -1.2505 -0.4392 -0.2971
15433TIP3    H267791   2.837   4.791  13.569 -0.4574 -0.2652  0.7733
15434TIP3   OH267792   4.571   3.294   6.781  0.1334  0.2766 -0.1173
15434TIP3    H167793   4.614   3.372   6.814 -0.8343  0.8285 -0.1289
15434TIP3    H267794   4.634   3.254   6.722 -0.2166  2.3243 -1.9536
15435TIP3   OH267795   4.685   3.994  16.731 -0.4230 -0.3482  0.0782
15435TIP3    H167796   4.688   3.905  16.766 -2.0573 -0.2596  0.4609
15435TIP3    H267797   4.775   4.026  16.741 -0.0002 -1.6836  0.6544
15436TIP3   OH267798   1.095   4.757  13.029 -0.4115 -0.3382  0.6288
15436TIP3    H167799   1.053   4.685  12.983 -1.9863  1.4702 -0.8428
15436TIP3    H267800   1.175   4.775  12.978 -0.3865 -0.5708  0.5851
15437TIP3   OH267801   2.724   0.769   7.104 -0.2068  0.5546 -0.2456
15437TIP3    H167802   2.653   0.826   7.134 -0.3093 -0.4276  1.4382
15437TIP3    H267803   2.800   0.826   7.100 -0.1266  0.6722  2.2135
15438TIP3   OH267804   2.612   6.097   3.363  0.9821 -0.1258 -0.2366
15438TIP3    H167805   2.559   6.024   3.394  0.7651 -0.0535 -0.4372
15438TIP3    H267806   2.584   6.172   3.416  1.6312 -0.3142  0.3902
15439TIP3   OH267807   1.593   6.460   4.372 -0.1532  0.4975  0.3087
15439TIP3    H167808   1.563   6.516   4.443  0.2393  1.3139 -0.1551
15439TIP3    H267809   1.522   6.397   4.358 -0.6005  0.8895  0.8322
15440TIP3   OH267810   6.489   4.313  13.885 -0.1460 -0.3363  0.4832
15440TIP3    H167811   6.579   4.286  13.899 -0.1513 -0.0044  1.1912
15440TIP3    H267812   6.485   4.339  13.793  0.3142 -0.9676  0.2842
15441TIP3   OH267813   0.541   2.463  15.705  0.0697  0.1373 -0.2362
15441TIP3    H167814   0.463   2.519  15.703  1.2026  1.8271  1.4083
15441TIP3    H267815   0.605   2.508  15.651  0.2696 -0.6942 -0.6944
15442TIP3   OH267816   1.110   0.574   3.335  0.4621 -0.2029  0.4233
15442TIP3    H167817   1.197   0.548   3.366 -0.3280 -1.5255  1.5757
15442TIP3    H267818   1.055   0.497   3.350 -0.7044  0.2699 -1.2218
15443TIP3   OH267819   4.492   2.889   6.035  0.4693  0.0522  0.1142
15443TIP3    H167820   4.550   2.849   5.971 -1.2821 -0.4054 -1.2118
15443TIP3    H267821   4.551   2.918   6.105  2.6837  2.4095 -2.5894
15444TIP3   OH267822   4.113   6.312   2.084 -0.0030  0.2489  0.4800
15444TIP3    H167823   4.119   6.221   2.115 -0.8408 -0.2836 -0.8417
15444TIP3    H267824   4.203   6.336   2.062  0.0746 -0.6577 -0.2252
15445TIP3   OH267825   2.290   5.759  13.418 -0.2962 -0.1143  0.2439
15445TIP3    H167826   2.301   5.665  13.429 -1.0403 -0.0632  1.4788
15445TIP3    H267827   2.221   5.768  13.351 -0.7609 -0.4511  0.6749
15446TIP3   OH267828   1.899   0.823  14.232  0.3702 -0.2139  0.0254
15446TIP3    H167829   1.820   0.874  14.252  0.3961 -0.1049 -0.1477
15446TIP3    H267830   1.960   0.846  14.301  0.5476  0.3537 -0.3192
15447TIP3   OH267831   5.487   4.625  10.985  0.4829 -0.1939  0.2054
15447TIP3    H167832   5.540   4.545  10.976 -0.1524 -0.3476 -2.8948
15447TIP3    H267833   5.527   4.687  10.923  0.4593  1.6447  1.9619
15448TIP3   OH267834   2.745   1.472  12.247  0.2183  0.4145  0.2201
15448TIP3    H167835   2.655   1.469  12.279  0.1762  0.1058  0.0737
15448TIP3    H267836   2.798   1.486  12.325  0.0266  0.8232  0.2795
15449TIP3   OH267837   0.532   3.313  16.539  0.3589 -0.3198  0.3782
15449TIP3    H167838   0.623   3.332  16.517 -0.2062  2.5154  0.3373
15449TIP3    H267839   0.505   3.385  16.596 -2.2072 -0.5067 -0.5303
15450TIP3   OH267840   3.914   4.211  11.405 -0.2684  0.5283 -0.1664
15450TIP3    H167841   3.911   4.236  11.313 -0.4141  0.7356 -0.1046
15450TIP3    H267842   3.953   4.124  11.405  1.1671  1.1560 -0.3043
15451TIP3   OH267843   4.290   6.566   4.779  0.2962 -0.0919 -0.1210
15451TIP3    H167844   4.290   6.629   4.850 -0.3061  1.8519 -1.7915
15451TIP3    H267845   4.381   6.565   4.748  0.3154 -0.0864 -0.0660
15452TIP3   OH267846   3.085   6.062  16.454 -0.1396  0.1454  0.6889
15452TIP3    H167847   3.107   5.972  16.476 -0.4068 -0.2655 -0.6521
15452TIP3    H267848   3.009   6.083  16.508 -0.9192 -0.9019  0.0029
15453TIP3   OH267849   2.564   2.260   1.918 -0.1153  0.0947  0.1211
15453TIP3    H167850   2.588   2.330   1.857 -0.6904 -0.0089 -0.2248
15453TIP3    H267851   2.632   2.193   1.904  0.9672  0.9589  1.1110
15454TIP3   OH267852   0.717   0.216  14.329 -0.2842 -0.1567  0.1076
15454TIP3    H167853   0.793   0.159  14.323  0.1451  0.3111  0.9451
15454TIP3    H267854   0.725   0.275  14.254  0.9893  0.8391  0.9826
15455TIP3   OH267855   3.792   3.931  15.148 -0.7736  0.2284 -0.2953
15455TIP3    H167856   3.744   3.866  15.096 -1.1863  0.5094 -0.2702
15455TIP3    H267857   3.836   3.986  15.083  0.2005 -0.5471 -0.2955
15456TIP3   OH267858   3.810   1.370   5.788 -0.0643 -0.2998 -0.0912
15456TIP3    H167859   3.717   1.349   5.791 -0.0698 -0.3731 -0.8175
15456TIP3    H267860   3.854   1.292   5.823 -0.3690  0.4496  2.0757
15457TIP3   OH267861   1.826   3.376   1.861  0.2082 -0.2477  0.2152
15457TIP3    H167862   1.778   3.372   1.944 -1.4523 -0.4488 -0.7193
15457TIP3    H267863   1.784   3.310   1.806  2.6095 -1.5364 -0.1289
15458TIP3   OH267864   4.188   5.017   4.462  0.1357 -0.4516 -0.4352
15458TIP3    H167865   4.101   5.042   4.433 -0.0626  0.3030  0.8089
15458TIP3    H267866   4.234   5.100   4.476  0.2353 -0.8022  1.3770
15459TIP3   OH267867   3.738   3.581  14.801  0.1775 -0.4916 -0.3281
15459TIP3    H167868   3.794   3.510  14.771 -0.9930 -1.1736 -0.9482
15459TIP3    H267869   3.669   3.538  14.851 -1.0024  0.1120 -1.3932
15460TIP3   OH267870   0.202   2.623  16.795 -0.1471 -0.0236  0.1596
15460TIP3    H167871   0.112   2.638  16.824 -0.2805 -1.1154  0.3407
15460TIP3    H267872   0.256   2.644  16.871 -0.2090  1.1769 -0.1264
15461TIP3   OH267873   0.014   0.235   4.864 -0.0911  0.2775 -0.3476
15461TIP3    H167874  -0.017   0.325   4.865 -0.1533  0.2500  3.2165
15461TIP3    H267875   0.076   0.229   4.937 -1.1326 -2.9301  0.3684
15462TIP3   OH267876   2.865   1.646   2.903  0.4238  0.2756 -0.1655
15462TIP3    H167877   2.948   1.689   2.928  1.3262 -0.4624 -1.8121
15462TIP3    H267878   2.806   1.665   2.975  1.8658  1.3160  0.7771
15463TIP3   OH267879   3.724   2.047  16.503 -0.0719 -0.3054  0.0441
15463TIP3    H167880   3.775   2.028  16.424 -0.3728  0.1808 -0.2669
15463TIP3    H267881   3.751   2.136  16.527 -0.2179 -0.3338  0.3135
15464TIP3   OH267882   4.406   3.968  15.678 -0.3297 -0.0862 -0.3039
15464TIP3    H167883   4.443   4.008  15.757 -0.0785 -0.4521 -0.2370
15464TIP3    H267884   4.312   3.973  15.691 -0.2856 -1.3212  0.6174
15465TIP3   OH267885   1.598   3.637  14.912 -0.3288  0.4550 -0.3323
15465TIP3    H167886   1.561   3.724  14.920 -3.1581 -0.7053 -0.1995
15465TIP3    H267887   1.565   3.589  14.988  1.4694 -0.6618 -0.2121
15466TIP3   OH267888   2.412   1.025  14.050  0.0119 -0.1468  0.1472
15466TIP3    H167889   2.485   0.988  14.000  1.0444 -0.0709  1.5320
15466TIP3    H267890   2.397   0.961  14.120 -0.3413  0.4794  0.6529
15467TIP3   OH267891   0.442   5.471  12.328 -0.0895  0.3586 -0.4429
15467TIP3    H167892   0.412   5.385  12.357 -2.2174  0.1675 -2.9749
15467TIP3    H267893   0.369   5.505  12.276  1.1937  3.1892 -0.4746
15468TIP3   OH267894   1.383   0.704   5.500 -0.6087 -0.1478 -0.3026
15468TIP3    H167895   1.357   0.680   5.411 -2.8186  0.7541  0.0501
15468TIP3    H267896   1.349   0.793   5.511 -0.3530 -0.2509  1.4394
15469TIP3   OH267897   2.548   2.880   1.402 -0.2998 -0.3272 -0.0627
15469TIP3    H167898   2.525   2.874   1.309  1.4662  1.3543 -0.6543
15469TIP3    H267899   2.625   2.937   1.403 -0.9602  0.5520  2.5593
15470TIP3   OH267900   5.022   0.668  16.243 -0.3895  0.6288 -0.2512
15470TIP3    H167901   4.975   0.587  16.262  0.1586  0.4934  0.5113
15470TIP3    H267902   5.001   0.726  16.316  1.0933  0.3718  0.3846
15471TIP3   OH267903   4.165   2.382   0.234  0.2592 -0.2880 -0.8311
15471TIP3    H167904   4.192   2.409   0.322  1.7693 -1.1601 -1.0035
15471TIP3    H267905   4.183   2.457   0.178  0.3077 -0.1068 -0.5708
15472TIP3   OH267906   4.299   4.867  12.207  0.4098  0.7402 -0.3768
15472TIP3    H167907   4.364   4.804  12.237 -0.2129  0.1751 -0.2166
15472TIP3    H267908   4.322   4.948  12.253  1.9694  0.9979 -1.5201
15473TIP3   OH267909   1.029   2.030  14.932  0.0696  0.1312 -0.6444
15473TIP3    H167910   1.039   2.090  14.858 -1.1227 -0.6967 -1.4980
15473TIP3    H267911   1.116   1.992  14.944  0.0264 -0.5184 -2.3101
15474TIP3   OH267912   6.337   2.536   6.593 -0.8107  0.3154 -0.4625
15474TIP3    H167913   6.391   2.459   6.611 -0.1531  1.0973  1.0298
15474TIP3    H267914   6.273   2.506   6.528  0.7549 -0.8991 -1.4804
15475TIP3   OH267915   1.872   4.732  14.309 -0.4556 -0.7628  0.1200
15475TIP3    H167916   1.893   4.655  14.362 -1.3190 -0.2052  1.3217
15475TIP3    H267917   1.845   4.798  14.373 -1.2806  0.0162 -1.0049
15476TIP3   OH267918   5.949   4.573   0.812  1.1440  0.1149  0.0867
15476TIP3    H167919   6.017   4.571   0.745 -0.1799  2.3348 -1.3640
15476TIP3    H267920   5.974   4.645   0.870  0.8641 -0.0823  0.4559
15477TIP3   OH267921   4.892   0.075   1.577 -0.2825  0.1497  0.3112
15477TIP3    H167922   4.847   0.011   1.632 -1.5648  1.2051  0.5187
15477TIP3    H267923   4.977   0.088   1.619 -1.2309  0.9069  2.0511
15478TIP3   OH267924   2.718   1.760   1.111 -0.9618  0.0700  0.0943
15478TIP3    H167925   2.758   1.845   1.126 -3.1529  1.0974  0.3041
15478TIP3    H267926   2.702   1.725   1.199  0.4636 -0.8370  0.0101
15479TIP3   OH267927   4.455   2.782   0.149  0.4374 -0.0913 -0.1978
15479TIP3    H167928   4.468   2.844   0.077 -0.9501  0.7477  0.2390
15479TIP3    H267929   4.451   2.696   0.107 -0.3701  0.3957 -1.1428
15480TIP3   OH267930   3.061   2.230  14.000 -0.1183 -0.3230  0.2142
15480TIP3    H167931   3.012   2.201  14.077  1.0008 -0.6787  0.7979
15480TIP3    H267932   3.148   2.191  14.010  0.8663  1.7706  0.1021
15481TIP3   OH267933   5.984   0.950  14.622 -0.8087 -0.9714  0.5291
15481TIP3    H167934   6.005   1.004  14.547 -0.1499  0.2219  1.5540
15481TIP3    H267935   5.913   0.995  14.666 -0.2353 -0.9078  1.4065
15482TIP3   OH267936   2.157   1.058   0.440 -0.4196  0.1599 -0.2054
15482TIP3    H167937   2.176   1.152   0.442  3.2041 -0.4944  0.6205
15482TIP3    H267938   2.182   1.027   0.528  0.1928 -1.8547 -1.0700
15483TIP3   OH267939   5.276   6.551  11.784 -0.0227  0.2405 -0.3115
15483TIP3    H167940   5.348   6.503  11.742  1.1410  0.7138  1.1263
15483TIP3    H267941   5.296   6.643  11.768 -0.9256  0.3436 -0.8848
15484TIP3   OH267942   2.267   3.430  15.054 -0.4951 -0.7845  0.0752
15484TIP3    H167943   2.325   3.365  15.094  0.5701  0.3292  0.3675
15484TIP3    H267944   2.280   3.509  15.107  0.5466  0.5782 -2.1421
15485TIP3   OH267945   3.368   5.468  14.129 -0.3493 -0.2316 -0.3899
15485TIP3    H167946   3.368   5.479  14.034  0.5960  0.0619 -0.3606
15485TIP3    H267947   3.351   5.375  14.143 -0.2069 -0.3264 -0.8476
15486TIP3   OH267948   0.693   2.212  14.473  0.1111  0.0298 -0.2497
15486TIP3    H167949   0.698   2.125  14.513  1.3417 -0.9018 -2.3984
15486TIP3    H267950   0.600   2.223  14.452 -0.0353 -0.8169 -0.0774
15487TIP3   OH267951   1.230   3.871  13.523 -0.0341 -0.3639  0.0730
15487TIP3    H167952   1.142   3.900  13.544 -0.6798 -2.6202  0.5809
15487TIP3    H267953   1.223   3.776  13.512  2.3037 -0.5778  0.0488
15488TIP3   OH267954   2.453   6.236   0.874  0.1048 -0.0097 -0.2756
15488TIP3    H167955   2.483   6.320   0.908  2.0482 -0.7492 -0.0963
15488TIP3    H267956   2.462   6.175   0.948 -2.6941 -0.1182  0.0569
15489TIP3   OH267957   3.144   3.137   4.673  0.2330 -0.1008  0.1562
15489TIP3    H167958   3.184   3.110   4.756  1.1300 -0.5054 -0.4045
15489TIP3    H267959   3.098   3.218   4.694  1.3780  0.3866  0.7961
15490TIP3   OH267960   4.135   5.036  15.264 -0.4342 -0.7027  0.2153
15490TIP3    H167961   4.076   4.962  15.249 -2.2775  0.4291  1.6793
15490TIP3    H267962   4.122   5.093  15.189 -1.0039 -0.5902  0.3976
15491TIP3   OH267963   3.170   4.852  17.227  0.3423  0.7878 -0.5990
15491TIP3    H167964   3.084   4.850  17.186 -0.3566 -1.7474  0.9191
15491TIP3    H267965   3.171   4.933  17.278 -1.1022  0.8665 -0.6935
15492TIP3   OH267966   3.716   4.474  14.796 -0.0717 -0.3420  0.3376
15492TIP3    H167967   3.702   4.548  14.855 -0.9236 -1.5723  1.7273
15492TIP3    H267968   3.688   4.506  14.710 -0.1982  1.0142  0.8698
15493TIP3   OH267969   1.887   2.900   4.556  0.1805  0.2062  0.4449
15493TIP3    H167970   1.970   2.926   4.596 -0.0962  0.6987  0.6929
15493TIP3    H267971   1.820   2.931   4.616 -0.2363  0.8509 -0.3471
15494TIP3   OH267972   6.549   6.312   4.466 -0.5235 -0.1231 -0.1862
15494TIP3    H167973   6.507   6.291   4.549  0.5707  1.4692  0.7993
15494TIP3    H267974   6.626   6.363   4.490  0.5275 -0.7379 -2.1140
15495TIP3   OH267975   5.190   1.640  12.982  0.4741 -0.3389  0.5759
15495TIP3    H167976   5.270   1.684  13.012  0.0571  0.0392  1.1431
15495TIP3    H267977   5.191   1.651  12.887 -0.7529  2.8480  0.8899
15496TIP3   OH267978   0.567   2.531   5.157  0.5293  0.0646  0.3973
15496TIP3    H167979   0.525   2.545   5.242 -0.5355 -2.5096  0.3630
15496TIP3    H267980   0.598   2.617   5.131 -1.4846  1.3893  2.1719
15497TIP3   OH267981   6.819   5.995   1.619  0.2868 -0.1733 -0.1627
15497TIP3    H167982   6.830   5.900   1.612 -0.8854 -0.3381  0.1372
15497TIP3    H267983   6.729   6.006   1.650  0.0369  1.0629 -1.3027
15498TIP3   OH267984   0.948   2.147  14.333 -0.2339  0.0866 -0.8684
15498TIP3    H167985   0.875   2.208  14.322 -0.1847  0.1234 -0.9996
15498TIP3    H267986   0.916   2.064  14.298 -0.3553 -0.0037 -0.5448
15499TIP3   OH267987   6.267   6.583  11.490 -0.2891 -0.0190 -0.3008
15499TIP3    H167988   6.231   6.585  11.401 -0.7645 -0.9205 -0.1348
15499TIP3    H267989   6.258   6.492  11.518 -1.1388  0.4688  1.0717
15500TIP3   OH267990   4.851   0.419  13.594 -0.8046  1.0614  0.0906
15500TIP3    H167991   4.931   0.391  13.640 -0.2435  0.8041 -1.0140
15500TIP3    H267992   4.808   0.337  13.570 -0.2742  1.1500 -1.2298
15501TIP3   OH267993   0.149   1.537   3.093  0.0653 -0.5921 -0.0021
15501TIP3    H167994   0.179   1.478   3.024 -1.0587 -2.4108  1.0215
15501TIP3    H267995   0.181   1.498   3.174  0.1338  0.7359  0.6300
15502TIP3   OH267996   3.638   2.421  15.965 -0.2056  0.1745 -0.1713
15502TIP3    H167997   3.562   2.363  15.971 -0.2736  0.1153 -1.4732
15502TIP3    H267998   3.609   2.503  16.006 -0.0959 -0.7070  1.7073
15503TIP3   OH267999   2.574   0.183   5.416  0.5207 -0.2219  0.0205
15503TIP3    H168000   2.547   0.092   5.406  0.6516  0.0590 -3.5735
15503TIP3    H268001   2.660   0.188   5.375  0.7198  1.4276  0.5882
15504TIP3   OH268002   4.047   4.623   5.580  0.5055 -0.2853 -0.1507
15504TIP3    H168003   4.127   4.663   5.614  0.5113  1.1560 -1.7896
15504TIP3    H268004   4.044   4.651   5.489 -2.4118  0.5195  0.1558
15505TIP3   OH268005   3.124   1.662  17.027 -0.5444  0.1332 -0.8139
15505TIP3    H168006   3.132   1.594  17.095  0.5880  1.3473  0.2962
15505TIP3    H268007   3.156   1.620  16.948  0.5342 -0.5169 -0.0507
15506TIP3   OH268008   1.281   2.804  13.108  0.0488 -0.7542  0.4065
15506TIP3    H168009   1.272   2.836  13.198 -0.8495  0.8774 -0.2388
15506TIP3    H268010   1.252   2.713  13.112 -1.1644 -0.3385  1.5317
15507TIP3   OH268011   0.086   5.726  16.093 -0.1472 -0.0488 -0.2124
15507TIP3    H168012   0.065   5.633  16.095 -0.2978 -0.0292 -0.9169
15507TIP3    H268013   0.118   5.742  16.004 -0.3211  0.6144 -0.1610
15508TIP3   OH268014   3.171   4.113  14.749  0.0038  0.2112  0.1614
15508TIP3    H168015   3.138   4.195  14.787  1.1824  0.5367  0.5069
15508TIP3    H268016   3.260   4.105  14.783  0.5184 -0.3190 -1.2948
15509TIP3   OH268017   3.279   0.126   4.300  0.7802 -0.1103 -0.5131
15509TIP3    H168018   3.276   0.053   4.240  1.6989  0.4153 -1.2019
15509TIP3    H268019   3.358   0.175   4.277  1.6169 -0.3564  1.6510
15510TIP3   OH268020   0.986   1.567  16.025  0.1529  0.0906  0.2123
15510TIP3    H168021   0.900   1.560  15.984  0.0245  0.3559  0.4312
15510TIP3    H268022   0.967   1.589  16.117  0.3889 -2.2514  0.8333
15511TIP3   OH268023   5.696   4.016   1.849 -0.3268 -0.6106 -0.3943
15511TIP3    H168024   5.692   4.111   1.852 -0.5228 -0.6761  2.4549
15511TIP3    H268025   5.779   3.994   1.891 -0.0351 -1.6993 -1.4963
15512TIP3   OH268026   2.964   1.238  14.046  0.8741 -0.1766  0.3548
15512TIP3    H168027   2.923   1.314  14.005  1.1259  0.4316  1.1979
15512TIP3    H268028   2.923   1.162  14.004 -0.1324  0.4255  0.2286
15513TIP3   OH268029   5.293   2.387  12.894  0.0463  0.4544 -0.4763
15513TIP3    H168030   5.294   2.292  12.909 -1.1152  0.2999 -1.3249
15513TIP3    H268031   5.322   2.398  12.804  3.1430  1.1327  0.5326
15514TIP3   OH268032   1.015   3.654  11.268 -0.2867 -0.3102  0.3933
15514TIP3    H168033   1.010   3.559  11.262 -1.3477 -0.2247 -0.0519
15514TIP3    H268034   1.076   3.670  11.341 -1.6283 -1.3224  1.7592
15515TIP3   OH268035   3.440   4.465  16.147  0.6071  0.0692 -0.1645
15515TIP3    H168036   3.437   4.370  16.155 -0.2949  0.0310 -0.8280
15515TIP3    H268037   3.370   4.486  16.084 -0.6461  1.3320  1.5881
15516TIP3   OH268038   0.836   1.655  16.606 -0.0735 -0.2605  0.0396
15516TIP3    H168039   0.893   1.685  16.677 -1.1713 -0.2433  0.9107
15516TIP3    H268040   0.829   1.561  16.620  1.6933 -0.6546 -1.4886
15517TIP3   OH268041   6.392   2.911  16.557 -0.0222  0.2969  0.4648
15517TIP3    H168042   6.403   2.820  16.530 -0.1590  0.3677  0.1760
15517TIP3    H268043   6.319   2.908  16.620 -0.3888  0.2897  0.0389
15518TIP3   OH268044   4.168   2.140  11.608 -0.0638 -0.3976 -0.5617
15518TIP3    H168045   4.253   2.106  11.579 -0.1237  1.9007 -3.6650
15518TIP3    H268046   4.183   2.233  11.623 -1.8230 -0.1691 -0.1015
15519TIP3   OH268047   4.340   0.888  16.880 -0.8995  0.0442 -0.0532
15519TIP3    H168048   4.389   0.903  16.961 -1.7627  0.3473  0.4291
15519TIP3    H268049   4.283   0.814  16.900 -0.9663 -0.0115 -0.4497
15520TIP3   OH268050   6.214   6.025  12.583 -0.4472 -0.5643 -0.2939
15520TIP3    H168051   6.149   5.981  12.530 -1.0004 -2.3717  1.8347
15520TIP3    H268052   6.243   5.959  12.646  1.3061  1.0695  0.6713
15521TIP3   OH268053   1.433   5.522   5.807 -1.0264  0.0077 -0.0173
15521TIP3    H168054   1.392   5.481   5.731 -0.4645  0.9882 -0.8699
15521TIP3    H268055   1.370   5.512   5.878 -1.8523 -0.3036 -0.7942
15522TIP3   OH268056   0.570   5.391  15.728 -0.0783 -0.2044 -0.1764
15522TIP3    H168057   0.616   5.455  15.782  0.9211 -1.0720  0.0191
15522TIP3    H268058   0.623   5.312  15.733 -0.8998 -0.8324 -1.0200
15523TIP3   OH268059   3.369   0.126   4.817 -0.4868  0.1594  0.7091
15523TIP3    H168060   3.339   0.036   4.801 -0.5411  0.1187  1.0486
15523TIP3    H268061   3.350   0.142   4.909  0.7120  0.0696  0.9736
15524TIP3   OH268062   2.057   6.690   3.867 -0.4056  0.1481 -0.2792
15524TIP3    H168063   2.123   6.649   3.810 -1.2507 -0.9967 -0.4340
15524TIP3    H268064   2.097   6.774   3.893  0.4577  0.1611 -1.6287
15525TIP3   OH268065   3.793   2.604  12.357  0.6978  0.0640 -0.0505
15525TIP3    H168066   3.831   2.516  12.352  0.0707 -0.0852 -2.8111
15525TIP3    H268067   3.865   2.663  12.336  0.3904  0.0193 -1.2485
15526TIP3   OH268068   5.422   3.972   2.746  0.3528  0.1326  0.1263
15526TIP3    H168069   5.429   3.979   2.651 -1.6573 -0.7521 -0.1188
15526TIP3    H268070   5.364   4.043   2.771  1.5410  0.8747  0.8088
15527TIP3   OH268071   6.479   4.266   2.813 -0.1911 -0.1229  0.3374
15527TIP3    H168072   6.569   4.298   2.818 -0.0391 -0.5727  0.4845
15527TIP3    H268073   6.438   4.294   2.895 -0.6938  1.6189 -0.4949
15528TIP3   OH268074   1.086   5.490   2.615  0.1763  0.5486 -0.1143
15528TIP3    H168075   1.104   5.419   2.677 -2.3552 -0.3185 -0.3261
15528TIP3    H268076   1.042   5.557   2.668 -2.2365 -0.3095 -0.9763
15529TIP3   OH268077   5.545   2.519   3.640  0.0033 -0.1924  0.0790
15529TIP3    H168078   5.473   2.459   3.658  1.4305 -1.7300  0.7938
15529TIP3    H268079   5.566   2.505   3.548  0.5033 -0.9617  0.3138
15530TIP3   OH268080   3.677   3.653   3.837  0.0315 -0.2940 -0.2327
15530TIP3    H168081   3.707   3.665   3.927 -1.3572  2.6581 -0.1199
15530TIP3    H268082   3.583   3.641   3.845 -0.7512  4.1009 -1.5050
15531TIP3   OH268083   1.661   5.919   1.567  0.0476 -0.0316  0.0730
15531TIP3    H168084   1.691   5.948   1.653  0.4710  1.4145 -0.5484
15531TIP3    H268085   1.585   5.864   1.585  0.7685 -0.5835  1.4264
15532TIP3   OH268086   6.575   4.918   1.514  0.1703  0.0959 -0.2085
15532TIP3    H168087   6.642   4.969   1.469  0.1636  0.1958 -0.1071
15532TIP3    H268088   6.623   4.872   1.583  0.1786 -0.0455 -0.3076
15533TIP3   OH268089   0.382   4.516  11.212  0.6005  0.5235 -0.3302
15533TIP3    H168090   0.352   4.480  11.295  0.8034 -1.0287 -0.9067
15533TIP3    H268091   0.379   4.611  11.224 -0.8849  0.3367  0.8961
15534TIP3   OH268092   3.358   5.420  16.270 -0.2767 -0.6397 -0.8023
15534TIP3    H168093   3.452   5.410  16.286 -0.0163  0.3099 -1.6786
15534TIP3    H268094   3.346   5.514  16.258 -1.4213 -0.7060 -0.2236
15535TIP3   OH268095   6.151   4.874  16.633 -0.5861 -0.5554 -0.3672
15535TIP3    H168096   6.103   4.806  16.587  1.7069 -2.4751 -0.0117
15535TIP3    H268097   6.162   4.841  16.722  0.1821  0.4435 -0.0733
15536TIP3   OH268098   2.955   5.110  16.314  0.2201  0.5939 -0.4527
15536TIP3    H168099   2.865   5.103  16.347  0.7821 -0.7009  0.8886
15536TIP3    H268100   3.004   5.147  16.388  0.5872  2.4820 -1.5976
15537TIP3   OH268101   4.057   0.547  13.584 -0.1136  0.5098  0.7376
15537TIP3    H168102   4.015   0.467  13.616 -1.1819  0.2781 -1.1572
15537TIP3    H268103   3.998   0.618  13.610 -0.3802  0.4367  0.3416
15538TIP3   OH268104   1.843   4.110   0.343 -0.5564 -0.0805  0.2275
15538TIP3    H168105   1.854   4.146   0.432  0.4765 -1.8167  0.8223
15538TIP3    H268106   1.749   4.118   0.326 -0.4750  2.2046  0.6193
15539TIP3   OH268107   2.352   4.058   3.622 -0.0849  0.2628 -0.1083
15539TIP3    H168108   2.355   4.039   3.716 -1.1912 -0.4047 -0.1964
15539TIP3    H268109   2.298   3.988   3.585 -1.3188  1.6366 -0.9637
15540TIP3   OH268110   0.715   3.505   1.275  0.2785 -0.0559  0.4528
15540TIP3    H168111   0.679   3.460   1.352 -0.9875 -0.0815 -0.1452
15540TIP3    H268112   0.716   3.438   1.207 -1.4398  0.7473 -0.3882
15541TIP3   OH268113   2.981   6.285   4.446  0.2255  0.1731  0.0593
15541TIP3    H168114   3.073   6.309   4.451  0.5532 -0.9992 -0.1457
15541TIP3    H268115   2.980   6.191   4.463 -0.9332  0.1739  0.0514
15542TIP3   OH268116   1.737   1.923  15.007  0.0572  0.1319  0.5713
15542TIP3    H168117   1.730   2.010  15.045 -0.1217  0.9140 -1.2141
15542TIP3    H268118   1.651   1.882  15.024 -0.5852  1.0592 -0.3872
15543TIP3   OH268119   6.711   2.459   4.195 -0.1910  0.0291  0.6650
15543TIP3    H168120   6.629   2.507   4.189 -0.5838 -0.5716  1.1366
15543TIP3    H268121   6.694   2.391   4.261  0.5017 -0.4488  0.3559
15544TIP3   OH268122   2.719   4.610  13.845 -0.0959  0.0093  0.1267
15544TIP3    H168123   2.765   4.622  13.928 -0.9715 -0.2728  0.6660
15544TIP3    H268124   2.778   4.646  13.779  0.6901  0.0680  0.8512
15545TIP3   OH268125   6.069   1.662  16.072  0.4569  0.2484 -0.7441
15545TIP3    H168126   6.151   1.710  16.077  2.1721 -2.5939 -0.0668
15545TIP3    H268127   6.041   1.654  16.163 -0.8611  1.6600 -1.0165
15546TIP3   OH268128   6.179   0.896  14.806  0.3868 -0.4077 -0.8532
15546TIP3    H168129   6.115   0.887  14.735  0.9384  0.2471 -1.4510
15546TIP3    H268130   6.260   0.859  14.770  0.2916 -1.4452 -0.0169
15547TIP3   OH268131   1.182   0.918  15.867 -0.0534 -0.2253 -0.7806
15547TIP3    H168132   1.181   0.990  15.804  0.1951  0.2582 -0.2348
15547TIP3    H268133   1.248   0.858  15.834  1.7815  1.1692  0.2871
15548TIP3   OH268134   3.743   5.180  10.658 -0.7836 -0.7541  0.2533
15548TIP3    H168135   3.668   5.120  10.657 -2.0820  0.8161 -2.0778
15548TIP3    H268136   3.819   5.122  10.655 -1.9116 -2.3577  1.2303
15549TIP3   OH268137   1.475   5.906   1.045  0.0884 -0.0320  0.4724
15549TIP3    H168138   1.528   5.926   1.122  0.3932  0.0333  0.2463
15549TIP3    H268139   1.420   5.832   1.072  1.7397 -1.4266  0.0547
15550TIP3   OH268140   1.629   3.830  16.918 -0.1102  0.9172  0.2432
15550TIP3    H168141   1.689   3.817  16.991  0.6350  0.8994 -0.3683
15550TIP3    H268142   1.668   3.902  16.867 -0.9850  1.4065  0.2421
15551TIP3   OH268143   6.200   5.928   1.371  0.1830 -0.2217  0.0343
15551TIP3    H168144   6.146   5.883   1.436  0.9989 -0.7985  0.3115
15551TIP3    H268145   6.156   6.013   1.358 -0.8248 -0.7136  0.2068
15552TIP3   OH268146   0.551   2.229   1.681 -0.7482 -0.6015  0.1689
15552TIP3    H168147   0.589   2.179   1.609 -0.6297  0.6234 -0.6493
15552TIP3    H268148   0.590   2.192   1.760 -1.1073 -2.1678 -0.3679
15553TIP3   OH268149   6.503   1.054   0.167 -0.4385 -0.0077  0.4187
15553TIP3    H168150   6.452   1.130   0.140 -0.7879  0.0693  1.2583
15553TIP3    H268151   6.556   1.032   0.091  1.2409  2.3731  0.8525
15554TIP3   OH268152   2.934   4.592  15.575 -0.1194 -0.1321 -0.2003
15554TIP3    H168153   2.928   4.656  15.503  0.8984  0.7247  0.4550
15554TIP3    H268154   2.918   4.644  15.654  1.0255 -0.6188  0.3664
15555TIP3   OH268155   4.638   4.461  11.322  0.1605  0.7500 -0.3220
15555TIP3    H168156   4.681   4.450  11.237 -1.0681  1.8094 -1.0886
15555TIP3    H268157   4.622   4.372  11.352  3.2339  0.2987  0.1706
15556TIP3   OH268158   4.139   2.798   0.015 -0.0708  0.5394  0.1481
15556TIP3    H168159   4.058   2.782  -0.033  0.9666 -3.1566 -0.5164
15556TIP3    H268160   4.120   2.767   0.104  1.0889 -1.9401 -0.4322
15557TIP3   OH268161   0.645   3.586   2.508 -0.0971 -0.3515 -0.1673
15557TIP3    H168162   0.621   3.597   2.599  2.4787  0.2169  0.4910
15557TIP3    H268163   0.690   3.667   2.484  1.1164 -1.3087 -1.2898
15558TIP3   OH268164   1.318   4.791  16.222 -0.2991 -0.2868  0.2004
15558TIP3    H168165   1.232   4.833  16.226 -0.1171  0.1449 -0.3570
15558TIP3    H268166   1.319   4.748  16.136  0.4792  0.6525 -0.2689
15559TIP3   OH268167   0.785   4.849   1.309  0.0990 -0.1607 -0.4288
15559TIP3    H168168   0.795   4.892   1.224 -0.5537 -1.2009 -1.0499
15559TIP3    H268169   0.691   4.833   1.316  0.2188 -0.5950  0.2264
15560TIP3   OH268170   3.236   3.723  11.980  0.1455  0.3067  0.4717
15560TIP3    H168171   3.288   3.755  12.054 -0.2102  2.7233 -0.2959
15560TIP3    H268172   3.154   3.695  12.020  0.5503  0.1274  1.1912
15561TIP3   OH268173   3.494   5.734   2.900 -0.4823 -0.3765 -0.1287
15561TIP3    H168174   3.528   5.821   2.922  0.0479 -0.0618 -2.0825
15561TIP3    H268175   3.429   5.716   2.968  0.1221  1.1179  0.8746
15562TIP3   OH268176   4.698   1.472   4.954  0.1142 -0.3244  0.4176
15562TIP3    H168177   4.645   1.408   5.000  0.0299  0.0143  0.7884
15562TIP3    H268178   4.697   1.549   5.009  0.3161 -0.0397  0.0286
15563TIP3   OH268179   4.351   0.046   4.920  0.4989  0.3223  0.1631
15563TIP3    H168180   4.307   0.106   4.980 -2.4841  0.2307 -1.7987
15563TIP3    H268181   4.357   0.095   4.838  1.1011 -0.8702 -0.5193
15564TIP3   OH268182   6.722   5.303   1.044 -0.2915  0.0901 -0.0786
15564TIP3    H168183   6.680   5.358   1.110  0.5035  0.6572 -0.0401
15564TIP3    H268184   6.722   5.356   0.965  0.4984  0.1621 -0.0342
15565TIP3   OH268185   0.707   1.229  16.183  0.1105  0.4792  0.1949
15565TIP3    H168186   0.762   1.188  16.249  0.4993  1.2601  0.3678
15565TIP3    H268187   0.618   1.222  16.218  0.2982  0.7365  0.7196
15566TIP3   OH268188   6.061   0.338  11.122 -0.1455 -0.0972 -0.1264
15566TIP3    H168189   6.073   0.284  11.044 -2.2642  1.2910 -1.4635
15566TIP3    H268190   6.092   0.425  11.096 -0.1391  0.2002  0.8496
15567TIP3   OH268191   1.868   3.977  13.296  0.0118 -0.0785 -0.2277
15567TIP3    H168192   1.832   3.978  13.385 -0.9306  0.4767 -0.6037
15567TIP3    H268193   1.792   3.991  13.239  0.6716  0.0319 -1.0932
15568TIP3   OH268194   3.367   4.754  13.266  0.2039 -0.0476 -0.2747
15568TIP3    H168195   3.339   4.690  13.200 -1.0115  0.4793 -0.2825
15568TIP3    H268196   3.372   4.703  13.347  0.1432 -0.3566 -0.4638
15569TIP3   OH268197   6.559   0.462   1.877  0.3584  0.5303  0.2461
15569TIP3    H168198   6.556   0.554   1.852  0.5841  0.6376  0.5967
15569TIP3    H268199   6.532   0.462   1.969  0.1898  0.2280  0.1949
15570TIP3   OH268200   5.072   1.891   1.651 -0.4134  0.5535  0.1943
15570TIP3    H168201   5.000   1.833   1.674  0.1773  0.4073  1.7511
15570TIP3    H268202   5.120   1.845   1.582 -0.5975 -0.3100  0.6370
15571TIP3   OH268203   4.035   4.182   1.712 -0.1025  0.1425 -0.0871
15571TIP3    H168204   4.024   4.114   1.778 -2.5439 -1.0973 -1.7185
15571TIP3    H268205   3.967   4.246   1.733 -1.5030 -0.7132 -1.9028
15572TIP3   OH268206   4.142   6.024  15.389  0.0746 -0.3198 -0.1398
15572TIP3    H168207   4.079   6.053  15.455 -1.9963 -1.6530 -1.4641
15572TIP3    H268208   4.109   5.939  15.360  1.0340  0.1623 -2.7877
15573TIP3   OH268209   5.884   2.955  15.867 -0.0601  0.4843  0.6840
15573TIP3    H168210   5.870   3.001  15.949 -0.7364  2.0498 -0.2918
15573TIP3    H268211   5.852   2.866  15.884  0.8746  0.4523  2.4380
15574TIP3   OH268212   1.710   6.390   3.130 -0.6207  0.6942  0.0942
15574TIP3    H168213   1.673   6.405   3.217 -0.2763 -1.0473  0.5626
15574TIP3    H268214   1.747   6.302   3.135 -1.9683 -0.0553 -2.2828
15575TIP3   OH268215   5.525   2.357   1.455  0.3157  0.8132  0.2186
15575TIP3    H168216   5.479   2.411   1.520  1.1244  1.4130  0.3015
15575TIP3    H268217   5.481   2.272   1.459 -2.2921  2.0288 -1.3594
15576TIP3   OH268218   1.458   0.966   3.692  0.1399  0.1385  0.0545
15576TIP3    H168219   1.524   1.008   3.637 -1.7442  1.3812 -1.3382
15576TIP3    H268220   1.444   0.880   3.652 -0.0832  0.4253 -0.4920
15577TIP3   OH268221   5.520   6.413   0.400 -0.3983  0.0587 -0.0478
15577TIP3    H168222   5.495   6.456   0.318 -0.7502 -1.2009 -0.6165
15577TIP3    H268223   5.438   6.382   0.437  0.0678 -2.4920 -1.0146
15578TIP3   OH268224   2.983   0.255   5.465 -0.5076  0.2155  0.2659
15578TIP3    H168225   3.004   0.190   5.533 -1.1240 -0.7207 -0.4227
15578TIP3    H268226   3.066   0.297   5.446 -0.5588  1.4367  2.5562
15579TIP3   OH268227   1.851   3.212  15.313 -0.0431  0.1164  0.4448
15579TIP3    H168228   1.897   3.202  15.397  0.3691 -0.6656  0.1288
15579TIP3    H268229   1.914   3.255  15.256 -0.1827  0.2653  0.3999
15580TIP3   OH268230   4.399   2.847   4.382 -0.0684 -0.0618 -0.3627
15580TIP3    H168231   4.309   2.844   4.413 -0.0760 -3.7211 -0.5813
15580TIP3    H268232   4.446   2.898   4.448 -2.1404  1.3568  0.0505
15581TIP3   OH268233   3.744   1.664   6.005 -0.2873  0.1118  0.5932
15581TIP3    H168234   3.696   1.736   5.965 -0.3914  1.4256  2.9730
15581TIP3    H268235   3.736   1.679   6.099  1.2621 -1.9835  1.1096
15582TIP3   OH268236   0.434   3.398  11.276  0.3705  0.2134  0.9770
15582TIP3    H168237   0.461   3.439  11.193 -1.5112  0.9396  0.6982
15582TIP3    H268238   0.494   3.323  11.286  0.9983  0.4539 -0.7388
15583TIP3   OH268239   2.409   4.670   5.596  0.6265 -1.0262  0.5025
15583TIP3    H168240   2.484   4.645   5.542  0.4492 -1.8239  0.6244
15583TIP3    H268241   2.372   4.746   5.551  1.7944 -0.3252  0.7091
15584TIP3   OH268242   1.879   4.096   6.653  0.0685  0.2177 -0.4210
15584TIP3    H168243   1.845   4.186   6.657 -0.4778 -0.0004 -0.1436
15584TIP3    H268244   1.971   4.105   6.675 -0.1501  0.6187  0.3494
15585TIP3   OH268245   3.109   5.061  15.620 -0.2375  0.5815  0.0468
15585TIP3    H168246   3.023   5.060  15.577 -0.7584  2.3573  1.0143
15585TIP3    H268247   3.093   5.101  15.705  1.4267  0.2598  0.5232
15586TIP3   OH268248   1.177   6.237   5.443 -0.5819 -0.2359 -0.1993
15586TIP3    H168249   1.088   6.265   5.461 -0.3902 -0.4287  1.0785
15586TIP3    H268250   1.232   6.294   5.497  0.0626 -0.2353 -0.8402
15587TIP3   OH268251   6.659   4.714  12.880 -0.3146  0.5696 -0.4769
15587TIP3    H168252   6.668   4.802  12.845 -1.0922  0.3886 -1.1411
15587TIP3    H268253   6.625   4.727  12.969 -0.0991  0.9494 -0.4484
15588TIP3   OH268254   4.000   6.155   6.196 -0.3038 -0.2195  0.2006
15588TIP3    H168255   4.064   6.187   6.260 -1.0772  2.3879 -0.3117
15588TIP3    H268256   3.919   6.147   6.245 -0.1783 -1.2621  0.2666
15589TIP3   OH268257   1.541   1.052  11.375 -0.1675  0.2289  0.6563
15589TIP3    H168258   1.480   0.998  11.426  1.1298 -1.5923  0.2928
15589TIP3    H268259   1.488   1.127  11.347 -2.3085 -1.3912  0.2192
15590TIP3   OH268260   3.229   1.315   0.165 -0.0011 -0.6648 -0.2285
15590TIP3    H168261   3.268   1.365   0.237  1.2970 -1.1980 -0.5558
15590TIP3    H268262   3.218   1.227   0.199  0.8361 -0.9770 -0.7653
15591TIP3   OH268263   6.679   2.154   2.755 -0.6941 -0.0214  0.2556
15591TIP3    H168264   6.722   2.088   2.809 -2.1483 -0.6726  0.6423
15591TIP3    H268265   6.746   2.219   2.738 -0.1237 -0.0063  2.5167
15592TIP3   OH268266   1.216   6.511   1.947 -0.5799 -0.1911 -0.2749
15592TIP3    H168267   1.263   6.557   1.877  0.2344 -2.6185 -1.3421
15592TIP3    H268268   1.161   6.579   1.986  0.9876  1.8393 -1.4604
15593TIP3   OH268269   3.273   3.910  10.909 -0.4944  0.4697 -1.0894
15593TIP3    H168270   3.335   3.983  10.903 -1.3186  1.1200 -1.7832
15593TIP3    H268271   3.187   3.950  10.893 -1.1037 -0.4098 -0.0877
15594TIP3   OH268272   0.490   4.602  15.740  0.5167  0.3883 -0.2596
15594TIP3    H168273   0.564   4.659  15.759  1.5143 -0.0878 -2.5362
15594TIP3    H268274   0.495   4.533  15.805  1.7617  0.6443 -0.0730
15595TIP3   OH268275   2.385   5.961   2.511 -0.1833  0.1181 -0.3421
15595TIP3    H168276   2.466   5.990   2.470  0.2134  2.2845  1.8628
15595TIP3    H268277   2.383   6.005   2.595 -2.3971 -1.9380  0.7663
15596TIP3   OH268278   6.752   2.833   2.276  0.3279  0.0635 -0.0709
15596TIP3    H168279   6.751   2.750   2.322  0.5166  0.0240 -0.1362
15596TIP3    H268280   6.661   2.861   2.274  0.2318 -0.2674 -0.2791
15597TIP3   OH268281   1.152   4.385  10.767 -0.3818 -0.1243 -0.3060
15597TIP3    H168282   1.123   4.457  10.711  1.9575 -0.0990 -1.5428
15597TIP3    H268283   1.101   4.395  10.848  1.2600  4.0788  0.3050
15598TIP3   OH268284   0.877   2.492   3.729  0.6378 -0.4533 -0.0337
15598TIP3    H168285   0.862   2.398   3.726  1.5983 -0.5523 -2.4954
15598TIP3    H268286   0.939   2.504   3.801 -1.2944 -1.4034  1.8349
15599TIP3   OH268287   0.449   1.258  16.244  0.1424 -0.1345  0.1070
15599TIP3    H168288   0.426   1.343  16.206 -1.4960 -1.3203 -1.6603
15599TIP3    H268289   0.411   1.260  16.332  0.9751  1.3326  0.4431
15600TIP3   OH268290   4.984   5.255  13.832  0.0385 -0.8358  0.4546
15600TIP3    H168291   5.032   5.328  13.793 -0.1491  0.2558  2.2108
15600TIP3    H268292   5.049   5.209  13.885 -0.1444 -1.2159  0.3555
15601TIP3   OH268293   2.456   3.454  11.057 -0.9022 -0.1626  0.5302
15601TIP3    H168294   2.550   3.465  11.044 -1.1054  1.4822  0.3388
15601TIP3    H268295   2.439   3.364  11.029  0.0433  0.6093 -2.8372
15602TIP3   OH268296   6.693   2.012   6.153 -0.4776  0.1816  0.5443
15602TIP3    H168297   6.788   2.002   6.152 -0.1149  3.1535 -2.1609
15602TIP3    H268298   6.666   1.984   6.241  2.7364 -1.6523  1.0230
15603TIP3   OH268299   1.193   6.585  11.952  0.0914 -0.3358 -0.3080
15603TIP3    H168300   1.118   6.525  11.954 -0.0470 -0.2173 -1.7017
15603TIP3    H268301   1.179   6.642  12.028 -2.5554  1.2589 -1.8934
15604TIP3   OH268302   6.376   3.362  16.003  0.6212  0.1156 -0.0227
15604TIP3    H168303   6.463   3.323  15.994  0.6154 -0.0488  0.6647
15604TIP3    H268304   6.366   3.379  16.096  1.7086  4.1945 -0.5326
15605TIP3   OH268305   5.298   4.909  16.122 -0.0001  0.0408 -0.0276
15605TIP3    H168306   5.391   4.895  16.104 -0.0209 -1.5133  1.0145
15605TIP3    H268307   5.292   5.000  16.149  1.3887 -0.1344  0.9154
15606TIP3   OH268308   2.901   3.249   5.438  0.4195  0.2184  0.1621
15606TIP3    H168309   2.977   3.205   5.400  1.0905  1.2154  0.3465
15606TIP3    H268310   2.826   3.203   5.401  1.1069 -1.0403  0.2936
15607TIP3   OH268311   4.713   1.784  13.773 -0.4177  0.5822  0.3971
15607TIP3    H168312   4.785   1.819  13.825  0.1014 -0.5543  0.4624
15607TIP3    H268313   4.645   1.762  13.837  0.6768 -1.9208  0.7581
15608TIP3   OH268314   6.474   1.752  15.129 -0.3447  0.4158  0.9875
15608TIP3    H168315   6.475   1.709  15.043 -0.9390 -0.1000  1.2347
15608TIP3    H268316   6.533   1.826  15.120  0.8636 -0.5694  0.5967
15609TIP3   OH268317   0.096   2.239  13.119  0.2032 -0.3440 -0.4957
15609TIP3    H168318   0.059   2.181  13.052 -0.3068 -1.7757  0.9963
15609TIP3    H268319   0.149   2.181  13.173 -0.7420  0.4775  1.3438
15610TIP3   OH268320   3.042   4.464   4.156 -0.5659  0.4999 -0.0787
15610TIP3    H168321   3.008   4.491   4.241 -0.5687 -0.5716  0.2591
15610TIP3    H268322   2.976   4.405   4.121  0.0462 -0.0877 -0.2510
15611TIP3   OH268323   6.392   3.384   0.856 -0.3380  0.3263 -0.7195
15611TIP3    H168324   6.409   3.302   0.810  1.1114  0.4505 -0.4202
15611TIP3    H268325   6.460   3.389   0.923 -2.3235  0.1977  1.4079
15612TIP3   OH268326   5.378   5.338   3.165 -0.2070 -0.1458 -0.6149
15612TIP3    H168327   5.425   5.258   3.143  0.6617  0.1376  0.1424
15612TIP3    H268328   5.290   5.309   3.188  0.4913 -1.0425  0.9864
15613TIP3   OH268329   2.516   1.890   5.830  0.1623  1.1480 -0.2917
15613TIP3    H168330   2.564   1.950   5.773  1.6363 -0.7503 -1.1057
15613TIP3    H268331   2.555   1.903   5.917  1.5574  0.3002 -0.7698
15614TIP3   OH268332   3.446   2.973   3.756 -0.4728 -0.5004 -0.0640
15614TIP3    H168333   3.387   3.030   3.805  1.1105  1.3027 -0.1997
15614TIP3    H268334   3.508   2.940   3.821  0.6256  0.5885 -0.5344
15615TIP3   OH268335   4.046   2.056  16.352  0.3409  0.4157  0.0815
15615TIP3    H168336   4.113   1.989  16.364  0.3192  0.2405 -0.7662
15615TIP3    H268337   4.093   2.139  16.363  0.0328  0.2673  2.9138
15616TIP3   OH268338   5.721   2.055   6.251 -0.2552 -0.2223 -0.4486
15616TIP3    H168339   5.782   2.092   6.187  1.1460  0.9518  1.5159
15616TIP3    H268340   5.643   2.110   6.243  0.0065  0.0882 -0.9530
15617TIP3   OH268341   5.594   4.949  17.030 -0.3845  0.0073 -0.2206
15617TIP3    H168342   5.670   4.896  17.008 -1.5511 -1.6210 -0.4577
15617TIP3    H268343   5.519   4.897  16.999 -1.6330  1.1827  0.7546
15618TIP3   OH268344   3.481   3.541  16.146 -0.0533 -0.8187 -0.1458
15618TIP3    H168345   3.418   3.472  16.127  1.1417 -2.2873  1.0866
15618TIP3    H268346   3.432   3.605  16.197 -1.5299 -0.0454 -2.4251
15619TIP3   OH268347   3.970   4.584  12.603 -0.2495 -0.6694 -0.2989
15619TIP3    H168348   3.981   4.530  12.525  2.2811 -1.6216  0.6481
15619TIP3    H268349   3.931   4.524  12.668  0.3582 -0.7256  0.0247
15620TIP3   OH268350   5.723   4.798   1.267 -0.3780 -0.1993  0.2191
15620TIP3    H168351   5.815   4.803   1.293  0.0360  2.0736 -1.5186
15620TIP3    H268352   5.678   4.859   1.326 -0.1188  1.6231 -1.4010
15621TIP3   OH268353   2.662   1.177   2.125 -0.3879  0.7018 -0.1842
15621TIP3    H168354   2.609   1.237   2.178  1.9715  1.6837  1.1500
15621TIP3    H268355   2.658   1.094   2.171 -1.5867  0.4790 -0.6616
15622TIP3   OH268356   3.310   5.166  15.063  0.2069 -0.7330  0.0798
15622TIP3    H168357   3.294   5.255  15.095 -1.3833 -1.3884  1.1725
15622TIP3    H268358   3.392   5.173  15.013 -0.3003  1.4881 -0.5031
15623TIP3   OH268359   3.867   3.136  16.120  0.3908  0.2803 -0.4490
15623TIP3    H168360   3.787   3.158  16.072 -0.5212 -2.2103 -0.1168
15623TIP3    H268361   3.862   3.188  16.201 -0.7077  0.3874 -0.5880
15624TIP3   OH268362   5.727   6.489   4.307  0.3312  0.3032 -0.0794
15624TIP3    H168363   5.822   6.487   4.316  0.6427 -1.8545 -2.9716
15624TIP3    H268364   5.694   6.501   4.396  3.2299 -1.6095  1.3260
15625TIP3   OH268365   0.295   2.346  16.758  0.2167 -0.3702 -0.3076
15625TIP3    H168366   0.222   2.298  16.796  0.4644 -0.6466 -0.1798
15625TIP3    H268367   0.263   2.436  16.749 -0.6184 -0.7782 -1.5205
15626TIP3   OH268368   6.306   6.058  11.347  0.5980 -0.2933 -0.3580
15626TIP3    H168369   6.326   5.990  11.412  0.0883 -0.2466 -0.1431
15626TIP3    H268370   6.280   6.134  11.399  0.5868 -0.1230 -0.6113
15627TIP3   OH268371   5.058   0.883   0.229 -0.1957 -0.1426 -0.4782
15627TIP3    H168372   4.983   0.939   0.210 -0.8883 -0.7257  0.5095
15627TIP3    H268373   5.116   0.938   0.281 -0.5262 -0.0952 -0.1575
15628TIP3   OH268374   3.929   4.560   0.298  0.2684 -0.1050  1.0133
15628TIP3    H168375   4.006   4.609   0.325  1.3419 -1.1309 -0.0892
15628TIP3    H268376   3.963   4.475   0.269 -1.1254 -0.1180 -0.7107
15629TIP3   OH268377   2.765   5.615  11.544  0.1362  0.2303 -0.3719
15629TIP3    H168378   2.755   5.532  11.590 -0.8381 -0.3758 -1.6427
15629TIP3    H268379   2.814   5.593  11.464 -0.3336  0.8310 -0.8324
15630TIP3   OH268380   2.940   1.222   2.090  0.3091 -0.1083  0.6568
15630TIP3    H168381   2.938   1.311   2.126  2.2973  0.8465 -1.4595
15630TIP3    H268382   2.849   1.204   2.065  0.3193  2.4481 -1.4587
15631TIP3   OH268383   3.985   1.776  13.428  0.0950  0.0727 -0.2629
15631TIP3    H168384   3.901   1.764  13.473  0.8068 -1.7362  0.6231
15631TIP3    H268385   4.026   1.690  13.431  1.9359  0.9164 -0.7936
15632TIP3   OH268386   6.009   6.457  15.639 -0.2518 -0.3296 -0.2798
15632TIP3    H168387   5.917   6.449  15.612  0.1397 -0.8792 -1.4715
15632TIP3    H268388   6.039   6.367  15.647  0.1719 -0.1475  0.1712
15633TIP3   OH268389   4.236   0.693   0.215 -0.4738  0.6303 -0.1104
15633TIP3    H168390   4.174   0.632   0.174 -0.6378 -0.2883  1.4810
15633TIP3    H268391   4.262   0.650   0.296  1.3396  1.5632 -0.1722
15634TIP3   OH268392   2.587   2.500  14.989  0.6444 -0.4775  0.5184
15634TIP3    H168393   2.613   2.408  14.988  1.7955 -0.1536 -0.1367
15634TIP3    H268394   2.618   2.535  14.906 -1.7737 -0.0156 -0.2523
15635TIP3   OH268395   6.130   2.299   1.891 -0.1730  0.0605 -0.6537
15635TIP3    H168396   6.182   2.234   1.845 -0.2296 -0.1845 -0.3761
15635TIP3    H268397   6.046   2.300   1.845 -0.3353 -0.4013 -0.3717
15636TIP3   OH268398   4.898   5.959   4.704  0.3324  0.9458  0.7325
15636TIP3    H168399   4.898   6.049   4.673  1.3693  0.5288 -0.5379
15636TIP3    H268400   4.831   5.915   4.652  0.2266  0.8609  0.9412
15637TIP3   OH268401   1.154   6.645  16.039  0.1084  0.1298 -0.0583
15637TIP3    H168402   1.100   6.714  16.076  0.9845  0.5628  0.4515
15637TIP3    H268403   1.198   6.607  16.115 -0.5357 -1.1382 -0.3086
15638TIP3   OH268404   2.967   6.536   5.623  0.3568 -0.2995 -0.4991
15638TIP3    H168405   2.875   6.531   5.595 -0.4546 -3.0221  2.3278
15638TIP3    H268406   2.965   6.586   5.704  1.1790 -1.5410  0.2962
15639TIP3   OH268407   4.834   1.654  14.153 -0.4400 -0.5635  0.1665
15639TIP3    H168408   4.830   1.615  14.066  0.1507 -1.1057  0.3813
15639TIP3    H268409   4.918   1.701  14.155 -0.8354  0.1505  0.1459
15640TIP3   OH268410   3.024   1.783   6.837 -0.5553  0.1674  0.0812
15640TIP3    H168411   2.980   1.739   6.909 -1.4064 -0.0560 -0.5641
15640TIP3    H268412   2.988   1.872   6.838 -1.1243 -0.0499 -0.5202
15641TIP3   OH268413   3.540   3.069  12.250  0.3622  0.5501  0.0953
15641TIP3    H168414   3.571   3.158  12.234  0.3013  0.4604 -0.5132
15641TIP3    H268415   3.605   3.032  12.309 -0.3634  1.4663  1.5140
15642TIP3   OH268416   4.810   1.239   3.293  0.0955 -0.1223 -0.3829
15642TIP3    H168417   4.851   1.292   3.361 -1.4844  1.2071 -0.4232
15642TIP3    H268418   4.774   1.164   3.340 -2.1240  1.4346  0.5270
15643TIP3   OH268419   1.766   2.783  13.184 -0.0681 -0.2026 -0.4135
15643TIP3    H168420   1.708   2.853  13.215 -0.9977 -0.2914 -1.8695
15643TIP3    H268421   1.737   2.767  13.094  1.4320 -1.1032 -0.7477
15644TIP3   OH268422   3.090   0.740  11.701 -0.1092  0.4587  0.3179
15644TIP3    H168423   3.143   0.759  11.779  1.2220 -1.2634 -0.1463
15644TIP3    H268424   3.138   0.782  11.630 -0.0822  0.0269  0.0849
15645TIP3   OH268425   5.482   3.012   1.868  0.4749  0.1018 -0.0324
15645TIP3    H168426   5.398   3.042   1.832  0.2396  0.6087  0.9344
15645TIP3    H268427   5.520   2.958   1.798 -0.0752  0.8988 -0.9637
15646TIP3   OH268428   6.384   4.645  13.072 -0.1657 -0.1115 -0.0004
15646TIP3    H168429   6.422   4.727  13.104  1.6538 -0.7268 -0.5897
15646TIP3    H268430   6.292   4.667  13.056  0.2207  1.7214  0.1847
15647TIP3   OH268431   2.818   0.177   5.268  0.4173 -0.0423  0.7832
15647TIP3    H168432   2.873   0.222   5.332 -0.1369  0.7872  0.6909
15647TIP3    H268433   2.826   0.230   5.188 -0.3522 -0.0291  0.7142
15648TIP3   OH268434   0.837   5.665  16.485 -0.7201 -0.2048 -0.2743
15648TIP3    H168435   0.874   5.701  16.405 -0.3951  0.6790  0.2693
15648TIP3    H268436   0.767   5.726  16.509  0.8479  0.9432  1.5000
15649TIP3   OH268437   0.791   3.870  16.639 -0.3451 -0.8648  0.1027
15649TIP3    H168438   0.735   3.909  16.706 -0.7707 -1.1619 -0.0812
15649TIP3    H268439   0.738   3.800  16.601 -0.2295 -0.5007 -0.7577
15650TIP3   OH268440   4.809   0.809  11.873  0.6250  0.1375 -0.1506
15650TIP3    H168441   4.724   0.782  11.840  1.2761 -0.5486 -1.2972
15650TIP3    H268442   4.862   0.729  11.874  1.1781  0.5049  0.7929
15651TIP3   OH268443   6.062   5.069   6.555 -0.4271  0.5277  0.1486
15651TIP3    H168444   6.092   4.978   6.550 -1.7455  0.1295 -1.1603
15651TIP3    H268445   6.136   5.121   6.525 -0.4881 -0.3177 -1.5210
15652TIP3   OH268446   0.350   3.526   3.660 -0.1999  0.3016 -0.1241
15652TIP3    H168447   0.387   3.592   3.718  0.9485 -1.2558  0.9560
15652TIP3    H268448   0.387   3.443   3.691 -2.1291 -0.9370 -1.0083
15653TIP3   OH268449   5.251   2.613   5.032  0.0834 -0.0681 -0.2801
15653TIP3    H168450   5.307   2.655   5.098 -0.7309  1.1497 -0.3559
15653TIP3    H268451   5.312   2.584   4.965  0.6538  1.1045 -0.2812
15654TIP3   OH268452   5.421   0.959   1.212 -0.0166  0.3482  0.1062
15654TIP3    H168453   5.391   1.029   1.269  0.0080  0.4395  0.0062
15654TIP3    H268454   5.473   0.902   1.270  0.7983  0.9471 -0.0321
15655TIP3   OH268455   6.812   4.518   4.982 -0.0958 -0.3359 -0.1520
15655TIP3    H168456   6.724   4.536   5.016 -0.0819 -1.5795  0.5813
15655TIP3    H268457   6.825   4.425   4.998  2.0716  0.1866  1.4112
15656TIP3   OH268458   6.078   2.451   5.633 -0.0643 -0.2453  0.6250
15656TIP3    H168459   5.990   2.479   5.660 -0.0345 -2.2062  2.8729
15656TIP3    H268460   6.128   2.446   5.715  2.2927  1.2284 -0.6561
15657TIP3   OH268461   2.915   2.676  13.885 -0.1865 -0.2123  0.0746
15657TIP3    H168462   2.939   2.584  13.873  1.6624  0.4631 -1.6383
15657TIP3    H268463   2.882   2.703  13.799  0.4361  1.0730  0.2363
15658TIP3   OH268464   3.802   4.558  14.367  0.1380  0.6249  0.3654
15658TIP3    H168465   3.843   4.599  14.291 -0.2497  0.9580  0.3290
15658TIP3    H268466   3.875   4.537  14.426  0.2020  3.1310  1.2365
15659TIP3   OH268467   5.446   4.992   3.724  0.1057  0.2217 -0.2953
15659TIP3    H168468   5.540   4.977   3.709  0.2078 -2.0885  2.2189
15659TIP3    H268469   5.444   5.058   3.794 -0.1656  0.0126 -0.1094
15660TIP3   OH268470   3.252   0.973  16.210 -0.0431  0.0261  0.5322
15660TIP3    H168471   3.171   0.951  16.164  0.6632 -1.0975 -0.2092
15660TIP3    H268472   3.247   1.068  16.223 -0.2949  0.3604 -1.8185
15661TIP3   OH268473   3.475   3.852  13.380  0.5232 -0.2532 -0.1910
15661TIP3    H168474   3.380   3.844  13.376  0.6585 -2.1093 -0.0172
15661TIP3    H268475   3.497   3.910  13.307 -0.6690 -0.4642 -0.7371
15662TIP3   OH268476   6.161   0.029  16.997  0.1485  0.1565 -0.3183
15662TIP3    H168477   6.082  -0.018  17.020 -0.2695  1.4534  0.9620
15662TIP3    H268478   6.231  -0.036  17.002 -0.3815 -0.2968  1.6457
15663TIP3   OH268479   6.439   6.421   5.669 -0.5177 -0.3970 -0.2303
15663TIP3    H168480   6.515   6.474   5.692  0.3603 -2.2858  1.3312
15663TIP3    H268481   6.423   6.365   5.746 -2.7586 -0.8683 -0.9734
15664TIP3   OH268482   5.495   4.969   2.254  0.1633  0.2794  0.1521
15664TIP3    H168483   5.407   4.933   2.241  0.5713 -0.1084 -1.7732
15664TIP3    H268484   5.481   5.062   2.269 -0.6476  0.0366  0.9307
15665TIP3   OH268485   4.923   6.792   0.968  0.1109  0.2285  0.3819
15665TIP3    H168486   4.967   6.779   0.884 -1.7577  1.3303 -0.8161
15665TIP3    H268487   4.830   6.800   0.945 -0.6935 -1.6777  2.7974
15666TIP3   OH268488   1.385   5.271   3.606 -0.0624  0.2627  0.2461
15666TIP3    H168489   1.452   5.320   3.558 -0.6484  0.4391 -0.3859
15666TIP3    H268490   1.305   5.281   3.555  0.0461 -2.2824 -0.5046
15667TIP3   OH268491   6.715   5.812  15.528 -0.0301 -0.6858  0.0392
15667TIP3    H168492   6.805   5.779  15.533  0.9511  1.9104  0.1016
15667TIP3    H268493   6.707   5.847  15.439 -0.3029  0.9068  0.6764
15668TIP3   OH268494   0.318   6.388  11.510  0.5870  0.1091  0.2361
15668TIP3    H168495   0.359   6.435  11.582  2.0642 -2.1076  0.8961
15668TIP3    H268496   0.330   6.445  11.434  0.4299  1.7324  1.4035
15669TIP3   OH268497   5.697   0.004  13.156  0.0168 -0.3201  0.6422
15669TIP3    H168498   5.656   0.002  13.069 -0.1611  3.1856  0.5748
15669TIP3    H268499   5.625   0.022  13.216  0.9068  2.6167  0.8894
15670TIP3   OH268500   1.037   2.746   2.209 -0.3449  0.4107  0.1915
15670TIP3    H168501   1.004   2.786   2.290 -1.5730 -0.9428  0.3860
15670TIP3    H268502   1.117   2.701   2.235  0.5924  2.0278  0.1399
15671TIP3   OH268503   2.515   3.818   3.958  0.5118 -0.6517  0.0662
15671TIP3    H168504   2.489   3.728   3.937  1.6378 -0.6996 -1.1829
15671TIP3    H268505   2.543   3.815   4.050  2.2531 -1.9705 -0.4886
15672TIP3   OH268506   3.802   1.231  14.939 -0.7589  0.2293 -0.0166
15672TIP3    H168507   3.860   1.156  14.927 -0.8094  0.2251 -0.2242
15672TIP3    H268508   3.840   1.301  14.887 -0.4734  0.4776  0.5291
15673TIP3   OH268509   3.413   3.452  12.420  0.1988 -0.0320  0.0920
15673TIP3    H168510   3.502   3.418  12.420  0.5002  0.7380 -0.7238
15673TIP3    H268511   3.413   3.522  12.484 -0.7113 -2.2480  2.6085
15674TIP3   OH268512   3.704   3.615   6.123  0.3366 -0.7122 -0.1643
15674TIP3    H168513   3.730   3.687   6.181 -1.3298 -1.6007  1.7498
15674TIP3    H268514   3.662   3.658   6.048  0.0078  0.3582  0.6199
15675TIP3   OH268515   2.092   1.229  15.489 -0.0800 -0.1199 -0.3815
15675TIP3    H168516   2.023   1.199  15.548 -0.1652 -1.0136 -0.9312
15675TIP3    H268517   2.144   1.290  15.542  0.0238 -1.1397  0.7112
15676TIP3   OH268518   3.251   0.458   0.272  0.2961  0.4621 -0.0652
15676TIP3    H168519   3.220   0.370   0.294  0.5460  0.4134  0.0851
15676TIP3    H268520   3.208   0.477   0.189 -0.4121  0.5293  0.3102
15677TIP3   OH268521   0.197   5.938  16.226  0.4566  0.1502  0.3144
15677TIP3    H168522   0.160   5.851  16.214 -1.0553  0.8549 -0.3053
15677TIP3    H268523   0.163   5.989  16.153  2.6314  0.8602 -0.2509
15678TIP3   OH268524   0.108   4.558   2.939  0.2709  0.1185 -0.4873
15678TIP3    H168525   0.195   4.596   2.949  1.1926 -2.0333 -0.1821
15678TIP3    H268526   0.056   4.599   3.009  1.5250  0.0124  0.5185
15679TIP3   OH268527   2.676   6.294  13.297 -0.1680  0.1859  0.1040
15679TIP3    H168528   2.620   6.272  13.372  0.6005  0.2448  0.6966
15679TIP3    H268529   2.664   6.388  13.285 -1.1284 -0.0073 -0.5379
15680TIP3   OH268530   0.336   0.716  14.191 -0.0067 -0.1137 -0.9569
15680TIP3    H168531   0.285   0.760  14.122  0.6124  3.2500  0.6016
15680TIP3    H268532   0.325   0.773  14.267  2.3470 -1.7975  0.6850
15681TIP3   OH268533   5.088   5.988   2.757 -0.2635 -0.2982  0.4634
15681TIP3    H168534   5.026   6.061   2.763 -0.6225 -0.4404 -1.2702
15681TIP3    H268535   5.139   6.007   2.678  1.7782 -0.2962  1.7668
15682TIP3   OH268536   5.450   3.026  15.901 -0.0282  0.5467 -0.5432
15682TIP3    H168537   5.462   3.023  15.806 -2.8951 -0.2700 -0.9242
15682TIP3    H268538   5.431   3.118  15.921  2.5745  1.0985 -0.4513
15683TIP3   OH268539   5.484   6.189   1.220 -0.5566 -0.4985  0.3582
15683TIP3    H168540   5.467   6.228   1.135  0.5086  1.1228  0.8485
15683TIP3    H268541   5.494   6.096   1.203  1.2316  0.0133 -1.5401
15684TIP3   OH268542   0.457   2.748   4.164 -0.0198 -0.0458  0.1237
15684TIP3    H168543   0.499   2.827   4.130 -1.6876  0.7738 -0.1129
15684TIP3    H268544   0.451   2.762   4.258  1.2827 -0.6932  0.3162
15685TIP3   OH268545   3.947   3.991   2.706 -0.6091  0.1698  0.5367
15685TIP3    H168546   3.993   3.962   2.628 -0.8454  1.2705 -0.0247
15685TIP3    H268547   3.976   3.931   2.775 -4.3065 -4.1032 -1.4202
15686TIP3   OH268548   0.844   2.918   3.347  0.2981 -0.4487 -0.0414
15686TIP3    H168549   0.845   2.888   3.438 -0.6651 -0.4552 -0.0261
15686TIP3    H268550   0.911   2.865   3.303  1.2749  0.0599  0.8206
15687TIP3   OH268551   3.817   5.205   4.715 -0.1905 -0.7614  0.0205
15687TIP3    H168552   3.807   5.228   4.808 -1.1793  3.0067 -0.9150
15687TIP3    H268553   3.729   5.183   4.686 -0.6239  1.9206 -0.8760
15688TIP3   OH268554   1.686   4.385  10.579  0.0687 -0.3877  0.4660
15688TIP3    H168555   1.643   4.405  10.496 -2.3309  1.8480  2.1896
15688TIP3    H268556   1.731   4.466  10.603  1.4913 -1.2995  0.9467
15689TIP3   OH268557   2.706   4.032   1.176 -0.2297  0.3188 -0.2264
15689TIP3    H168558   2.646   3.990   1.237 -1.0376  0.4557 -0.9192
15689TIP3    H268559   2.723   4.118   1.214 -0.8320  0.4513 -0.2556
15690TIP3   OH268560   1.813   3.888   2.122 -0.2313 -0.1553  0.2366
15690TIP3    H168561   1.836   3.796   2.110 -0.7901 -0.0730 -1.4370
15690TIP3    H268562   1.834   3.905   2.214  2.5455 -1.2010 -0.1362
15691TIP3   OH268563   3.246   1.610   2.784 -0.2851  0.6504 -0.0282
15691TIP3    H168564   3.230   1.695   2.825 -3.0133  0.1098  0.0931
15691TIP3    H268565   3.210   1.546   2.846  1.3349 -0.5975 -0.3252
15692TIP3   OH268566   3.268   5.694   4.917 -0.3303  0.2787  0.5761
15692TIP3    H168567   3.173   5.683   4.918 -0.5195  1.8819  0.3814
15692TIP3    H268568   3.290   5.713   4.826 -0.1062  2.2972  1.0451
15693TIP3   OH268569   0.411   5.820  12.381 -0.2102  0.1487  0.2139
15693TIP3    H168570   0.376   5.909  12.375  0.7788  0.6076  1.0422
15693TIP3    H268571   0.500   5.831  12.415  0.8929 -0.9670 -2.1619
15694TIP3   OH268572   0.580   2.123  11.887 -0.7332 -0.3070  0.2119
15694TIP3    H168573   0.533   2.056  11.837  0.7461 -0.8842 -0.4596
15694TIP3    H268574   0.672   2.097  11.880 -0.1736  1.5955  0.2642
15695TIP3   OH268575   1.208   4.926  13.207  0.1686 -0.3640 -0.1127
15695TIP3    H168576   1.170   4.865  13.144  2.8865 -0.4703 -1.7196
15695TIP3    H268577   1.283   4.878  13.244  0.2070  0.6908  1.2018
15696TIP3   OH268578   0.081   2.275   2.661 -0.3402  0.6762 -0.0857
15696TIP3    H168579   0.158   2.297   2.713  1.1774 -0.8293 -1.6041
15696TIP3    H268580   0.091   2.327   2.581 -1.3092  1.0417  0.0288
15697TIP3   OH268581   4.098   3.620  17.073 -0.3949 -0.3293  0.0744
15697TIP3    H168582   4.034   3.550  17.062 -1.1987  0.5481 -1.0415
15697TIP3    H268583   4.056   3.681  17.134 -0.9528  0.6149 -1.2387
15698TIP3   OH268584   0.104   2.360  11.352 -0.2166  0.2781  0.2256
15698TIP3    H168585   0.091   2.299  11.279 -1.6934  1.4898 -0.5660
15698TIP3    H268586   0.097   2.306  11.430 -2.9556 -0.3837 -0.4140
15699TIP3   OH268587   4.296   1.048   3.906  0.1898  0.4761  0.5482
15699TIP3    H168588   4.376   1.091   3.875 -1.0698  2.5182  0.0287
15699TIP3    H268589   4.280   1.087   3.991 -0.7915  0.8128  0.2113
15700TIP3   OH268590   3.808   3.775   1.246  0.2594  0.9162 -0.5496
15700TIP3    H168591   3.834   3.758   1.336  0.4553  1.6687 -0.4601
15700TIP3    H268592   3.841   3.863   1.227 -0.5966  1.1399 -1.0454
15701TIP3   OH268593   2.933   6.418   3.631 -0.1749 -0.2275  0.7386
15701TIP3    H168594   2.880   6.452   3.703  0.1459 -1.3388  1.5019
15701TIP3    H268595   2.977   6.341   3.667 -0.1622 -0.9097 -0.7064
15702TIP3   OH268596   4.225   4.334   5.539  0.5978 -0.2540  0.6759
15702TIP3    H168597   4.136   4.367   5.538  0.1348 -1.4648  1.0508
15702TIP3    H268598   4.269   4.381   5.469 -1.2262 -2.0486 -1.7677
15703TIP3   OH268599   4.130   3.918  11.832 -0.1456  0.3534 -0.2450
15703TIP3    H168600   4.181   3.839  11.852  0.9793  1.4288  1.2651
15703TIP3    H268601   4.098   3.904  11.743 -0.2220 -1.9387  0.0955
15704TIP3   OH268602   2.915   0.738  15.163 -0.2439  0.0002 -0.0490
15704TIP3    H168603   2.913   0.824  15.205 -1.1291 -0.3886  0.7328
15704TIP3    H268604   2.846   0.743  15.096  2.6018  1.3556 -2.9947
15705TIP3   OH268605   2.798   4.811   0.799 -0.5389  0.2874  0.4029
15705TIP3    H168606   2.800   4.715   0.803 -0.1647  0.3047  0.6148
15705TIP3    H268607   2.724   4.836   0.853 -2.6904 -0.0402 -2.2453
15706TIP3   OH268608   6.087   3.724   4.051 -0.2156 -0.6720 -0.0119
15706TIP3    H168609   6.097   3.790   3.982 -0.1019  1.7765  2.2720
15706TIP3    H268610   6.070   3.643   4.004  0.1991  0.8669 -2.9369
15707TIP3   OH268611   6.219   6.575   2.958  0.2938 -0.3447  0.4871
15707TIP3    H168612   6.229   6.666   2.983 -0.3088 -0.1749  0.1148
15707TIP3    H268613   6.299   6.532   2.990  0.3160  0.1956  1.1686
15708TIP3   OH268614   1.391   5.103  17.235 -0.0672  0.6179 -0.0784
15708TIP3    H168615   1.460   5.047  17.199 -0.9242  0.5044 -1.6152
15708TIP3    H268616   1.338   5.045  17.289 -0.0851  0.2822 -0.4575
15709TIP3   OH268617   3.175   0.710  15.633  0.0627 -0.4717 -0.0742
15709TIP3    H168618   3.093   0.759  15.628  1.0946  1.1817 -1.3341
15709TIP3    H268619   3.150   0.619  15.613 -1.2622  0.2751 -1.9818
15710TIP3   OH268620   3.454   1.395  16.629 -0.3186  0.2541 -0.3688
15710TIP3    H168621   3.507   1.409  16.708  0.2798  1.4286 -0.9811
15710TIP3    H268622   3.451   1.300  16.620  0.6638  0.1445  0.3600
15711TIP3   OH268623   4.647   0.948  14.435 -0.1252  0.2301 -0.1674
15711TIP3    H168624   4.685   1.024  14.477 -0.7516 -1.0551  2.8572
15711TIP3    H268625   4.720   0.885  14.429 -0.5850 -0.4626  1.2416
15712TIP3   OH268626   2.699   6.546   5.957 -0.4463  0.4645  1.1465
15712TIP3    H168627   2.764   6.551   5.886  0.9266  0.1468  2.3626
15712TIP3    H268628   2.687   6.637   5.984 -0.2100  0.4807  1.1950
15713TIP3   OH268629   1.697   6.257   5.205  0.5480  0.7618 -0.1284
15713TIP3    H168630   1.602   6.263   5.216  0.5758  0.8163  0.0846
15713TIP3    H268631   1.731   6.252   5.295  0.6346 -0.9421 -0.2512
15714TIP3   OH268632   3.271   5.089   2.770 -0.1327 -0.4745  0.6957
15714TIP3    H168633   3.305   5.176   2.790 -0.9279 -0.0151  0.0906
15714TIP3    H268634   3.277   5.042   2.853  1.0619 -0.0984  0.8233
15715TIP3   OH268635   4.333   0.717   1.522 -0.1846 -0.1723 -0.2228
15715TIP3    H168636   4.248   0.690   1.556 -0.5992  1.2797 -0.0772
15715TIP3    H268637   4.344   0.807   1.552  1.6587 -0.5205  0.2459
15716TIP3   OH268638   3.876   2.463   0.036 -0.2642 -0.4017 -0.7606
15716TIP3    H168639   3.797   2.436  -0.011  0.7305 -0.7611 -2.2577
15716TIP3    H268640   3.944   2.466  -0.031  0.8270  0.6637  0.3729
15717TIP3   OH268641   1.947   5.189   3.230  0.8866  0.1923 -0.1737
15717TIP3    H168642   1.978   5.264   3.281 -1.7105  0.2047  1.4875
15717TIP3    H268643   1.870   5.222   3.184 -0.7122 -1.6139  1.1489
15718TIP3   OH268644   0.548   0.312   5.998  0.6957 -0.1695 -0.2191
15718TIP3    H168645   0.549   0.361   6.080 -0.0241  1.0641 -0.9328
15718TIP3    H268646   0.639   0.286   5.984  0.6019 -1.6273  1.6852
15719TIP3   OH268647   6.328   2.984  14.978 -0.1282  0.3252  0.2230
15719TIP3    H168648   6.236   2.990  15.005 -0.1408  1.5605 -0.0902
15719TIP3    H268649   6.375   3.036  15.042  0.1474  1.1502 -0.6471
15720TIP3   OH268650   5.477   2.215   2.857  0.2766 -0.2918 -0.0529
15720TIP3    H168651   5.508   2.239   2.770  1.5031 -1.9388 -0.1050
15720TIP3    H268652   5.402   2.157   2.840  0.5238 -0.6230 -0.0283
15721TIP3   OH268653   0.518   1.114   2.115  0.4125  0.0208  0.0890
15721TIP3    H168654   0.589   1.158   2.163  1.1251  0.6423 -1.4975
15721TIP3    H268655   0.552   1.027   2.096  0.0307 -0.3127  0.9336
15722TIP3   OH268656   5.128   5.732   2.882  0.7696  0.1907  0.7250
15722TIP3    H168657   5.061   5.711   2.947 -0.7205 -1.1104 -1.1669
15722TIP3    H268658   5.104   5.820   2.851 -0.3455 -0.4258 -0.2244
15723TIP3   OH268659   0.183   4.611  13.556 -0.4253 -0.1887 -0.1039
15723TIP3    H168660   0.183   4.617  13.460 -1.6548  0.7165 -0.0516
15723TIP3    H268661   0.125   4.537  13.575  2.5021 -2.6106 -0.1541
15724TIP3   OH268662   2.074   2.473   2.146 -0.1610 -0.7475  0.7556
15724TIP3    H168663   2.110   2.555   2.112  1.8695 -1.1443  1.8833
15724TIP3    H268664   2.019   2.440   2.075  2.2814 -0.4687 -1.3413
15725TIP3   OH268665   1.367   1.138  17.175  0.1249 -0.1386 -0.0870
15725TIP3    H168666   1.334   1.173  17.258  0.0869 -1.6862  0.5577
15725TIP3    H268667   1.446   1.090  17.199 -2.2423 -4.3122 -0.2611
15726TIP3   OH268668   3.488   6.801   3.450  0.0829  0.1540  0.6385
15726TIP3    H168669   3.510   6.806   3.543  1.6146 -2.1351  0.4653
15726TIP3    H268670   3.404   6.756   3.447 -0.2250  0.7178  0.9499
15727TIP3   OH268671   3.053   2.108  11.659  0.1116  0.3770 -0.4690
15727TIP3    H168672   3.090   2.075  11.741 -0.8328  0.7326  0.1075
15727TIP3    H268673   3.114   2.177  11.631 -0.0377  0.8671  0.4021
15728TIP3   OH268674   4.068   3.666   1.153 -0.4476  0.5108 -0.4795
15728TIP3    H168675   3.974   3.668   1.172 -0.7886 -0.7739 -1.9643
15728TIP3    H268676   4.104   3.737   1.205 -1.9143 -0.4227  1.9037
15729TIP3   OH268677   6.155   5.390  13.853  0.0048  0.2769 -0.2653
15729TIP3    H168678   6.180   5.382  13.945  0.6157  0.3621 -0.4234
15729TIP3    H268679   6.098   5.467  13.850  1.0909  1.0888 -0.1856
15730TIP3   OH268680   1.060   2.842   2.722 -0.5111 -0.1385  0.1237
15730TIP3    H168681   1.037   2.934   2.739 -0.7273  0.2014 -1.8310
15730TIP3    H268682   0.976   2.798   2.710 -0.3482 -0.0354 -1.5314
15731TIP3   OH268683   4.239   0.557  13.904 -0.0696 -0.1792  0.3455
15731TIP3    H168684   4.280   0.608  13.974  0.0414 -1.2335  1.0673
15731TIP3    H268685   4.268   0.598  13.823 -0.2763  1.1166  0.9283
15732TIP3   OH268686   0.509   4.648  11.544  0.2242 -0.2450 -0.1335
15732TIP3    H168687   0.485   4.735  11.510  3.1736 -0.0913 -2.0033
15732TIP3    H268688   0.450   4.588  11.500 -0.0604  0.5809 -0.8953
15733TIP3   OH268689   1.661   6.536  14.703 -0.2221  0.5697  0.2543
15733TIP3    H168690   1.579   6.559  14.659 -0.8265 -1.3761  0.3524
15733TIP3    H268691   1.723   6.523  14.632 -0.7583 -0.8513  0.0245
15734TIP3   OH268692   0.178   0.011   2.781  0.1507  0.2216 -0.5170
15734TIP3    H168693   0.268   0.037   2.761  0.1649 -0.2594 -1.0770
15734TIP3    H268694   0.165   0.039   2.872  1.5997 -1.6525  0.3109
15735TIP3   OH268695   0.298   1.683  12.365 -0.3101 -0.2267 -0.3337
15735TIP3    H168696   0.327   1.615  12.425  0.6281 -0.6024 -1.1927
15735TIP3    H268697   0.375   1.702  12.311 -0.4176  1.8231  0.1809
15736TIP3   OH268698   2.335   3.993   1.967 -0.6065 -0.3162 -0.5498
15736TIP3    H168699   2.295   3.977   2.052  0.1802 -2.1006 -0.4961
15736TIP3    H268700   2.427   4.007   1.986 -0.6216  0.4451 -1.0054
15737TIP3   OH268701   1.802   4.996  11.381 -0.0893  0.3737 -0.0685
15737TIP3    H168702   1.750   4.916  11.380 -0.6522  0.7251  0.9046
15737TIP3    H268703   1.890   4.968  11.356 -0.3234 -0.5169  0.1198
15738TIP3   OH268704   2.339   4.835  16.047 -0.1818 -0.7142  0.2691
15738TIP3    H168705   2.334   4.793  16.133 -0.7357  0.8811  1.0268
15738TIP3    H268706   2.386   4.917  16.063 -0.9986 -0.0300 -0.8120
15739TIP3   OH268707   1.723   1.577  13.627  0.0422  0.2126  0.2293
15739TIP3    H168708   1.629   1.594  13.617  0.0156 -0.2376 -0.2844
15739TIP3    H268709   1.764   1.621  13.553  0.0906 -0.8693 -0.4053
15740TIP3   OH268710   6.422   3.244  12.426  0.3954  0.4297 -0.1593
15740TIP3    H168711   6.447   3.152  12.439  0.9578  0.6934  0.6656
15740TIP3    H268712   6.495   3.294  12.462  0.1570  1.2090 -0.7349
15741TIP3   OH268713   6.799   5.894  10.579  0.2565  0.2541 -0.0519
15741TIP3    H168714   6.748   5.890  10.659  0.4517  0.5427  0.0871
15741TIP3    H268715   6.797   5.986  10.553  1.3031  0.3993  0.3467
15742TIP3   OH268716   4.635   4.620  13.755  0.3378  0.4490 -0.2645
15742TIP3    H168717   4.646   4.715  13.763  0.5866  0.3614  0.5312
15742TIP3    H268718   4.715   4.584  13.793  0.8641 -0.0633 -1.7960
15743TIP3   OH268719   1.284   6.772  11.470  0.7343 -0.1028  0.0096
15743TIP3    H168720   1.250   6.684  11.457  1.4035 -0.1653 -1.3973
15743TIP3    H268721   1.264   6.792  11.561 -2.0124 -0.5969 -0.4201
15744TIP3   OH268722   4.775   0.240   2.800  0.0174  0.5384  0.2288
15744TIP3    H168723   4.816   0.228   2.886 -0.8397  3.6663  1.1184
15744TIP3    H268724   4.796   0.329   2.775 -1.2895  0.2579 -1.9873
15745TIP3   OH268725   0.652   2.761   5.042 -0.3444  0.7289  0.2810
15745TIP3    H168726   0.699   2.785   4.962  0.1774  0.0940  0.3966
15745TIP3    H268727   0.648   2.842   5.093 -1.4976  1.3778 -0.7946
15746TIP3   OH268728   4.686   4.558  15.254  0.0940  0.1303  0.2487
15746TIP3    H168729   4.657   4.490  15.314  1.1503 -0.5864 -0.0514
15746TIP3    H268730   4.727   4.624  15.310  1.4794 -0.7504  0.2659
15747TIP3   OH268731   1.709   2.771   1.159 -0.2675  0.5545 -0.1391
15747TIP3    H168732   1.748   2.790   1.245 -0.9469  0.0553  0.2823
15747TIP3    H268733   1.737   2.682   1.139 -1.1359  0.2193  0.1326
15748TIP3   OH268734   6.670   5.795   1.284  0.1948 -0.1297 -0.1107
15748TIP3    H168735   6.593   5.786   1.228  0.6849 -1.9846 -0.5301
15748TIP3    H268736   6.641   5.763   1.370  0.2285  0.0601 -0.0283
15749TIP3   OH268737   5.244   4.597   1.798  0.2265 -0.2671 -0.4000
15749TIP3    H168738   5.193   4.518   1.781 -0.4001  0.0062  0.1875
15749TIP3    H268739   5.198   4.666   1.751 -0.8529  0.2723  1.4064
15750TIP3   OH268740   2.247   3.730  12.416 -0.4970  0.4509 -0.7785
15750TIP3    H168741   2.254   3.808  12.361  0.3375  0.7204 -0.3022
15750TIP3    H268742   2.283   3.659  12.362  1.0066  0.8470 -0.3392
15751TIP3   OH268743   3.628   3.703   5.887  0.4205  0.3024  0.0343
15751TIP3    H168744   3.649   3.641   5.817 -0.8439  0.9747 -0.9672
15751TIP3    H268745   3.647   3.789   5.848 -1.2855  0.7356  0.1486
15752TIP3   OH268746   0.883   0.509  11.927  0.1617 -0.3718  0.0535
15752TIP3    H168747   0.973   0.532  11.904  0.0760 -0.1451 -0.0557
15752TIP3    H268748   0.830   0.547  11.857 -0.2664  1.9093  1.5690
15753TIP3   OH268749   4.861   4.581  16.947  0.0402 -0.4051 -0.3231
15753TIP3    H168750   4.766   4.578  16.955  0.0909 -0.4631  0.2354
15753TIP3    H268751   4.887   4.490  16.933  0.0093 -0.3857 -0.5042
15754TIP3   OH268752   1.993   6.544   5.279  0.1541 -0.6197 -0.8522
15754TIP3    H168753   2.009   6.470   5.220  2.0684 -0.4249 -0.6348
15754TIP3    H268754   1.964   6.504   5.361  2.6069 -1.2637 -0.2584
15755TIP3   OH268755   4.380   3.554  15.909 -0.0725 -0.4530  0.2546
15755TIP3    H168756   4.336   3.542  15.993  0.0025 -0.9907  0.2198
15755TIP3    H268757   4.341   3.633  15.872  1.3347  0.9743  1.7223
15756TIP3   OH268758   4.220   5.974  12.966 -0.1372 -0.7130  0.5243
15756TIP3    H168759   4.201   5.883  12.987  0.8327 -0.3173  3.3220
15756TIP3    H268760   4.292   5.970  12.902  1.4622 -1.8926  2.3503
15757TIP3   OH268761   3.694   3.212  14.756  0.2092 -0.2593 -0.1705
15757TIP3    H168762   3.667   3.250  14.840 -0.1648 -1.7137  0.3868
15757TIP3    H268763   3.618   3.161  14.728  0.2047  0.4971 -1.5751
15758TIP3   OH268764   2.810   1.994   4.416  0.4714 -0.1790 -0.4362
15758TIP3    H168765   2.817   2.080   4.375  0.5465 -0.1722 -0.4104
15758TIP3    H268766   2.890   1.986   4.468 -1.1524  1.1520  2.3363
15759TIP3   OH268767   2.017   1.402  16.831 -0.3404 -0.2161  0.4449
15759TIP3    H168768   2.025   1.441  16.918 -1.5723  1.2091 -0.0553
15759TIP3    H268769   2.025   1.476  16.770 -0.2566 -1.0820 -0.6194
15760TIP3   OH268770   6.341   6.566  14.892 -0.0211 -0.5202 -0.0558
15760TIP3    H168771   6.255   6.523  14.889 -0.3484  0.1273 -0.0190
15760TIP3    H268772   6.341   6.612  14.976 -0.2149  0.6661 -0.7006
15761TIP3   OH268773   2.441   3.252  16.203  0.1701  0.2089  0.0134
15761TIP3    H168774   2.358   3.292  16.178  2.0163  2.9240 -2.1206
15761TIP3    H268775   2.451   3.178  16.143 -0.3594  0.3473 -0.2480
15762TIP3   OH268776   4.112   4.757   4.146  0.0709  0.0300 -0.3315
15762TIP3    H168777   4.111   4.691   4.076  0.6908  1.0710 -1.3487
15762TIP3    H268778   4.164   4.718   4.215  2.3303  0.3244 -1.8252
15763TIP3   OH268779   0.074   2.468  14.992 -0.2541  0.1379 -0.0543
15763TIP3    H168780   0.016   2.515  14.933  1.9893  1.6160 -1.1753
15763TIP3    H268781   0.042   2.378  14.992 -1.8621  0.6963 -1.4559
15764TIP3   OH268782   5.677   3.126   2.414 -0.6492 -0.2667 -0.3278
15764TIP3    H168783   5.758   3.079   2.429 -0.1371  0.5146 -0.5961
15764TIP3    H268784   5.628   3.072   2.352 -0.9052 -1.3839  0.8454
15765TIP3   OH268785   3.472   6.677  16.677  0.4597 -0.4631  0.3906
15765TIP3    H168786   3.536   6.671  16.748  0.6396 -1.8235  0.1362
15765TIP3    H268787   3.409   6.607  16.695 -0.1715 -0.0455 -0.1373
15766TIP3   OH268788   6.454   6.585  10.934  0.4921  0.0970  0.2342
15766TIP3    H168789   6.463   6.632  10.851 -0.2910  0.4221  0.3308
15766TIP3    H268790   6.522   6.622  10.991  0.9514 -0.0409 -0.2162
15767TIP3   OH268791   4.452   0.179   3.461 -0.3998 -0.0274 -0.0347
15767TIP3    H168792   4.469   0.143   3.374 -0.2252 -0.6209  0.2429
15767TIP3    H268793   4.536   0.213   3.490 -0.0283 -1.5357  0.6819
15768TIP3   OH268794   0.026   1.363   1.704 -0.3450 -0.4337 -0.2111
15768TIP3    H168795   0.012   1.283   1.755 -0.7791  0.3646  0.9423
15768TIP3    H268796   0.113   1.352   1.666  0.0362 -1.0101  0.8040
15769TIP3   OH268797   3.674   0.047  12.443 -0.4473  0.1460 -0.2305
15769TIP3    H168798   3.652   0.138  12.463 -2.1125 -0.0777 -0.9590
15769TIP3    H268799   3.589   0.003  12.439  0.4553 -1.9345  2.3963
15770TIP3   OH268800   0.304   2.084   1.289  0.7415  0.2174  0.5193
15770TIP3    H168801   0.250   2.042   1.356 -0.0797 -3.1553 -2.1669
15770TIP3    H268802   0.256   2.164   1.266  0.3953  0.7539  2.9500
15771TIP3   OH268803   2.606   2.238  15.007 -0.4960 -0.1816  0.1160
15771TIP3    H168804   2.596   2.235  14.912  0.5097 -2.0065  0.0410
15771TIP3    H268805   2.565   2.157  15.038 -1.2442  0.6232  1.2846
15772TIP3   OH268806   5.644   3.184   5.903  0.1450  0.0202  0.6545
15772TIP3    H168807   5.558   3.224   5.914  0.9216  1.9978 -0.2872
15772TIP3    H268808   5.669   3.156   5.991 -0.9737  0.3934  1.1010
15773TIP3   OH268809   3.523   3.250  11.514 -0.5025  0.5629 -0.4723
15773TIP3    H168810   3.457   3.316  11.494 -1.4522 -0.5629 -1.0892
15773TIP3    H268811   3.491   3.170  11.473  1.5444  0.1360 -1.3286
15774TIP3   OH268812   0.628   3.609  11.798 -0.5076  0.1347  0.4248
15774TIP3    H168813   0.716   3.576  11.815 -1.3675 -2.1274  0.6482
15774TIP3    H268814   0.598   3.559  11.721 -0.6529  2.6845 -1.2309
15775TIP3   OH268815   4.576   0.594  10.926 -0.1530 -0.7047  0.5513
15775TIP3    H168816   4.669   0.573  10.928  0.0612  0.0744 -0.6433
15775TIP3    H268817   4.547   0.567  10.838 -0.2637  2.2248 -0.3589
15776TIP3   OH268818   6.532   1.340   1.930  0.1250  0.1448  0.0033
15776TIP3    H168819   6.533   1.435   1.914 -0.6600  0.3706  1.2100
15776TIP3    H268820   6.442   1.314   1.909 -0.0609 -0.0759  1.0674
15777TIP3   OH268821   1.439   1.636   2.205 -0.2595  0.4412 -0.6175
15777TIP3    H168822   1.508   1.692   2.171 -0.6162  2.7758  2.2654
15777TIP3    H268823   1.453   1.636   2.300 -2.3329 -1.5783 -0.2809
15778TIP3   OH268824   4.498   0.956  17.094 -0.4925 -0.5471  0.6914
15778TIP3    H168825   4.580   0.906  17.100  0.6805  1.3816  1.1754
15778TIP3    H268826   4.448   0.929  17.170  0.2051 -0.8350  1.0556
15779TIP3   OH268827   2.636   5.091   6.095 -0.3391 -0.2852  0.5482
15779TIP3    H168828   2.554   5.139   6.104 -0.8811 -1.1078  0.0731
15779TIP3    H268829   2.646   5.045   6.179 -0.6460 -0.6072  0.4114
15780TIP3   OH268830   2.893   3.021  11.873  0.4863 -0.3255 -0.8577
15780TIP3    H168831   2.905   3.115  11.885  0.6813 -0.4323 -0.2090
15780TIP3    H268832   2.810   3.001  11.916  0.1554 -0.3569 -1.4932
15781TIP3   OH268833   4.490   2.096   2.909 -0.4971 -0.2544 -0.2373
15781TIP3    H168834   4.470   2.188   2.922 -2.5126 -0.5992 -0.6384
15781TIP3    H268835   4.478   2.056   2.995  2.5863  0.2109  0.4362
15782TIP3   OH268836   4.109   5.809   6.363  0.0227 -0.1230  0.3423
15782TIP3    H168837   4.141   5.729   6.320  2.3709 -0.2185  2.1486
15782TIP3    H268838   4.181   5.872   6.351 -0.5443  0.7641  1.5411
15783TIP3   OH268839   5.059   3.482   3.020 -0.3206  0.0908 -0.3704
15783TIP3    H168840   5.137   3.514   3.065  1.3144 -1.6760 -1.8520
15783TIP3    H268841   4.996   3.553   3.027  0.9854  1.0759  1.9144
15784TIP3   OH268842   5.519   1.879   2.556 -0.1977 -0.4298 -0.2872
15784TIP3    H168843   5.509   1.812   2.623 -0.1390 -0.6934 -0.5386
15784TIP3    H268844   5.429   1.905   2.535 -0.2229 -0.4744 -0.2353
15785TIP3   OH268845   1.328   2.355  15.727 -0.0548  0.3302 -0.3140
15785TIP3    H168846   1.381   2.422  15.769 -0.2134  0.2824 -0.0401
15785TIP3    H268847   1.384   2.278  15.725  0.2452  0.5608 -0.9210
15786TIP3   OH268848   3.252   3.780  12.398  0.4151 -0.2338 -0.7304
15786TIP3    H168849   3.289   3.768  12.486 -0.0486 -0.4742 -0.5640
15786TIP3    H268850   3.228   3.691  12.370 -1.7733  0.1204 -0.0624
15787TIP3   OH268851   6.796   3.625  16.815  0.8881  0.3510  0.9484
15787TIP3    H168852   6.772   3.533  16.821  0.9200  0.2936  0.1587
15787TIP3    H268853   6.718   3.669  16.781  1.2626  0.4362  0.1863
15788TIP3   OH268854   5.895   1.000  16.376  0.6226 -0.5244  0.2370
15788TIP3    H168855   5.936   1.018  16.461 -0.0994  1.8185  0.1266
15788TIP3    H268856   5.844   0.920  16.391  0.6524 -0.2557  1.9538
15789TIP3   OH268857   1.177   4.592  16.106  0.1516  0.2799  0.5206
15789TIP3    H168858   1.147   4.602  16.196  0.1137 -3.2736  1.0101
15789TIP3    H268859   1.097   4.577  16.056  0.3288  0.3450  0.2175
15790TIP3   OH268860   3.994   3.484   0.469  0.0973  0.4958  0.2939
15790TIP3    H168861   3.936   3.552   0.504 -1.0638  0.7938 -2.1433
15790TIP3    H268862   3.946   3.403   0.484 -0.2592  0.5912 -0.3422
15791TIP3   OH268863   2.531   2.769  13.488  0.2752 -0.0880 -0.0139
15791TIP3    H168864   2.484   2.850  13.510  0.0037 -0.6700  1.6189
15791TIP3    H268865   2.462   2.705  13.474  0.5353 -0.4354  0.3065
15792TIP3   OH268866   1.994   3.638  14.203 -0.6096 -0.6943  0.4501
15792TIP3    H168867   1.947   3.721  14.210 -0.3816 -0.6552  1.5913
15792TIP3    H268868   1.988   3.614  14.110  3.1118  2.8285 -0.8538
15793TIP3   OH268869   3.548   3.319   3.194 -0.1051 -0.3692 -0.2962
15793TIP3    H168870   3.583   3.230   3.206 -0.3928 -0.5774 -0.9878
15793TIP3    H268871   3.507   3.317   3.108 -0.2962  0.3812 -0.2230
15794TIP3   OH268872   0.040   3.436   3.017 -0.1810  0.8017  0.1211
15794TIP3    H168873  -0.046   3.469   3.044 -0.3607 -0.0228  0.5759
15794TIP3    H268874   0.102   3.480   3.077 -0.2157  1.9028 -0.6420
15795TIP3   OH268875   1.690   1.808   5.623 -0.4268 -0.0863 -0.0676
15795TIP3    H168876   1.639   1.833   5.700  1.3757 -2.8431  2.1297
15795TIP3    H268877   1.633   1.748   5.574 -0.7161 -0.1598  0.3591
15796TIP3   OH268878   0.696   3.712  16.016  0.1674  0.3966 -0.3443
15796TIP3    H168879   0.767   3.718  16.080  0.5900 -1.7213 -0.5626
15796TIP3    H268880   0.639   3.644  16.051  0.6598 -1.1634 -2.4192
15797TIP3   OH268881   0.481   3.699   4.269 -0.2410  0.1775 -0.0282
15797TIP3    H168882   0.572   3.670   4.264 -0.1483  0.4204  0.2789
15797TIP3    H268883   0.468   3.723   4.360 -0.4984  0.5224 -0.1541
15798TIP3   OH268884   4.777   3.410  15.536 -0.1125 -0.3306 -0.1101
15798TIP3    H168885   4.847   3.401  15.600 -0.6204 -0.2883  0.4644
15798TIP3    H268886   4.697   3.391  15.585 -0.3427 -2.4158 -1.2399
15799TIP3   OH268887   3.614   0.240  13.608  0.3318  0.2062 -0.0518
15799TIP3    H168888   3.539   0.280  13.651  1.1131  1.9703 -0.2895
15799TIP3    H268889   3.577   0.172  13.552 -1.0760  0.9997 -0.0938
15800TIP3   OH268890   2.886   3.269  13.327  0.3983  0.1505 -0.1164
15800TIP3    H168891   2.803   3.257  13.281  0.1979  1.3880 -0.1021
15800TIP3    H268892   2.932   3.336  13.275  1.1007 -0.0533  0.2453
15801TIP3   OH268893   1.763   2.949   5.654  0.1654 -0.0813  0.6338
15801TIP3    H168894   1.837   2.890   5.668  1.5250  2.3518  4.3819
15801TIP3    H268895   1.694   2.913   5.710 -1.4210 -2.0662 -2.4803
15802TIP3   OH268896   3.379   0.675   2.305  0.4533 -0.0142 -0.1836
15802TIP3    H168897   3.341   0.587   2.312  0.5821 -0.1854 -1.4658
15802TIP3    H268898   3.470   0.659   2.281  1.0755  0.4222  1.8406
15803TIP3   OH268899   2.870   6.583   4.918  0.2667 -0.3537 -0.4316
15803TIP3    H168900   2.919   6.558   4.839  0.7062 -0.0038 -0.2718
15803TIP3    H268901   2.930   6.640   4.966 -0.1390 -0.2726 -0.0218
15804TIP3   OH268902   0.369   2.720  11.621  0.3673  0.1563  0.3427
15804TIP3    H168903   0.312   2.690  11.550  1.1166 -1.7392  0.5114
15804TIP3    H268904   0.445   2.757  11.576 -1.2612  3.3517  0.1015
15805TIP3   OH268905   3.221   5.872  13.161 -0.0241 -0.0827 -0.3260
15805TIP3    H168906   3.308   5.908  13.140 -0.3903  0.2438 -1.3144
15805TIP3    H268907   3.191   5.925  13.235  1.1598 -1.0560  0.8830
15806TIP3   OH268908   3.322   4.966  14.286  0.0506 -0.0156 -0.2072
15806TIP3    H168909   3.304   5.013  14.367 -3.0893  0.6654 -1.1890
15806TIP3    H268910   3.407   4.999  14.257  0.2345  1.2928  1.7459
15807TIP3   OH268911   1.150   6.615  12.243 -0.1450 -0.1486 -0.2305
15807TIP3    H168912   1.175   6.559  12.317 -0.2523  0.3872  0.2089
15807TIP3    H268913   1.055   6.621  12.249 -0.3333 -1.5337 -1.4337
15808TIP3   OH268914   0.731   4.462  12.927  0.4872 -0.1442  0.1541
15808TIP3    H168915   0.666   4.531  12.937  1.0997  0.8245 -2.2107
15808TIP3    H268916   0.680   4.382  12.922 -0.5846  0.6337 -2.0158
15809TIP3   OH268917   0.171   5.622   0.828 -0.4196  0.1586  0.5294
15809TIP3    H168918   0.188   5.654   0.916 -1.4295 -2.3500  1.6759
15809TIP3    H268919   0.244   5.563   0.809  0.6731  1.9369 -0.9999
15810TIP3   OH268920   5.351   1.720   0.472  0.1768  0.5012 -0.8989
15810TIP3    H168921   5.413   1.670   0.418  1.3482  0.3119  0.6041
15810TIP3    H268922   5.394   1.728   0.557 -1.4176  1.2817 -0.1505
15811TIP3   OH268923   1.812   1.526  11.013 -0.6183 -0.8053 -0.0287
15811TIP3    H168924   1.804   1.591  11.083  0.4485  2.1200 -2.5083
15811TIP3    H268925   1.906   1.516  11.001 -0.8012 -1.0131 -1.2903
15812TIP3   OH268926   1.917   3.647  16.677  0.1625 -0.5950 -0.0217
15812TIP3    H168927   1.851   3.617  16.739  0.3922 -0.3005  0.3725
15812TIP3    H268928   1.961   3.719  16.722  0.4559 -0.5025 -0.4531
15813TIP3   OH268929   5.597   1.140   2.044  0.3831 -0.0051  0.3486
15813TIP3    H168930   5.688   1.147   2.017  0.5134  1.6426  1.1822
15813TIP3    H268931   5.549   1.198   1.985  0.3346  1.6481  1.9687
15814TIP3   OH268932   2.910   0.231   4.078  0.3147  0.0269 -0.4254
15814TIP3    H168933   2.836   0.275   4.119 -0.0066  0.0872 -1.0645
15814TIP3    H268934   2.982   0.294   4.086  0.6142 -0.5161  1.2595
15815TIP3   OH268935   3.063   5.113  10.487 -0.5520 -0.6817 -0.1196
15815TIP3    H168936   3.088   5.136  10.397  2.2123 -2.2259  0.1807
15815TIP3    H268937   3.023   5.026  10.479 -2.8721  0.3745 -0.1785
15816TIP3   OH268938   5.778   0.238  16.587  0.2708  0.1738  0.2466
15816TIP3    H168939   5.689   0.265  16.561 -0.1562 -0.8998  0.5557
15816TIP3    H268940   5.784   0.262  16.679 -0.2458 -1.0639  0.6256
15817TIP3   OH268941   6.063   1.628   1.704  0.0945  0.2478 -0.0609
15817TIP3    H168942   6.003   1.642   1.777 -1.7932  0.2295 -1.5901
15817TIP3    H268943   6.041   1.541   1.671  0.4102  0.5790 -1.1433
15818TIP3   OH268944   6.120   5.551   4.166 -0.2253 -0.5944  0.3945
15818TIP3    H168945   6.145   5.641   4.145  0.7062 -1.0671 -0.5093
15818TIP3    H268946   6.040   5.536   4.116 -0.1500 -0.4158  0.2208
15819TIP3   OH268947   2.467   3.941   1.724  0.4024 -0.2212  0.4537
15819TIP3    H168948   2.546   3.994   1.734  1.0200 -0.9770 -0.3706
15819TIP3    H268949   2.410   3.968   1.797  1.3103  0.5090  0.8933
15820TIP3   OH268950   3.730   3.843  12.962  0.5654  0.0895 -0.1580
15820TIP3    H168951   3.701   3.780  12.896 -0.5695  0.3847  0.0433
15820TIP3    H268952   3.649   3.869  13.006  1.4003 -0.8713  2.0217
15821TIP3   OH268953   6.603   0.504   2.182 -0.6592  0.1959 -0.0733
15821TIP3    H168954   6.536   0.570   2.167 -0.6575  0.5238  1.2902
15821TIP3    H268955   6.554   0.426   2.210 -0.6106 -0.1610 -0.9812
15822TIP3   OH268956   4.531   2.357   4.685  0.1322 -0.2515 -0.3043
15822TIP3    H168957   4.537   2.278   4.739  2.3958 -0.6230 -1.0740
15822TIP3    H268958   4.505   2.426   4.747  2.7150 -0.6670  1.3021
15823TIP3   OH268959   1.236   5.175  15.486  0.1622  0.0104  0.0794
15823TIP3    H168960   1.245   5.086  15.520  2.6408  0.6174  1.1209
15823TIP3    H268961   1.254   5.232  15.561  2.1057  1.3621 -1.3463
15824TIP3   OH268962   2.467   2.011  13.536 -1.0164  0.2088 -0.0990
15824TIP3    H168963   2.441   1.918  13.536  2.3438 -0.8077 -2.1476
15824TIP3    H268964   2.520   2.021  13.615 -1.6079  0.4570  0.2667
15825TIP3   OH268965   6.503   1.748  12.686 -0.4181 -0.0800  0.0534
15825TIP3    H168966   6.566   1.791  12.629 -1.5655  0.5976 -0.7280
15825TIP3    H268967   6.533   1.768  12.775 -0.6692  1.9425 -0.3014
15826TIP3   OH268968   1.008   4.527   4.620  0.4633 -0.5724 -0.3639
15826TIP3    H168969   1.087   4.486   4.583  0.6182  0.0352 -0.7105
15826TIP3    H268970   1.020   4.520   4.714  2.9542  3.2515 -0.2994
15827TIP3   OH268971   5.933   4.094  11.804 -0.5097  0.6985  0.0135
15827TIP3    H168972   5.852   4.048  11.823  0.2583  0.2231  2.3210
15827TIP3    H268973   6.002   4.035  11.835  0.6309  1.9773 -0.0274
15828TIP3   OH268974   6.173   1.242   2.889 -0.3168 -0.4943 -0.1461
15828TIP3    H168975   6.118   1.232   2.967 -1.0783 -0.8492 -0.7181
15828TIP3    H268976   6.121   1.297   2.830  0.5607  0.3838 -0.1232
15829TIP3   OH268977   3.785   4.910  14.158  0.1848 -0.3098 -0.8459
15829TIP3    H168978   3.793   4.970  14.232  0.5523  0.4231 -1.4828
15829TIP3    H268979   3.714   4.851  14.183  1.8471 -1.5441  1.1139
15830TIP3   OH268980   0.641   6.786   4.159 -0.2902 -0.6322  0.1150
15830TIP3    H168981   0.610   6.847   4.092 -0.6110  0.4621  1.2330
15830TIP3    H268982   0.660   6.705   4.112 -3.7596 -0.9865 -0.7694
15831TIP3   OH268983   0.830   3.575  12.391  0.2093  0.8130 -0.4995
15831TIP3    H168984   0.900   3.632  12.359  2.2144 -1.9833 -1.2216
15831TIP3    H268985   0.813   3.514  12.319 -0.5282 -0.7373  0.9521
15832TIP3   OH268986   1.030   2.884   3.710  0.5151 -0.1102  0.4804
15832TIP3    H168987   1.075   2.892   3.626  2.2743 -0.5654  1.3474
15832TIP3    H268988   1.003   2.973   3.732  1.3338  0.2304  0.1189
15833TIP3   OH268989   3.186   2.435   5.657 -0.0647  0.3489 -0.0506
15833TIP3    H168990   3.138   2.516   5.672  0.1207  0.1919  1.5236
15833TIP3    H268991   3.236   2.422   5.738 -1.1792 -2.0647  0.2885
15834TIP3   OH268992   4.081   3.298   3.645  0.5837  0.5910  0.3577
15834TIP3    H168993   3.998   3.253   3.659  2.0983 -1.9650  1.6971
15834TIP3    H268994   4.078   3.328   3.555 -1.8097  0.5953  0.4259
15835TIP3   OH268995   1.069   2.958   5.528  0.0736 -0.0452 -0.2785
15835TIP3    H168996   1.138   2.987   5.469  0.6020 -0.4568  0.1270
15835TIP3    H268997   0.990   3.004   5.499  0.2542 -0.5004 -1.5158
15836TIP3   OH268998   1.986   4.510  10.950  0.6558  0.2730 -0.2709
15836TIP3    H168999   2.023   4.527  10.864 -0.7185  0.0032 -0.9264
15836TIP3    H269000   1.962   4.597  10.983 -1.4453  0.1573 -1.3809
15837TIP3   OH269001   6.067   2.659   5.208 -0.3180  0.2320 -0.1453
15837TIP3    H169002   6.099   2.735   5.158 -0.4748  0.8245  0.6398
15837TIP3    H269003   6.087   2.681   5.299  0.7317 -1.2161 -0.0167
15838TIP3   OH269004   4.609   3.908   4.474  0.1902  0.8490 -0.2386
15838TIP3    H169005   4.625   3.819   4.443 -0.8212 -0.6224  3.2251
15838TIP3    H269006   4.520   3.928   4.445  0.4762  0.8064 -1.1555
15839TIP3   OH269007   4.520   2.690  15.640 -0.3206  0.6690 -0.4003
15839TIP3    H169008   4.510   2.705  15.734  2.4719  1.6329 -0.2068
15839TIP3    H269009   4.571   2.609  15.634  0.1894  1.0323 -1.0508
15840TIP3   OH269010   2.101   0.160   0.233 -0.0282  0.6873  0.8210
15840TIP3    H169011   2.144   0.224   0.176  1.1669 -0.2101  0.6901
15840TIP3    H269012   2.112   0.195   0.322  2.6853 -0.4381  0.9874
15841TIP3   OH269013   4.834   1.954  15.902 -0.1224 -0.2505 -0.1608
15841TIP3    H169014   4.802   2.041  15.926 -2.1365 -1.2390  0.8293
15841TIP3    H269015   4.929   1.964  15.897 -0.0414  1.1773  3.3081
15842TIP3   OH269016   6.000   6.463  12.045 -0.6364  0.0295  0.0606
15842TIP3    H169017   6.013   6.433  12.135 -0.1064 -1.7849 -0.6156
15842TIP3    H269018   6.062   6.535  12.034 -1.0241  0.5575  1.2895
15843TIP3   OH269019   2.312   6.802  15.307 -0.0700  0.3450 -0.1185
15843TIP3    H169020   2.365   6.870  15.266 -0.2449  0.9348  0.6233
15843TIP3    H269021   2.223   6.817  15.275 -0.1642  0.6582  0.2906
15844TIP3   OH269022   1.871   2.714  13.888  0.3407 -0.3144 -0.5174
15844TIP3    H169023   1.963   2.701  13.866  0.5258 -0.6802  0.4233
15844TIP3    H269024   1.868   2.703  13.983 -0.2535  2.1749 -0.2024
15845TIP3   OH269025   3.929   6.020  11.894 -0.5845  0.1753  0.4349
15845TIP3    H169026   3.944   6.026  11.799 -1.1558  0.7966  0.3764
15845TIP3    H269027   3.887   5.935  11.905  0.2850 -0.2795  0.2385
15846TIP3   OH269028   5.864   5.189  16.979  0.0182  1.0812 -0.3855
15846TIP3    H169029   5.907   5.269  17.009 -1.4629  0.7952  2.6575
15846TIP3    H269030   5.874   5.127  17.051  0.7754 -1.4089 -2.5282
15847TIP3   OH269031   4.711   0.436  12.048 -0.3702  0.2278 -0.3641
15847TIP3    H169032   4.636   0.438  11.988 -0.4206  1.4798 -0.2790
15847TIP3    H269033   4.788   0.444  11.992 -0.3252 -0.3239 -0.3873
15848TIP3   OH269034   6.639   0.132   2.552 -0.0887  0.0178 -0.6077
15848TIP3    H169035   6.552   0.171   2.544 -0.6267 -1.1874 -0.8658
15848TIP3    H269036   6.625   0.054   2.606  0.9800  0.2540  0.0281
15849TIP3   OH269037   6.015   6.773   0.848  0.6802 -0.3863  0.3496
15849TIP3    H169038   6.008   6.845   0.911  1.5438  1.5233 -1.6490
15849TIP3    H269039   6.086   6.719   0.882 -0.0232 -0.3782  1.9186
15850TIP3   OH269040   3.672   5.030   0.656 -0.2119 -0.1101 -0.2949
15850TIP3    H169041   3.710   4.945   0.636 -1.4317 -0.4767 -1.1525
15850TIP3    H269042   3.675   5.078   0.573  1.1020  0.9379  0.3515
15851TIP3   OH269043   2.810   0.395  12.636  0.3599  0.3624 -0.0598
15851TIP3    H169044   2.824   0.462  12.569  0.5810 -2.1286 -2.6037
15851TIP3    H269045   2.882   0.333  12.623  0.7983  0.1731  2.9856
15852TIP3   OH269046   0.286   3.319   1.112  0.0617  0.1358  0.1186
15852TIP3    H169047   0.277   3.374   1.190  1.2509  0.8761 -0.2510
15852TIP3    H269048   0.289   3.380   1.039 -0.5615 -0.5308 -0.4727
15853TIP3   OH269049   4.760   3.331  16.922  0.4126 -0.1240 -0.2749
15853TIP3    H169050   4.851   3.306  16.935  0.7642  0.0813 -2.2001
15853TIP3    H269051   4.761   3.389  16.846 -1.2674  0.2422 -0.0452
15854TIP3   OH269052   5.228   5.475   3.473  0.2448  1.0710 -0.1742
15854TIP3    H169053   5.150   5.525   3.497  0.1083  0.6406  0.2903
15854TIP3    H269054   5.231   5.479   3.377 -1.3420 -0.4122 -0.3034
15855TIP3   OH269055   1.081   2.210  15.892 -0.6497  0.1650  0.2401
15855TIP3    H169056   1.013   2.211  15.824  0.7058 -0.7228 -1.1489
15855TIP3    H269057   1.163   2.206  15.844  0.3859  0.7548  1.9269
15856TIP3   OH269058   0.940   1.621   5.690 -0.1370  0.0240  0.3557
15856TIP3    H169059   1.006   1.690   5.682 -1.2014  1.2032  1.4813
15856TIP3    H269060   0.960   1.578   5.773 -0.6249  0.2278  0.5839
15857TIP3   OH269061   1.186   5.821   5.890 -0.3105 -0.6646 -0.3233
15857TIP3    H169062   1.214   5.768   5.964  0.6411 -0.6877 -0.6884
15857TIP3    H269063   1.095   5.843   5.909  0.1162 -0.0962  1.1932
15858TIP3   OH269064   4.744   0.744  13.029  0.1892 -0.1616  0.4495
15858TIP3    H169065   4.734   0.805  13.102 -0.0189 -0.3219  0.5515
15858TIP3    H269066   4.704   0.663  13.059  1.4209 -0.6831  0.7288
15859TIP3   OH269067   0.359   2.791   2.110  0.2741  0.0406 -0.0356
15859TIP3    H169068   0.344   2.825   2.198  0.0516 -1.3210  0.4552
15859TIP3    H269069   0.430   2.727   2.120  0.2243 -0.1491 -0.8353
15860TIP3   OH269070   6.712   5.465   0.535  0.4084 -0.3365 -0.6009
15860TIP3    H169071   6.644   5.398   0.530  0.6035 -0.5292 -0.6581
15860TIP3    H269072   6.664   5.548   0.533  0.1755 -0.4736 -0.6430
15861TIP3   OH269073   3.434   3.822   2.867  0.4840  0.7472  0.1097
15861TIP3    H169074   3.478   3.863   2.942  1.8130  0.7287 -0.6395
15861TIP3    H269075   3.416   3.732   2.896  0.7699  0.8128  0.4969
15862TIP3   OH269076   2.623   1.112  11.499 -0.2329  0.0538  0.2464
15862TIP3    H169077   2.707   1.154  11.516 -0.8414  1.1490  0.5759
15862TIP3    H269078   2.569   1.181  11.461  0.0721 -1.5089 -3.1516
15863TIP3   OH269079   4.728   2.883   4.236  0.1418  0.0844 -0.0809
15863TIP3    H169080   4.819   2.858   4.220 -0.0219 -0.2463 -0.5225
15863TIP3    H269081   4.724   2.902   4.330  0.3758 -1.1104  0.1718
15864TIP3   OH269082   3.121   1.464   0.565 -0.4302 -0.1119  0.4831
15864TIP3    H169083   3.089   1.393   0.621 -0.6812 -0.4145 -0.0423
15864TIP3    H269084   3.133   1.538   0.625 -1.3847 -0.2242  0.8231
15865TIP3   OH269085   1.739   2.298   0.030 -0.4120 -0.1054  0.4357
15865TIP3    H169086   1.715   2.379   0.076 -0.1824 -0.1552  0.6485
15865TIP3    H269087   1.702   2.228   0.084 -1.0915 -0.1215 -0.0464
15866TIP3   OH269088   0.198   1.702  14.327 -0.4449 -0.1545  0.5662
15866TIP3    H169089   0.161   1.771  14.381  0.3442 -0.3247  1.3276
15866TIP3    H269090   0.292   1.721  14.324 -0.2526 -1.0782  0.6066
15867TIP3   OH269091   0.272   5.483  14.671 -0.7146 -0.1951  0.4997
15867TIP3    H169092   0.213   5.522  14.606  0.0579  0.2500  0.0607
15867TIP3    H269093   0.359   5.495  14.634 -0.3491 -0.8838  1.1323
15868TIP3   OH269094   1.474   2.893   4.061  0.1911 -0.0680  0.0109
15868TIP3    H169095   1.400   2.876   4.119  0.4832 -3.8982 -0.6013
15868TIP3    H269096   1.523   2.963   4.104 -1.8320  0.0253  2.2494
15869TIP3   OH269097   6.735   4.426   3.712  0.0725  0.1081 -0.4621
15869TIP3    H169098   6.825   4.429   3.744 -0.5421 -0.1451  1.3341
15869TIP3    H269099   6.724   4.509   3.666  1.7832 -0.6350 -2.3289
15870TIP3   OH269100   5.462   4.101   1.459  0.4163 -0.1926 -0.3965
15870TIP3    H169101   5.433   4.013   1.434 -0.8564 -0.1884  0.9848
15870TIP3    H269102   5.543   4.086   1.507 -0.3514 -0.7265  0.7592
15871TIP3   OH269103   3.335   1.422  15.106 -0.4495 -0.1388  0.1841
15871TIP3    H169104   3.348   1.515  15.126  0.4581 -0.0979 -0.5933
15871TIP3    H269105   3.416   1.380  15.134 -0.8813 -0.7051  0.5842
15872TIP3   OH269106   4.509   0.778  12.444  0.2315  0.5649 -0.7555
15872TIP3    H169107   4.505   0.812  12.533  0.7455  1.7413 -1.1773
15872TIP3    H269108   4.510   0.856  12.388  1.2983 -0.1446 -1.7358
15873TIP3   OH269109   5.530   3.493   5.503 -0.1206  0.4347 -0.2924
15873TIP3    H169110   5.609   3.496   5.557 -0.1966 -1.5205 -0.0433
15873TIP3    H269111   5.460   3.471   5.564 -0.6897  1.0303 -0.7136
15874TIP3   OH269112   3.959   1.716  15.621  0.0066  0.3844 -0.1589
15874TIP3    H169113   3.878   1.678  15.658  0.6219 -1.0362 -0.2296
15874TIP3    H269114   3.931   1.756  15.539 -0.2723 -1.9674 -1.2429
15875TIP3   OH269115   1.031   1.481   1.483 -0.1037  0.3313  0.3354
15875TIP3    H169116   0.942   1.450   1.502  0.4513 -1.3917  0.2342
15875TIP3    H269117   1.077   1.473   1.567  0.8358 -1.9746 -0.3497
15876TIP3   OH269118   4.367   3.005  11.599 -0.3753  0.3471 -0.1922
15876TIP3    H169119   4.273   3.023  11.602 -0.6339 -0.5574 -2.1961
15876TIP3    H269120   4.376   2.916  11.634 -0.2233  0.5223  0.2219
15877TIP3   OH269121   3.516   6.066   0.150  0.4351 -0.1908 -0.3151
15877TIP3    H169122   3.426   6.078   0.120 -0.0897  0.3665  1.3935
15877TIP3    H269123   3.530   5.972   0.147 -0.9456 -0.4764  1.4023
15878TIP3   OH269124   4.809   0.015   4.587 -0.4260 -0.3573 -0.1492
15878TIP3    H169125   4.820   0.110   4.590  0.6749 -0.4528 -0.9060
15878TIP3    H269126   4.756  -0.005   4.664  1.4214  0.6012  1.4296
15879TIP3   OH269127   4.043   4.381  14.132  0.1748  0.3894  0.2997
15879TIP3    H169128   3.986   4.447  14.091  0.5731  1.0076  0.7275
15879TIP3    H269129   4.125   4.428  14.149 -0.0598  0.2131  2.0241
15880TIP3   OH269130   2.699   4.295   5.685 -0.7621  0.1352 -0.1126
15880TIP3    H169131   2.650   4.238   5.626  0.8051  0.0393 -1.3303
15880TIP3    H269132   2.766   4.238   5.723 -1.2808  0.3758  1.2135
15881TIP3   OH269133   4.358   3.343  14.804 -0.0674  0.1184  0.8700
15881TIP3    H169134   4.351   3.398  14.882  0.9696 -0.2705  1.2582
15881TIP3    H269135   4.290   3.375  14.745 -0.7899  0.4835  1.8982
15882TIP3   OH269136   5.246   4.954   0.348 -0.1873  0.2407  0.6232
15882TIP3    H169137   5.152   4.953   0.331 -0.5238  1.2311  2.2832
15882TIP3    H269138   5.277   4.869   0.318 -1.4755  0.2095 -0.6549
15883TIP3   OH269139   2.485   1.127   0.361 -0.2042  0.7057 -0.2582
15883TIP3    H169140   2.420   1.130   0.291 -0.6563  0.3275  0.1477
15883TIP3    H269141   2.435   1.111   0.440  0.4519 -0.2467 -0.0372
15884TIP3   OH269142   6.330   2.138   6.488  0.2731  0.2200  0.4151
15884TIP3    H169143   6.256   2.113   6.544  0.7743 -0.5877  0.7376
15884TIP3    H269144   6.303   2.219   6.446 -1.2484 -0.6514 -0.3249
15885TIP3   OH269145   1.872   5.260  10.741  0.5811  0.2337  0.4626
15885TIP3    H169146   1.884   5.243  10.648 -0.4697 -0.6063  0.4789
15885TIP3    H269147   1.910   5.347  10.755  0.9183  0.2737 -0.7022
15886TIP3   OH269148   6.372   6.645  13.784  0.3050  0.2488  0.1470
15886TIP3    H169149   6.431   6.717  13.761 -0.0589  0.1162 -1.2000
15886TIP3    H269150   6.340   6.612  13.701  1.5961 -2.4349  0.6758
15887TIP3   OH269151   5.895   6.383   6.166  0.1619 -0.3570 -0.8264
15887TIP3    H169152   5.973   6.334   6.141  1.2938  1.0209 -0.0628
15887TIP3    H269153   5.840   6.320   6.213  1.6976 -0.8250  0.3541
15888TIP3   OH269154   3.234   5.387  15.294  0.4388  0.0811 -0.0173
15888TIP3    H169155   3.143   5.357  15.295  0.7258 -0.8292 -0.6793
15888TIP3    H269156   3.263   5.380  15.385 -0.1842  0.4896  0.2168
15889TIP3   OH269157   1.957   4.215   4.419  0.1343  0.1882  0.2035
15889TIP3    H169158   1.912   4.161   4.485  0.2027 -1.3585 -0.9955
15889TIP3    H269159   2.049   4.192   4.428  0.3904  1.4806  0.9352
15890TIP3   OH269160   2.076   1.076  11.519 -0.1738  0.4530  0.5475
15890TIP3    H169161   1.994   1.100  11.475  0.2548 -0.1823 -0.5974
15890TIP3    H269162   2.060   1.098  11.611 -1.2688  1.2683  0.1751
15891TIP3   OH269163   2.283   4.552   4.751 -0.3817  0.2851 -0.0847
15891TIP3    H169164   2.359   4.529   4.805  0.6444  0.6251 -1.3443
15891TIP3    H269165   2.315   4.622   4.693 -1.5624  0.1969 -0.8631
15892TIP3   OH269166   1.110   4.403  15.482 -0.3195  0.6141 -0.0652
15892TIP3    H169167   1.093   4.460  15.406  0.9446  0.6136 -0.3494
15892TIP3    H269168   1.165   4.333  15.447 -1.7232 -0.7006  0.3197
15893TIP3   OH269169   2.962   2.413  17.260 -0.2833  0.0416 -0.7563
15893TIP3    H169170   2.942   2.497  17.301 -3.1024 -0.8301 -0.2256
15893TIP3    H269171   2.878   2.382  17.227  1.1496 -1.4585 -3.0954
15894TIP3   OH269172   0.253   1.312  15.676 -0.1455  0.2596  0.1470
15894TIP3    H169173   0.268   1.406  15.681 -0.3861  0.1440  4.8296
15894TIP3    H269174   0.331   1.273  15.717 -0.1124 -1.6065 -1.6016
15895TIP3   OH269175   1.963   5.203   4.945  0.0781 -0.4575  0.1834
15895TIP3    H169176   1.908   5.217   4.868 -1.3255  0.1971  1.2771
15895TIP3    H269177   1.909   5.151   5.004  1.3169 -1.3434  0.5489
15896TIP3   OH269178   1.766   4.587   0.725 -0.0835  0.0319 -0.0224
15896TIP3    H169179   1.716   4.644   0.784  0.2284  3.3963 -2.7837
15896TIP3    H269180   1.854   4.586   0.761 -0.6446 -0.6629  1.3587
15897TIP3   OH269181   1.110   2.013  13.796  0.2830  0.3986 -0.3313
15897TIP3    H169182   1.139   2.052  13.879 -0.3784  0.5781 -0.1839
15897TIP3    H269183   1.106   2.086  13.735 -0.3175  0.4500 -0.2285
15898TIP3   OH269184   1.344   5.456   3.098 -0.2810  0.2948  0.0298
15898TIP3    H169185   1.368   5.391   3.164  1.4736  2.1946  1.3109
15898TIP3    H269186   1.277   5.509   3.141 -0.0562  0.7424 -0.1709
15899TIP3   OH269187   5.338   5.738  15.316 -0.0514 -0.2862 -0.3722
15899TIP3    H169188   5.248   5.717  15.290 -0.6466  1.4765  0.1649
15899TIP3    H269189   5.371   5.793  15.245 -0.0509  0.5879  0.2889
15900TIP3   OH269190   3.596   5.102   0.173 -0.0285  0.2400 -0.7038
15900TIP3    H169191   3.581   5.034   0.239  1.3653  0.1073 -0.5007
15900TIP3    H269192   3.686   5.086   0.143 -0.3977  0.7458 -2.1178
15901TIP3   OH269193   3.149   0.683   0.973 -0.1058 -0.2221 -0.0988
15901TIP3    H169194   3.105   0.633   1.041 -0.3254 -0.3563 -0.3410
15901TIP3    H269195   3.181   0.617   0.911 -1.6933  0.0160 -1.1969
15902TIP3   OH269196   1.292   6.334  16.020  0.7004  0.6134  0.2240
15902TIP3    H169197   1.294   6.399  16.090 -0.5148  2.5238 -1.4540
15902TIP3    H269198   1.357   6.365  15.957 -0.0034  0.3071 -0.6656
15903TIP3   OH269199   0.728   3.136  12.239  0.1086 -0.3066 -0.3065
15903TIP3    H169200   0.735   3.230  12.221 -2.4526 -0.0797 -0.2890
15903TIP3    H269201   0.802   3.097  12.192  1.4484  1.7499  0.0298
15904TIP3   OH269202   5.870   3.732  14.933 -0.0555  0.8197  0.2101
15904TIP3    H169203   5.895   3.643  14.958  0.0174  0.8877  0.3760
15904TIP3    H269204   5.774   3.731  14.932 -0.0609  0.8351  0.5588
15905TIP3   OH269205   6.636   2.179  16.808  0.0349 -0.1971 -0.6516
15905TIP3    H169206   6.619   2.212  16.720  0.6859  0.2573 -0.6174
15905TIP3    H269207   6.565   2.118  16.826  1.2571 -2.2631 -2.4879
15906TIP3   OH269208   2.133   6.403   3.271 -0.8504 -0.1893 -0.4086
15906TIP3    H169209   2.185   6.403   3.351  0.9879 -0.9561 -1.5709
15906TIP3    H269210   2.054   6.452   3.293  1.3432  2.9470  0.7724
15907TIP3   OH269211   2.000   4.663  11.786  0.9126  0.3208 -0.9482
15907TIP3    H169212   1.994   4.569  11.767 -0.4865  0.1369  0.3233
15907TIP3    H269213   2.070   4.671  11.850  1.0911  0.1543 -1.1236
15908TIP3   OH269214   0.886   5.381  16.953  0.0584 -0.3272 -0.1124
15908TIP3    H169215   0.850   5.402  17.039  0.2724 -0.4387  0.0070
15908TIP3    H269216   0.841   5.441  16.893  1.4924  1.2891  0.3761
15909TIP3   OH269217   1.588   5.485  14.250  0.0180  0.2117  0.1374
15909TIP3    H169218   1.525   5.524  14.311 -0.3138  2.6997 -1.7075
15909TIP3    H269219   1.655   5.447  14.306 -1.7578 -0.1351  2.1021
15910TIP3   OH269220   1.103   3.837   1.897 -0.1424  0.3702  0.0775
15910TIP3    H169221   1.178   3.894   1.911  0.1604  0.2439 -1.0178
15910TIP3    H269222   1.085   3.800   1.984  1.1100  0.3375  0.3320
15911TIP3   OH269223   6.411   3.830   2.231 -0.4155  0.4449  0.0992
15911TIP3    H169224   6.439   3.852   2.142  0.4868  0.4601  0.3876
15911TIP3    H269225   6.411   3.913   2.278 -0.0771  0.3098  0.3387
15912TIP3   OH269226   2.229   5.259  13.125 -0.1441 -0.5371  0.0845
15912TIP3    H169227   2.219   5.166  13.147  0.2581 -0.4215  0.7783
15912TIP3    H269228   2.186   5.268  13.039  0.0036 -1.4060 -0.0909
15913TIP3   OH269229   1.884   0.771  16.172 -0.5097  0.1647 -0.5941
15913TIP3    H169230   1.928   0.692  16.203  0.1652 -0.3333 -2.7629
15913TIP3    H269231   1.951   0.839  16.176 -1.1888  0.7470  1.6107
15914TIP3   OH269232   6.118   2.133   1.256  0.6299 -0.0238  0.3331
15914TIP3    H169233   6.187   2.068   1.264  0.2381 -0.3983  0.7358
15914TIP3    H269234   6.043   2.084   1.220  0.8923  0.5999 -1.1143
15915TIP3   OH269235   5.443   2.444  15.355  0.0261 -0.1373  0.3164
15915TIP3    H169236   5.477   2.361  15.388 -2.2037 -1.6378 -1.0268
15915TIP3    H269237   5.413   2.490  15.432  0.7908 -0.7934  1.0224
15916TIP3   OH269238   2.035   2.594   1.794  0.1454 -0.0971 -0.0030
15916TIP3    H169239   2.060   2.612   1.703  0.2903  0.5241  0.1635
15916TIP3    H269240   2.052   2.500   1.804 -2.4858 -0.8176 -1.4609
15917TIP3   OH269241   2.016   4.988   0.352  0.4279  0.6305 -0.1921
15917TIP3    H169242   2.081   5.029   0.410 -2.5268  0.0925  3.6832
15917TIP3    H269243   2.023   4.894   0.370 -2.1299  0.6533  1.1319
15918TIP3   OH269244   3.540   5.330  15.398  0.4929 -0.3845  0.0770
15918TIP3    H169245   3.471   5.285  15.447 -0.2053  1.2877  0.6752
15918TIP3    H269246   3.600   5.261  15.372 -0.3913 -1.6171  1.2474
15919TIP3   OH269247   1.388   4.409  16.400 -0.0032 -0.3806 -0.3778
15919TIP3    H169248   1.464   4.467  16.398 -0.9564  1.0974  2.8685
15919TIP3    H269249   1.313   4.469  16.397 -1.0655 -1.7298 -1.6260
15920TIP3   OH269250   3.734   4.253  15.686 -0.7519  0.4566 -0.4471
15920TIP3    H169251   3.811   4.251  15.743 -1.3407 -0.8709  0.3228
15920TIP3    H269252   3.746   4.331  15.632  0.7591  0.6751  0.1847
15921TIP3   OH269253   1.949   5.305   2.499  0.1258  0.1404  0.2729
15921TIP3    H169254   1.983   5.358   2.426 -0.7372 -1.9836 -1.7268
15921TIP3    H269255   2.027   5.264   2.536  0.5627  1.1614  0.5074
15922TIP3   OH269256   6.102   6.509  14.047  0.0981  0.6163 -0.3290
15922TIP3    H169257   6.129   6.449  14.117  0.1131  1.7576  0.6759
15922TIP3    H269258   6.031   6.464  14.002  0.2418 -0.2322  0.2913
15923TIP3   OH269259   4.357   6.569   5.641 -0.5648 -0.1929  0.5148
15923TIP3    H169260   4.263   6.554   5.625 -0.6056  0.9715 -0.4313
15923TIP3    H269261   4.359   6.625   5.718 -0.7206  0.9179 -0.2728
15924TIP3   OH269262   3.361   3.093   0.886 -0.3102 -0.0763  0.2585
15924TIP3    H169263   3.331   3.093   0.795 -1.9227 -0.6559  0.7755
15924TIP3    H269264   3.316   3.166   0.927 -0.6487 -0.6469  0.9244
15925TIP3   OH269265   1.773   1.092  12.182  0.1974 -0.0742  0.8827
15925TIP3    H169266   1.679   1.090  12.166  0.2240  3.7804 -0.1673
15925TIP3    H269267   1.813   1.076  12.096  0.5055  0.3427  0.9489
15926TIP3   OH269268   6.482   2.982  12.477 -0.0885  0.5895  0.0913
15926TIP3    H169269   6.533   2.902  12.461 -0.0247  0.6713 -0.1192
15926TIP3    H269270   6.500   3.004  12.568 -0.4045  0.1468  0.2622
15927TIP3   OH269271   5.063   6.634   5.515  0.5171 -0.2312  0.4141
15927TIP3    H169272   5.074   6.641   5.420 -1.2302  0.9696  0.2816
15927TIP3    H269273   5.131   6.572   5.542  0.4298 -1.3155 -1.7412
15928TIP3   OH269274   2.688   6.074  10.874 -0.0563  0.1705 -0.0147
15928TIP3    H169275   2.707   5.987  10.909 -3.1384 -1.0394 -1.1233
15928TIP3    H269276   2.596   6.089  10.897  0.1011  2.6363 -0.8459
15929TIP3   OH269277   4.727   3.434  14.070 -0.0532 -0.1185  0.0573
15929TIP3    H169278   4.691   3.346  14.075  0.5803 -0.2800  2.3638
15929TIP3    H269279   4.651   3.491  14.058 -0.7418 -0.7651  1.2362
15930TIP3   OH269280   3.226   0.466  13.957 -0.2731  0.3641 -0.9228
15930TIP3    H169281   3.142   0.512  13.959  1.5459  3.8612 -0.5857
15930TIP3    H269282   3.277   0.508  14.027  2.4301 -0.3245 -2.4229
15931TIP3   OH269283   6.342   5.021  13.140  0.0919  0.4647  0.4984
15931TIP3    H169284   6.362   5.068  13.058  0.7350 -2.0024 -0.8137
15931TIP3    H269285   6.428   5.001  13.177 -0.1926  0.8699  1.3923
15932TIP3   OH269286   3.737   2.566  11.566 -0.3930  0.1646 -0.0760
15932TIP3    H169287   3.748   2.549  11.472 -0.0333 -0.0676  0.0048
15932TIP3    H269288   3.702   2.484  11.601  0.6484 -0.1775  0.1950
15933TIP3   OH269289   3.084   0.219  15.655 -0.1118  0.1466 -0.3716
15933TIP3    H169290   3.157   0.186  15.707 -1.0040  1.0363  1.4681
15933TIP3    H269291   3.125   0.259  15.578  1.3245  0.6423  0.6514
15934TIP3   OH269292   1.905   3.645   3.580  0.5101  0.1756 -0.6268
15934TIP3    H169293   1.846   3.651   3.505 -0.9006  0.0611  0.4582
15934TIP3    H269294   1.971   3.712   3.563 -0.3600  0.8421 -1.4837
15935TIP3   OH269295   0.662   2.205  16.284  0.1843  0.2541  0.0078
15935TIP3    H169296   0.571   2.179  16.298  0.3436 -0.3064 -0.0011
15935TIP3    H269297   0.704   2.195  16.369  0.1191  0.9927  0.1262
15936TIP3   OH269298   3.462   0.623   5.422  0.5613 -0.0327 -0.0235
15936TIP3    H169299   3.477   0.692   5.486  1.3671 -1.5246  1.4426
15936TIP3    H269300   3.550   0.596   5.394  0.3112 -1.2531  0.3065
15937TIP3   OH269301   3.646   6.281   1.373 -0.7464  0.0116 -0.2342
15937TIP3    H169302   3.631   6.329   1.292  1.3476  0.3573 -0.4506
15937TIP3    H269303   3.661   6.191   1.346  0.1764  0.1691 -0.2600
15938TIP3   OH269304   4.279   4.321  11.865 -0.3582 -0.1245 -0.1925
15938TIP3    H169305   4.310   4.405  11.901  0.4538 -0.1238 -0.8884
15938TIP3    H269306   4.221   4.286  11.933 -0.9552  1.1496 -0.0255
15939TIP3   OH269307   2.136   5.134  15.893 -0.2804 -0.0629 -0.0984
15939TIP3    H169308   2.160   5.071  15.825  1.3923  0.0755  0.3595
15939TIP3    H269309   2.040   5.131  15.895 -0.3290 -0.5684 -1.9925
15940TIP3   OH269310   4.519   5.949  12.286  0.4798  0.0032  0.5815
15940TIP3    H169311   4.445   5.889  12.275  1.9823 -1.6460 -0.8221
15940TIP3    H269312   4.508   6.013  12.215  1.2899 -1.2353 -0.7035
15941TIP3   OH269313   3.893   0.089  17.104  0.4759 -0.0112  0.0980
15941TIP3    H169314   3.891   0.082  17.008  0.7780 -1.2300  0.1706
15941TIP3    H269315   3.981   0.122  17.123  0.8289 -0.8860  0.0117
15942TIP3   OH269316   0.088   2.194   3.224 -0.6416  0.6044 -0.2397
15942TIP3    H169317   0.016   2.246   3.189 -1.7893 -1.5290 -1.1767
15942TIP3    H269318   0.045   2.119   3.267  0.9843 -1.0387 -1.3895
15943TIP3   OH269319   5.203   4.370   1.500  0.0541  0.5282  0.6372
15943TIP3    H169320   5.158   4.448   1.468  0.3248  1.0880  1.6161
15943TIP3    H269321   5.207   4.312   1.424 -3.3288  0.0063  0.7711
15944TIP3   OH269322   3.694   2.163   4.420  0.4905 -0.1594  0.3699
15944TIP3    H169323   3.683   2.193   4.330  0.2099 -0.6452  0.2406
15944TIP3    H269324   3.650   2.229   4.473 -2.7803 -1.8250 -0.1038
15945TIP3   OH269325   6.685   2.254   4.563 -0.7678 -0.1989  0.1431
15945TIP3    H169326   6.656   2.169   4.596  0.6258 -0.5741  0.4238
15945TIP3    H269327   6.722   2.235   4.477 -1.0448  0.2304 -0.0734
15946TIP3   OH269328   3.382   0.535   6.433 -0.4714  0.2399  0.6555
15946TIP3    H169329   3.348   0.604   6.490 -0.8148 -0.6344  1.5197
15946TIP3    H269330   3.366   0.454   6.481 -1.5888 -0.6087 -1.0639
15947TIP3   OH269331   3.701   6.322  13.182  0.5153  0.1514 -0.4044
15947TIP3    H169332   3.617   6.305  13.226  0.1413 -2.8471 -2.1227
15947TIP3    H269333   3.680   6.319  13.089  2.1510  1.6710 -0.8420
15948TIP3   OH269334   6.209   3.168  12.153 -0.9362  0.0148 -0.3147
15948TIP3    H169335   6.126   3.183  12.197 -1.0181  0.7394 -0.7116
15948TIP3    H269336   6.185   3.121  12.072 -0.8968 -0.3186 -0.1338
15949TIP3   OH269337   1.673   2.722   6.065 -0.1081 -0.1424 -0.0381
15949TIP3    H169338   1.679   2.687   5.977 -0.2349  1.0464 -0.5365
15949TIP3    H269339   1.759   2.762   6.081  0.8427 -2.7055  1.4187
15950TIP3   OH269340   0.103   0.882   1.471  0.4973  0.0315 -0.4715
15950TIP3    H169341   0.042   0.935   1.420  1.6717  1.8518 -0.0124
15950TIP3    H269342   0.095   0.915   1.560  1.3266 -0.4992 -0.1947
15951TIP3   OH269343   3.288   2.150  13.543 -0.0248  0.5767 -0.1425
15951TIP3    H169344   3.343   2.121  13.615 -2.5419 -3.2342  0.3833
15951TIP3    H269345   3.229   2.214  13.582 -0.8636 -0.8992  1.0513
15952TIP3   OH269346   3.722   5.851  16.762  0.2164  0.3862 -0.1954
15952TIP3    H169347   3.641   5.871  16.716  0.6030  0.6265 -0.7704
15952TIP3    H269348   3.785   5.916  16.730  1.0093 -0.6623 -0.7670
15953TIP3   OH269349   4.116   1.690  15.225  0.2262 -0.4343  0.2343
15953TIP3    H169350   4.149   1.630  15.292  1.2551 -0.7687 -0.5632
15953TIP3    H269351   4.032   1.652  15.199 -0.5323  0.0914  1.8387
15954TIP3   OH269352   4.108   0.919   2.702 -0.6652 -0.0267 -0.1987
15954TIP3    H169353   4.197   0.938   2.672 -0.4077 -0.4804  0.2601
15954TIP3    H269354   4.053   0.985   2.659 -0.0052  0.7483  0.1319
15955TIP3   OH269355   5.753   3.823   2.643  0.0460  0.2487 -0.1218
15955TIP3    H169356   5.725   3.903   2.687 -1.3175 -1.1816  1.7309
15955TIP3    H269357   5.676   3.795   2.593 -0.8243 -1.9317  2.3335
15956TIP3   OH269358   5.624   1.736  14.784 -0.0050  0.5177 -0.1448
15956TIP3    H169359   5.700   1.680  14.767  0.3930  1.5944 -1.9953
15956TIP3    H269360   5.588   1.755  14.697 -1.1466  1.7442  0.5815
15957TIP3   OH269361   5.866   6.432  13.338  0.1437  0.7565 -0.2599
15957TIP3    H169362   5.849   6.492  13.265 -0.2130  0.7553 -0.1768
15957TIP3    H269363   5.847   6.346  13.302  2.7488  0.4609 -1.0542
15958TIP3   OH269364   2.600   1.277   2.904  0.0085  0.0843 -0.0000
15958TIP3    H169365   2.685   1.267   2.861  0.0631 -0.4623  0.2356
15958TIP3    H269366   2.621   1.284   2.997 -0.1281  1.0237 -0.0251
15959TIP3   OH269367   4.908   2.577  11.163 -0.0714 -0.1408 -0.0116
15959TIP3    H169368   4.946   2.618  11.085  0.4115  0.5043  0.5607
15959TIP3    H269369   4.957   2.615  11.236  0.0504 -1.3713  0.5543
15960TIP3   OH269370   1.691   1.997   4.914 -0.0178 -0.2509  0.1415
15960TIP3    H169371   1.646   1.992   4.829  1.6681 -0.1468 -0.7757
15960TIP3    H269372   1.779   1.965   4.896  0.4653  0.1407  1.7837
15961TIP3   OH269373   2.322   0.510  16.922  0.8242 -0.2351  0.1103
15961TIP3    H169374   2.263   0.585  16.925 -1.3942 -1.9244 -0.3120
15961TIP3    H269375   2.361   0.506  17.009 -0.1636  0.5216  0.5881
15962TIP3   OH269376   6.448   6.058   5.657  0.0047  0.4358  0.4849
15962TIP3    H169377   6.492   6.026   5.736 -0.7229 -0.3866  0.5530
15962TIP3    H269378   6.496   6.017   5.585 -0.4124 -0.1538  0.5468
15963TIP3   OH269379   0.153   3.997  10.852  0.3871  0.2696 -0.0464
15963TIP3    H169380   0.192   4.034  10.931  2.6350 -0.3043 -0.8655
15963TIP3    H269381   0.168   4.062  10.784 -1.8122  0.9000  0.0200
15964TIP3   OH269382   1.794   6.568   6.569  0.3020 -0.6927  0.3393
15964TIP3    H169383   1.870   6.626   6.581  0.4987 -0.7562 -0.5317
15964TIP3    H269384   1.802   6.503   6.640  0.1149  0.2978  1.2774
15965TIP3   OH269385   6.659   0.166  15.480 -0.0653 -0.0795  0.2601
15965TIP3    H169386   6.715   0.110  15.533 -0.1032 -0.7427 -0.4045
15965TIP3    H269387   6.721   0.222  15.432  0.0764 -1.3480 -1.0765
15966TIP3   OH269388   2.360   5.327  12.658 -0.2024  0.0572 -0.2090
15966TIP3    H169389   2.265   5.338  12.663  0.0537  1.9568  1.0318
15966TIP3    H269390   2.392   5.411  12.626  1.2972  0.5080  2.3530
15967TIP3   OH269391   4.304   4.888  17.031 -0.4538  0.2617 -0.3709
15967TIP3    H169392   4.307   4.982  17.047  0.9938  0.7183 -3.0238
15967TIP3    H269393   4.395   4.859  17.036 -0.6921 -0.6853 -1.1593
15968TIP3   OH269394   5.751   3.814  14.621 -0.0180  0.0225 -0.1887
15968TIP3    H169395   5.841   3.848  14.622  0.5107 -1.3042 -0.7467
15968TIP3    H269396   5.697   3.888  14.595  1.2469  0.1165 -2.6881
15969TIP3   OH269397   0.679   1.138   2.741  0.7315  0.3788  0.1148
15969TIP3    H169398   0.704   1.227   2.767 -1.9926  1.6094 -1.2829
15969TIP3    H269399   0.645   1.147   2.652 -1.7576 -1.6558  0.7906
15970TIP3   OH269400   2.181   3.205   1.776  0.1567 -0.2360  0.2320
15970TIP3    H169401   2.170   3.296   1.749  2.7291  0.3684  1.0092
15970TIP3    H269402   2.170   3.154   1.696  1.4077  1.0101 -0.7571
15971TIP3   OH269403   3.418   5.175   6.465 -0.1093  0.2533  0.9116
15971TIP3    H169404   3.441   5.235   6.393 -0.9138 -1.2561 -0.6419
15971TIP3    H269405   3.378   5.232   6.531 -1.0834  1.4272 -0.6320
15972TIP3   OH269406   1.674   6.266  11.089  0.3057 -0.4812  0.4043
15972TIP3    H169407   1.647   6.192  11.035  1.9464 -1.0078  0.2657
15972TIP3    H269408   1.748   6.305  11.042  1.5593 -0.7590  2.0925
15973TIP3   OH269409   4.257   5.324  14.682 -0.1488  0.2774  0.3342
15973TIP3    H169410   4.352   5.337  14.674  0.1545 -0.8519  1.8169
15973TIP3    H269411   4.227   5.399  14.733 -0.0325  0.5327  0.0340
15974TIP3   OH269412   6.628   0.003  11.712 -0.5649  0.0756 -0.2109
15974TIP3    H169413   6.696  -0.061  11.737 -1.7834 -0.8311  0.8744
15974TIP3    H269414   6.546  -0.037  11.741 -1.4886  1.5603 -0.7142
15975TIP3   OH269415   5.467   0.414  11.283 -0.1679  0.4747 -0.5557
15975TIP3    H169416   5.527   0.469  11.232 -0.7264  1.8111  0.1945
15975TIP3    H269417   5.469   0.452  11.371 -0.4571 -0.8076  0.0157
15976TIP3   OH269418   3.181   1.095   5.400 -0.7828 -0.4607 -0.0096
15976TIP3    H169419   3.165   1.054   5.315 -0.7524  0.0404 -0.2579
15976TIP3    H269420   3.116   1.056   5.458 -1.2238 -0.3258 -0.4135
15977TIP3   OH269421   6.534   2.402  16.951  0.0383  0.2682  0.3656
15977TIP3    H169422   6.575   2.322  16.917 -0.4468 -0.4701  1.4753
15977TIP3    H269423   6.440   2.383  16.953 -0.0587  0.7573  0.8846
15978TIP3   OH269424   2.619   1.458  11.565  0.5093  0.6264 -0.0879
15978TIP3    H169425   2.700   1.427  11.524  1.3355  0.9648  1.2597
15978TIP3    H269426   2.551   1.441  11.499  1.6381  0.1711 -1.1623
15979TIP3   OH269427   5.951   5.617   2.033 -0.0459  0.0137 -0.5353
15979TIP3    H169428   5.952   5.697   2.086  1.6402 -0.6150  0.4489
15979TIP3    H269429   5.890   5.559   2.078 -0.4380  0.3537 -0.6299
15980TIP3   OH269430   0.801   4.230  11.554 -0.1055 -0.4695 -0.0741
15980TIP3    H169431   0.847   4.181  11.621  0.7416  1.0747  0.5087
15980TIP3    H269432   0.862   4.235  11.480 -0.6884 -1.3942 -0.6257
15981TIP3   OH269433   0.364   0.791   3.737 -0.3076  0.1725 -0.2136
15981TIP3    H169434   0.321   0.840   3.807 -1.0351 -1.3982  0.4767
15981TIP3    H269435   0.294   0.736   3.700  0.2823  0.2956 -1.5565
15982TIP3   OH269436   3.821   6.494  14.273  0.1697  0.2670  0.6185
15982TIP3    H169437   3.846   6.406  14.245  0.5623  0.0171  1.7491
15982TIP3    H269438   3.764   6.526  14.203 -0.2183 -0.9957  0.3468
15983TIP3   OH269439   2.990   4.138   5.140 -0.4706  0.1296 -0.2632
15983TIP3    H169440   2.939   4.177   5.211  1.2376  2.6882 -0.3545
15983TIP3    H269441   3.004   4.048   5.166 -1.1819  0.6427  1.9371
15984TIP3   OH269442   4.032   1.875   0.553 -0.0863 -0.3079 -0.2947
15984TIP3    H169443   3.938   1.892   0.559  0.2114  1.0896  0.4997
15984TIP3    H269444   4.040   1.781   0.566 -1.2218 -0.1690  1.5715
15985TIP3   OH269445   3.560   4.961   4.057  0.0141  0.6354 -0.0197
15985TIP3    H169446   3.610   5.040   4.078  0.3258  0.3516  0.2946
15985TIP3    H269447   3.626   4.892   4.050 -0.3487  0.2358  0.5268
15986TIP3   OH269448   5.337   0.051   2.532  0.1570 -1.0904  0.3309
15986TIP3    H169449   5.282  -0.012   2.579 -0.4533 -0.0346  1.0643
15986TIP3    H269450   5.278   0.091   2.468 -0.4418  1.2887  2.2713
15987TIP3   OH269451   4.817   1.274  12.106  0.1310 -0.2101  0.1548
15987TIP3    H169452   4.840   1.326  12.030  0.6504  0.2027  0.5882
15987TIP3    H269453   4.868   1.193  12.097  1.7851  0.6900  1.0984
15988TIP3   OH269454   6.651   5.480  15.746  0.9856  0.0004 -0.2925
15988TIP3    H169455   6.675   5.391  15.773 -0.8476 -0.3993  0.1373
15988TIP3    H269456   6.589   5.466  15.673  0.7847  0.9223 -0.2999
15989TIP3   OH269457   4.466   0.334   1.422  0.0011 -0.0186 -0.6176
15989TIP3    H169458   4.378   0.338   1.459 -0.1841 -0.0614 -1.0529
15989TIP3    H269459   4.463   0.261   1.361  0.7109 -0.8529  0.3344
15990TIP3   OH269460   3.587   4.813   2.256 -0.8346  0.2057  0.1506
15990TIP3    H169461   3.632   4.767   2.326 -1.3530  0.0833  0.4064
15990TIP3    H269462   3.657   4.846   2.199 -0.4359 -0.1590  0.4311
15991TIP3   OH269463   1.727   2.112   2.723  0.2514 -0.0853 -0.2713
15991TIP3    H169464   1.694   2.149   2.641  0.6140  2.4781  0.7022
15991TIP3    H269465   1.692   2.170   2.791  0.4460 -1.8311  1.3536
15992TIP3   OH269466   0.823   3.935   0.367 -0.0374  0.2371  0.0239
15992TIP3    H169467   0.870   3.874   0.309 -0.0325  1.3592 -1.1704
15992TIP3    H269468   0.871   3.931   0.450  2.4429  1.6414 -1.2828
15993TIP3   OH269469   0.457   4.445   1.127 -0.6116  0.4439  0.0695
15993TIP3    H169470   0.509   4.504   1.072 -1.4410  0.0214 -1.1952
15993TIP3    H269471   0.404   4.396   1.064 -0.1345 -1.4438  1.1337
15994TIP3   OH269472   3.813   5.621  15.385  0.2501 -0.5622 -0.6925
15994TIP3    H169473   3.790   5.532  15.359 -1.1772 -0.8806  1.5457
15994TIP3    H269474   3.733   5.671  15.372  0.3572 -0.1212  0.2999
15995TIP3   OH269475   0.284   2.153   0.933 -0.0939  0.4875  0.4610
15995TIP3    H169476   0.219   2.084   0.920  0.4297 -0.0290  0.5822
15995TIP3    H269477   0.251   2.202   1.009  0.6186 -0.9119  1.7062
15996TIP3   OH269478   6.420   0.337   0.018  0.2985  0.1917 -0.7354
15996TIP3    H169479   6.354   0.268   0.011 -1.1365  1.4877 -0.2901
15996TIP3    H269480   6.372   0.412   0.053  2.3155  0.7242  0.9707
15997TIP3   OH269481   0.253   5.645  12.217 -0.4379 -0.1890 -0.1764
15997TIP3    H169482   0.313   5.710  12.254 -1.5537 -0.3158  1.9649
15997TIP3    H269483   0.166   5.678  12.240 -1.0512 -1.8747 -0.0361
15998TIP3   OH269484   5.673   3.671  12.189  0.4862 -0.0914  0.7454
15998TIP3    H169485   5.746   3.729  12.169 -0.4308  1.6102  2.1461
15998TIP3    H269486   5.665   3.614  12.112  1.6597  1.3721 -0.4795
15999TIP3   OH269487   1.139   6.472   6.562 -0.0774  0.7007 -0.3021
15999TIP3    H169488   1.083   6.407   6.520  0.0574 -0.3332  1.0713
15999TIP3    H269489   1.110   6.556   6.526 -1.2872  0.0243 -0.9380
16000TIP3   OH269490   1.737   3.067   3.760  0.2469 -0.1419 -0.4472
16000TIP3    H169491   1.677   2.994   3.744  3.2347 -3.1370  1.1421
16000TIP3    H269492   1.794   3.068   3.683  0.3506  0.3699 -0.3646
16001TIP3   OH269493   5.340   1.474   6.093 -0.1138  0.5205  0.2371
16001TIP3    H169494   5.358   1.567   6.109  1.6309  0.1520  0.5180
16001TIP3    H269495   5.245   1.466   6.103 -0.5522  2.6509 -1.7848
16002TIP3   OH269496   0.172   1.180  16.347  0.4979  0.3132 -0.1642
16002TIP3    H169497   0.097   1.213  16.397  0.7518  2.4730 -1.1764
16002TIP3    H269498   0.178   1.238  16.271  0.5055 -2.5349 -2.3955
16003TIP3   OH269499   4.508   3.025   5.120 -0.1959  0.3149 -0.5054
16003TIP3    H169500   4.436   3.042   5.181 -1.1937  0.3263 -1.6865
16003TIP3    H269501   4.489   3.080   5.044  0.7428 -0.1327 -1.0758
16004TIP3   OH269502   3.297   2.317  12.314  0.5158  0.3886 -0.3700
16004TIP3    H169503   3.245   2.309  12.395  1.5701  0.7368  0.3531
16004TIP3    H269504   3.380   2.273  12.335  1.0879  1.1610 -1.0102
16005TIP3   OH269505   4.243   0.450   0.812 -0.5010  0.6285  0.2216
16005TIP3    H169506   4.216   0.378   0.755 -2.7195  1.2848  0.3927
16005TIP3    H269507   4.272   0.408   0.893 -1.0525 -0.1036  0.0366
16006TIP3   OH269508   6.535   2.382   2.301  0.1874  0.0751  0.0434
16006TIP3    H169509   6.467   2.362   2.366  0.1098  1.0026  0.2461
16006TIP3    H269510   6.520   2.319   2.231 -0.1444 -0.5018  0.6261
16007TIP3   OH269511   2.021   2.677   3.082 -0.0457 -0.4117 -0.3660
16007TIP3    H169512   2.095   2.705   3.028  0.4529  0.6942  0.8437
16007TIP3    H269513   2.014   2.744   3.150 -2.8838  0.0829 -1.0867
16008TIP3   OH269514   6.197   6.352  14.763  0.1230 -0.1331  0.2086
16008TIP3    H169515   6.195   6.414  14.690 -1.7340  0.4141  0.6790
16008TIP3    H269516   6.185   6.267  14.722 -2.4767  0.2996 -0.0571
16009TIP3   OH269517   3.065   1.969  12.985 -0.6078 -0.1228  0.0246
16009TIP3    H169518   2.991   1.938  13.036 -2.2424 -0.4603 -2.4452
16009TIP3    H269519   3.078   1.902  12.918  2.3081 -0.3352  0.7492
16010TIP3   OH269520   3.986   4.992  13.587  0.0793  0.5022  0.6535
16010TIP3    H169521   3.947   5.079  13.576 -2.4615 -0.7886 -0.9738
16010TIP3    H269522   4.078   5.010  13.609 -0.7629  3.5984  1.9723
16011TIP3   OH269523   4.522   4.687  12.269 -0.0151  0.6472  0.2956
16011TIP3    H169524   4.600   4.728  12.307  0.8323 -0.6892  0.0307
16011TIP3    H269525   4.556   4.630  12.200 -1.3040  0.7147 -0.4108
16012TIP3   OH269526   3.282   4.117  11.263  0.0050 -0.1023  0.0650
16012TIP3    H169527   3.270   4.207  11.232 -0.0118  0.3123  1.2091
16012TIP3    H269528   3.240   4.116  11.349 -1.2350 -1.6135 -0.5526
16013TIP3   OH269529   2.906   2.396   5.438 -0.2286 -0.3630 -0.0959
16013TIP3    H169530   2.969   2.385   5.509 -0.1692 -1.5761 -0.3323
16013TIP3    H269531   2.865   2.311   5.428 -0.4110 -0.1483 -1.3543
16014TIP3   OH269532   3.350   6.709   5.983 -0.5788 -0.4051  0.0597
16014TIP3    H169533   3.372   6.682   6.073 -2.1336 -0.6231  0.3861
16014TIP3    H269534   3.320   6.629   5.941 -2.3449  0.2109  0.1275
16015TIP3   OH269535   1.455   1.181  13.879 -0.2196  0.2870 -0.4914
16015TIP3    H169536   1.468   1.087  13.871  2.2553  0.6733 -1.4211
16015TIP3    H269537   1.387   1.201  13.814 -1.9164 -1.0442  0.8108
16016TIP3   OH269538   4.664   1.731   5.127 -0.3020  0.2428  0.1692
16016TIP3    H169539   4.584   1.726   5.075 -1.0096 -0.4682  1.3093
16016TIP3    H269540   4.682   1.824   5.135 -2.2373  0.5077  1.7370
16017TIP3   OH269541   4.647   4.752   3.685  0.9072  0.1999  0.6512
16017TIP3    H169542   4.693   4.669   3.674 -0.4348 -0.4099 -0.6228
16017TIP3    H269543   4.603   4.744   3.770 -0.7366 -1.1787 -0.3074
16018TIP3   OH269544   0.403   2.005  12.522 -0.1739 -0.2697  0.2520
16018TIP3    H169545   0.357   2.012  12.439 -0.7157  0.1472  0.5861
16018TIP3    H269546   0.406   2.095  12.556  0.6633 -0.3307  0.3496
16019TIP3   OH269547   5.917   3.642  16.410 -0.6323  0.5059  0.1592
16019TIP3    H169548   5.918   3.669  16.318  0.7078  2.4188  0.7023
16019TIP3    H269549   5.846   3.578  16.415 -1.7221  1.4857 -1.8983
16020TIP3   OH269550   2.836   4.453   2.750 -0.0543 -0.6543  0.0571
16020TIP3    H169551   2.763   4.511   2.727 -1.9440 -2.2255  1.9021
16020TIP3    H269552   2.833   4.384   2.684 -0.4152 -0.8914  0.3265
16021TIP3   OH269553   1.823   4.563  12.350  0.1729 -0.1167  0.0267
16021TIP3    H169554   1.827   4.475  12.313  1.0736 -0.7171  1.4977
16021TIP3    H269555   1.771   4.613  12.288  3.6603 -0.4506 -3.3836
16022TIP3   OH269556   0.405   1.729   4.864  0.0931 -0.2351  1.1036
16022TIP3    H169557   0.461   1.669   4.815  0.5030 -0.2046  1.5375
16022TIP3    H269558   0.457   1.754   4.941  0.3228  1.4277  0.4500
16023TIP3   OH269559   0.442   0.139  11.614  0.2036  0.2482  0.1408
16023TIP3    H169560   0.428   0.088  11.694 -0.2852  0.2112  0.0339
16023TIP3    H269561   0.410   0.082  11.543 -3.0472  1.8137  0.2650
16024TIP3   OH269562   2.704   3.805  17.086  0.2738 -0.2195  0.5681
16024TIP3    H169563   2.633   3.851  17.041  0.6789  0.5077  0.6604
16024TIP3    H269564   2.698   3.715  17.056 -1.6562 -0.5072  1.7622
16025TIP3   OH269565   5.634   2.892  12.338  0.7605  0.2562  0.2326
16025TIP3    H169566   5.589   2.891  12.422  0.7589 -1.2061  0.2412
16025TIP3    H269567   5.725   2.909  12.359  0.6597  0.4968  0.4709
16026TIP3   OH269568   0.989   6.192   0.584 -0.1263 -0.3145 -0.0578
16026TIP3    H169569   1.045   6.270   0.581  0.3644 -0.7092 -1.8241
16026TIP3    H269570   0.912   6.217   0.532 -0.8127 -0.3880  0.9031
16027TIP3   OH269571   4.966   1.524  13.046 -0.1054 -0.7070  0.3536
16027TIP3    H169572   4.938   1.459  12.982 -1.0296 -0.1248  0.1588
16027TIP3    H269573   5.054   1.548  13.018 -0.8743  0.2868 -1.3083
16028TIP3   OH269574   2.760   2.785   0.343  0.0305 -0.2514 -0.4109
16028TIP3    H169575   2.782   2.761   0.433  1.3120  0.1388 -0.6254
16028TIP3    H269576   2.686   2.727   0.321 -0.8120  0.1955  1.1491
16029TIP3   OH269577   6.040   5.756  11.686  0.0979  0.2042 -0.3988
16029TIP3    H169578   5.977   5.796  11.747 -1.6773 -0.8933 -1.4496
16029TIP3    H269579   6.079   5.685  11.736 -0.4178  0.1085 -0.1280
16030TIP3   OH269580   6.086   2.032   6.263  0.1904  0.3686 -0.4746
16030TIP3    H169581   6.025   2.024   6.190 -1.3753  0.6720  0.7613
16030TIP3    H269582   6.031   2.028   6.341  1.8525 -0.2488  0.7171
16031TIP3   OH269583   5.134   1.008   5.156  0.2272 -0.2297 -0.0476
16031TIP3    H169584   5.040   1.015   5.141  0.3456 -0.6481 -1.0285
16031TIP3    H269585   5.172   1.004   5.068  1.0459 -1.5353  0.3458
16032TIP3   OH269586   4.771   4.574   1.736 -0.3084  0.5725 -0.1227
16032TIP3    H169587   4.712   4.534   1.672  0.7898 -1.8722  0.3563
16032TIP3    H269588   4.742   4.540   1.821 -0.1070  1.7628  0.4441
16033TIP3   OH269589   5.766   5.086   1.892 -0.4024  0.5455  0.1460
16033TIP3    H169590   5.710   5.015   1.922 -2.3859  1.9029 -0.2295
16033TIP3    H269591   5.807   5.120   1.972 -0.5601 -0.0776  0.4931
16034TIP3   OH269592   6.731   4.999   0.335  0.2551  0.2287  0.2523
16034TIP3    H169593   6.798   5.022   0.270 -1.5304  1.8287 -1.0844
16034TIP3    H269594   6.773   5.016   0.419  1.2824  1.9712 -0.5744
16035TIP3   OH269595   4.901   3.234  13.215 -0.6145  0.3366 -0.3657
16035TIP3    H169596   4.880   3.176  13.141 -1.1293  0.9547 -0.7107
16035TIP3    H269597   4.815   3.260  13.249 -0.3790  0.2785  0.2782
16036TIP3   OH269598   5.861   3.009  11.643 -0.3751 -0.4453 -0.2855
16036TIP3    H169599   5.948   3.015  11.604  0.2450 -3.7537  0.4045
16036TIP3    H269600   5.873   2.950  11.718 -3.2157 -0.9356 -0.1693
16037TIP3   OH269601   5.023   6.630  14.096 -0.3420 -0.0031 -0.0149
16037TIP3    H169602   4.949   6.674  14.054  0.8051  1.5062 -0.4978
16037TIP3    H269603   5.033   6.548  14.047 -2.0063 -0.4631  0.3879
16038TIP3   OH269604   6.301   0.044  16.238 -0.4710  0.3889 -0.0924
16038TIP3    H169605   6.260   0.109  16.180 -0.2153  0.8080  0.1966
16038TIP3    H269606   6.391   0.076  16.249 -0.2046 -0.2733 -0.3366
16039TIP3   OH269607   3.061   2.593  15.581 -0.5167 -0.1205  0.3143
16039TIP3    H169608   3.083   2.618  15.670  1.0357 -0.1937 -0.0392
16039TIP3    H269609   2.969   2.568  15.585 -0.4475 -0.1373  1.8923
16040TIP3   OH269610   4.738   6.287   3.625 -0.1625  0.5108  0.5551
16040TIP3    H169611   4.769   6.241   3.704  0.1518  0.7235  0.5564
16040TIP3    H269612   4.727   6.377   3.653 -0.4800  0.4954  0.4693
16041TIP3   OH269613   3.818   6.198  12.066 -0.7585  0.2651 -0.4406
16041TIP3    H169614   3.881   6.147  12.015 -0.3406  1.2678 -0.9386
16041TIP3    H269615   3.739   6.144  12.068 -0.4454 -0.2364 -1.2957
16042TIP3   OH269616   5.997   0.722  13.903  0.1558 -0.1422  0.1230
16042TIP3    H169617   5.924   0.715  13.964 -1.1382  3.0286 -0.9416
16042TIP3    H269618   6.055   0.787  13.943 -0.0451  0.9601 -1.3278
16043TIP3   OH269619   5.565   2.019   5.648 -0.0723 -0.8526  0.4022
16043TIP3    H169620   5.601   2.103   5.676  0.6748 -0.9921 -0.1236
16043TIP3    H269621   5.564   1.965   5.728 -1.8683  0.0888  1.0474
16044TIP3   OH269622   2.639   0.391   1.127 -0.1484 -0.3742 -0.2022
16044TIP3    H169623   2.704   0.323   1.144 -0.0442 -0.7455 -1.9941
16044TIP3    H269624   2.556   0.351   1.151 -0.1141 -1.2317 -1.4690
16045TIP3   OH269625   3.147   3.656   2.105 -0.1914  0.3816 -0.3414
16045TIP3    H169626   3.140   3.584   2.168 -1.4005  1.8957  1.3192
16045TIP3    H269627   3.235   3.649   2.070 -0.4054 -2.1206 -0.4906
16046TIP3   OH269628   5.809   1.968   4.865  0.2234 -0.5152 -0.3059
16046TIP3    H169629   5.731   1.914   4.872  0.4494 -0.6418  1.4233
16046TIP3    H269630   5.843   1.974   4.954  1.4437  0.6399 -0.8179
16047TIP3   OH269631   5.232   1.528  11.673 -0.3518  1.0216  0.1974
16047TIP3    H169632   5.318   1.552  11.637  0.4960 -1.8565  0.1341
16047TIP3    H269633   5.193   1.471  11.607 -1.9279  1.5998  0.6238
16048TIP3   OH269634   0.556   1.899   6.162 -0.2187 -0.6452 -0.3803
16048TIP3    H169635   0.551   1.842   6.238 -0.8336  0.2276  0.2585
16048TIP3    H269636   0.476   1.952   6.168  1.0149  1.2453 -0.1560
16049TIP3   OH269637   0.912   2.439   1.802  0.2047  0.0041  0.5547
16049TIP3    H169638   0.891   2.350   1.774 -0.0269 -0.2879  1.6523
16049TIP3    H269639   0.928   2.432   1.896  0.1307  1.1320  0.6594
16050TIP3   OH269640   6.497   6.163   0.687  0.1227 -0.0497  0.4712
16050TIP3    H169641   6.581   6.164   0.641  0.6953 -1.5591  1.4429
16050TIP3    H269642   6.516   6.119   0.770 -1.8071 -1.0850  0.3912
16051TIP3   OH269643   2.945   1.083  14.426  0.0379 -0.5796 -0.0378
16051TIP3    H169644   2.882   1.142  14.468  1.7428  1.8357 -0.7258
16051TIP3    H269645   3.006   1.059  14.496  0.4198  0.0232 -0.1528
16052TIP3   OH269646   1.983   5.733  12.478 -0.0626  0.1490 -1.0255
16052TIP3    H169647   1.965   5.676  12.403 -0.2560  0.7963 -1.4723
16052TIP3    H269648   1.957   5.820  12.449  1.4544  0.6920 -0.8020
16053TIP3   OH269649   6.537   4.908  13.428  0.2987  0.3429 -0.0803
16053TIP3    H169650   6.616   4.863  13.399  0.0944  0.7597 -1.3136
16053TIP3    H269651   6.469   4.841  13.427  0.5171  0.1083  0.4777
16054TIP3   OH269652   1.388   1.394   5.334 -0.2799 -0.6079  0.3428
16054TIP3    H169653   1.393   1.488   5.318  2.8617 -0.8861 -0.6931
16054TIP3    H269654   1.301   1.369   5.304 -1.1913  1.9608  0.7091
16055TIP3   OH269655   3.317   4.513  11.794  0.5252 -0.3439 -0.4794
16055TIP3    H169656   3.345   4.480  11.709  0.3998 -0.9815 -0.2801
16055TIP3    H269657   3.333   4.607  11.790 -1.0784 -0.1087 -1.8330
16056TIP3   OH269658   6.154   2.743  12.512 -0.3053 -0.8497 -0.3864
16056TIP3    H169659   6.203   2.683  12.569 -1.4154 -0.4646  0.9856
16056TIP3    H269660   6.071   2.755  12.556  0.1453  2.2712 -0.3112
16057TIP3   OH269661   2.412   1.843   0.414  0.3973  0.7559 -0.5237
16057TIP3    H169662   2.413   1.938   0.414 -0.4226  0.7831 -1.7428
16057TIP3    H269663   2.394   1.819   0.323  1.0547 -0.5706 -0.3286
16058TIP3   OH269664   4.463   1.569   1.710  0.4463  0.3421 -0.0061
16058TIP3    H169665   4.385   1.620   1.688  2.2896  1.9597 -3.0675
16058TIP3    H269666   4.438   1.478   1.694 -1.6777  0.5541  1.8717
16059TIP3   OH269667   1.123   1.102   4.311  0.0955 -0.0373  0.4617
16059TIP3    H169668   1.140   1.162   4.238 -1.4843  0.6869  0.6512
16059TIP3    H269669   1.050   1.048   4.280 -0.1561 -0.1553  1.2562
16060TIP3   OH269670   3.600   0.264  11.102  0.3368 -0.0136  0.2677
16060TIP3    H169671   3.607   0.338  11.041  1.3849 -0.4258 -0.1200
16060TIP3    H269672   3.630   0.298  11.186  0.3591  0.1289  0.2025
16061TIP3   OH269673   5.161   1.719  14.957 -0.4197  0.0260 -0.5039
16061TIP3    H169674   5.250   1.754  14.963 -0.9602  1.5581 -1.1808
16061TIP3    H269675   5.106   1.787  14.997 -1.3143 -0.8168 -0.2813
16062TIP3   OH269676   5.984   4.752   0.498 -0.1530  0.2472 -0.1131
16062TIP3    H169677   5.995   4.847   0.490 -1.5599  0.3455 -1.2397
16062TIP3    H269678   5.889   4.739   0.506  0.1126 -0.9935  1.1849
16063TIP3   OH269679   1.726   6.678  11.515  0.6323 -0.3808  0.4709
16063TIP3    H169680   1.673   6.719  11.583 -0.3897  0.2023 -0.6549
16063TIP3    H269681   1.742   6.748  11.451  0.2617 -1.3002 -0.6545
16064TIP3   OH269682   4.997   2.437   3.829  0.2565 -0.1683  0.3167
16064TIP3    H169683   4.908   2.417   3.799 -0.3390  0.2059  1.7586
16064TIP3    H269684   4.994   2.530   3.852  1.1972 -0.0071 -0.2000
16065TIP3   OH269685   5.370   3.553   4.649 -0.4664  0.1074 -0.7019
16065TIP3    H169686   5.401   3.532   4.560  1.0155 -0.1652 -0.1279
16065TIP3    H269687   5.279   3.578   4.636 -0.2032  0.3246 -2.3482
16066TIP3   OH269688   0.738   1.135   0.279  0.3594 -0.4206 -0.3259
16066TIP3    H169689   0.778   1.154   0.364 -1.1309 -1.1770  0.5584
16066TIP3    H269690   0.721   1.041   0.281  0.7498 -0.5288 -1.6620
16067TIP3   OH269691   6.646   4.865  15.054  0.1602 -1.0142 -0.0279
16067TIP3    H169692   6.636   4.863  14.958  0.3713  3.3667 -0.2705
16067TIP3    H269693   6.644   4.773  15.080 -3.0339 -2.2463 -3.9083
16068TIP3   OH269694   6.277   4.787   0.109 -0.8486  0.0603 -0.2378
16068TIP3    H169695   6.192   4.750   0.133 -0.3574 -1.7110 -1.1240
16068TIP3    H269696   6.339   4.714   0.121  0.2675  0.8049 -1.3230
16069TIP3   OH269697   6.386   0.656   0.981  0.3066 -0.4482  0.4860
16069TIP3    H169698   6.360   0.577   1.028 -2.4017 -0.6421 -1.2083
16069TIP3    H269699   6.345   0.647   0.895  3.1618  0.9921 -1.0892
16070TIP3   OH269700   4.997   2.288   1.105 -0.0979 -0.4116 -0.2698
16070TIP3    H169701   4.940   2.221   1.143 -0.0112 -0.1266  0.3707
16070TIP3    H269702   4.965   2.370   1.142 -2.7132  0.3804 -4.0377
16071TIP3   OH269703   4.784   1.353  15.366  0.6406 -0.0584 -0.5888
16071TIP3    H169704   4.839   1.363  15.288  0.7517  1.2031 -0.3532
16071TIP3    H269705   4.700   1.390  15.341  0.7946  0.7025  0.0227
16072TIP3   OH269706   3.774   4.848  16.638  0.1633  0.3073 -0.3688
16072TIP3    H169707   3.740   4.841  16.727 -0.9176  0.0012 -0.7950
16072TIP3    H269708   3.856   4.897  16.647 -0.3233  0.9409  0.6907
16073TIP3   OH269709   0.464   6.520  12.182  0.1249 -0.9431 -0.1245
16073TIP3    H169710   0.492   6.606  12.149  0.2849 -0.5293  1.0759
16073TIP3    H269711   0.429   6.476  12.105 -1.2874  0.7424 -0.4930
16074TIP3   OH269712   0.178   4.423  17.207  0.6789  0.0810  0.6959
16074TIP3    H169713   0.123   4.498  17.183  0.4377 -0.6292 -0.9454
16074TIP3    H269714   0.165   4.414  17.302 -2.0960 -0.1327  0.3252
16075TIP3   OH269715   3.675   4.002   3.595 -0.0353 -0.1379  0.6013
16075TIP3    H169716   3.723   3.985   3.514 -0.8391  0.0681  0.0803
16075TIP3    H269717   3.721   4.076   3.635 -1.0323  1.2876 -0.8272
16076TIP3   OH269718   6.250   5.308   1.142 -0.3576 -0.2397 -0.5788
16076TIP3    H169719   6.254   5.285   1.234 -2.8263  0.7870 -0.1546
16076TIP3    H269720   6.245   5.225   1.096  1.9087 -0.7832  0.1326
16077TIP3   OH269721   1.198   1.090   0.411  0.2975 -0.1878  0.2678
16077TIP3    H169722   1.141   1.158   0.374  2.1158  1.6540  0.7298
16077TIP3    H269723   1.253   1.138   0.473  3.1265 -1.7193 -1.0116
16078TIP3   OH269724   1.383   2.024  13.057  0.2150 -0.1395  0.2238
16078TIP3    H169725   1.309   2.062  13.009 -1.4684 -1.8352  1.4150
16078TIP3    H269726   1.424   1.964  12.994 -0.0055  0.0773 -0.1258
16079TIP3   OH269727   1.998   4.516  15.989 -0.7158  0.5513 -0.2971
16079TIP3    H169728   2.001   4.459  16.066  1.0809  0.0095 -0.7179
16079TIP3    H269729   2.024   4.602  16.022 -1.6583  0.7272  0.0095
16080TIP3   OH269730   1.625   0.337   0.108 -0.6908 -0.9269  0.0146
16080TIP3    H169731   1.668   0.309   0.189 -0.8510  0.3213  0.5477
16080TIP3    H269732   1.692   0.388   0.062 -0.6077 -1.6135 -0.6298
16081TIP3   OH269733   0.434   0.623   3.161  0.5664  0.2104 -0.1151
16081TIP3    H169734   0.482   0.646   3.081 -0.9161  2.7336 -0.3319
16081TIP3    H269735   0.428   0.706   3.209  1.0145 -1.1732  2.3993
16082TIP3   OH269736   1.270   0.342   1.619  0.0367 -0.2078 -0.5506
16082TIP3    H169737   1.315   0.320   1.701  1.5706 -1.3424 -1.6618
16082TIP3    H269738   1.308   0.281   1.555 -0.6572  1.1309 -2.2448
16083TIP3   OH269739   2.214   0.775  12.776  0.0236  0.0608 -0.3568
16083TIP3    H169740   2.215   0.725  12.857 -1.1270  0.6041  0.0122
16083TIP3    H269741   2.279   0.844  12.789  2.4540 -1.9966 -1.3192
16084TIP3   OH269742   2.426   3.012   0.476  0.4669  0.0898 -0.6698
16084TIP3    H169743   2.357   3.076   0.489  1.3378  1.0705 -0.7765
16084TIP3    H269744   2.495   3.060   0.429  0.2109 -1.5149 -2.7477
16085TIP3   OH269745   3.975   2.129   4.854 -0.1035  0.4321  0.2070
16085TIP3    H169746   3.982   2.116   4.759 -0.6791 -1.1094  0.3616
16085TIP3    H269747   3.958   2.041   4.889  1.7301  0.7192  1.8940
16086TIP3   OH269748   0.661   3.232  14.115  0.4592  0.5083 -0.0960
16086TIP3    H169749   0.625   3.143  14.113 -1.7521  1.3883 -2.3275
16086TIP3    H269750   0.622   3.272  14.193 -0.3792  0.2277 -0.3689
16087TIP3   OH269751   5.437   6.063  17.050  0.2689 -0.4030  0.3699
16087TIP3    H169752   5.529   6.091  17.042 -0.2027  1.1283  0.1461
16087TIP3    H269753   5.392   6.108  16.979 -1.1684  1.1464  2.2189
16088TIP3   OH269754   5.534   3.717   6.386  0.5862  0.4106 -0.0489
16088TIP3    H169755   5.554   3.806   6.356  0.9979  0.2741 -0.1813
16088TIP3    H269756   5.475   3.730   6.460 -0.7565  0.7313 -1.1608
16089TIP3   OH269757   4.830   2.530  17.166  0.5180  0.2049  0.4994
16089TIP3    H169758   4.875   2.560  17.086 -0.2617  1.6920  0.6024
16089TIP3    H269759   4.885   2.563  17.237  1.2016 -1.1037  0.5775
16090TIP3   OH269760   5.470   5.024   2.767 -0.5455 -0.6859  0.1930
16090TIP3    H169761   5.564   5.010   2.772 -0.5284 -0.4863  0.4658
16090TIP3    H269762   5.434   4.938   2.747 -0.4204 -1.0597  1.5232
16091TIP3   OH269763   0.048   2.793   4.689  0.3837  0.1572  0.0489
16091TIP3    H169764   0.104   2.799   4.767  1.8423  0.2798 -0.9927
16091TIP3    H269765   0.084   2.720   4.639 -1.0792 -0.4733 -0.1148
16092TIP3   OH269766   3.440   3.044   3.301 -0.4347 -0.2662 -0.7584
16092TIP3    H169767   3.368   3.038   3.364  0.7653  0.4166  0.7285
16092TIP3    H269768   3.514   3.002   3.344  0.9988  2.0939 -0.7764
16093TIP3   OH269769   0.064   1.673  12.739 -0.1062 -0.1009 -0.8247
16093TIP3    H169770   0.028   1.616  12.672 -2.0681  1.2505 -0.9621
16093TIP3    H269771   0.068   1.759  12.698 -0.1742  0.4870  0.3720
16094TIP3   OH269772   2.382   3.370  13.179  0.0740 -0.0753  0.5339
16094TIP3    H169773   2.381   3.364  13.083  1.8209 -0.5286  0.5464
16094TIP3    H269774   2.344   3.456  13.197 -0.7042 -0.1778 -0.5414
16095TIP3   OH269775   6.268   4.104   6.504  0.0891 -0.0326 -0.1380
16095TIP3    H169776   6.292   4.043   6.574  0.2001 -1.7619 -1.6372
16095TIP3    H269777   6.292   4.057   6.424  1.3421  2.4961 -1.2893
16096TIP3   OH269778   5.661   0.627   6.163  0.1002  0.1245  0.5793
16096TIP3    H169779   5.569   0.644   6.143  0.5528  3.0545  0.7502
16096TIP3    H269780   5.709   0.677   6.097  1.5945 -1.6768  0.2683
16097TIP3   OH269781   0.107   0.996  17.259 -0.4590  0.4574 -0.2828
16097TIP3    H169782   0.015   0.972  17.259  0.0343 -1.5287  1.4916
16097TIP3    H269783   0.150   0.927  17.209  0.3487  0.2081  0.7487
16098TIP3   OH269784   5.238   4.672  14.766 -0.1524  0.6146  0.2209
16098TIP3    H169785   5.281   4.711  14.689  0.6992  0.0909  0.4222
16098TIP3    H269786   5.235   4.578  14.746 -0.5744  0.5668  0.5182
16099TIP3   OH269787   5.784   4.387   5.838 -0.6873  0.0769 -0.0953
16099TIP3    H169788   5.699   4.412   5.874 -0.7829 -0.0917 -0.2074
16099TIP3    H269789   5.796   4.297   5.866 -1.0352 -0.2521 -1.0130
16100TIP3   OH269790   2.426   6.456   2.853  0.1865 -0.3151 -0.0137
16100TIP3    H169791   2.489   6.526   2.870 -1.3551  1.4950 -1.5852
16100TIP3    H269792   2.365   6.459   2.927  0.7986 -0.7963  0.5182
16101TIP3   OH269793   1.665   4.050   5.963  0.0819 -0.0960 -0.0157
16101TIP3    H169794   1.675   4.019   6.053  0.7265  0.6076  0.1564
16101TIP3    H269795   1.715   4.131   5.960 -0.2113  0.0510 -0.9224
16102TIP3   OH269796   3.446   1.850   1.340 -0.3554 -0.0097 -0.0197
16102TIP3    H169797   3.502   1.875   1.266 -0.7088  0.6089 -0.0775
16102TIP3    H269798   3.410   1.765   1.314  0.8831 -0.5989  0.2034
16103TIP3   OH269799   4.040   1.647   5.191 -0.3539  0.2953 -0.4015
16103TIP3    H169800   4.071   1.558   5.210 -2.6939 -0.3938  0.3951
16103TIP3    H269801   4.093   1.703   5.248  0.1148 -0.7489  0.2106
16104TIP3   OH269802   3.372   3.798  14.338  0.5321 -0.0803 -0.3113
16104TIP3    H169803   3.280   3.788  14.362 -0.0061  0.1338 -2.2610
16104TIP3    H269804   3.420   3.769  14.416 -1.1768  0.6528  1.0276
16105TIP3   OH269805   3.007   3.418   1.016 -1.1458 -0.3708 -0.8749
16105TIP3    H169806   3.011   3.387   0.926  0.1774 -2.7414 -0.0325
16105TIP3    H269807   2.962   3.349   1.064  0.0367 -0.1072  0.6661
16106TIP3   OH269808   0.089   4.703  15.497 -0.4752  0.3652  0.0260
16106TIP3    H169809   0.075   4.610  15.483 -1.4361  0.4127  0.6122
16106TIP3    H269810   0.003   4.743  15.480 -0.0288  1.1676 -0.4117
16107TIP3   OH269811   4.400   2.113   5.351  0.7361 -0.1144  0.2499
16107TIP3    H169812   4.362   2.040   5.302  1.0730  0.3421 -0.7080
16107TIP3    H269813   4.423   2.177   5.284  1.6605  0.3159  0.9714
16108TIP3   OH269814   3.671   5.079  12.127  0.0038  0.4086  0.5414
16108TIP3    H169815   3.630   5.165  12.138  3.7911  2.7914 -2.6131
16108TIP3    H269816   3.712   5.061  12.211 -0.7117  1.7262  1.1920
16109TIP3   OH269817   2.389   2.858   3.168 -0.2359  0.1884  0.3029
16109TIP3    H169818   2.445   2.781   3.177 -2.7521 -1.5826  1.2963
16109TIP3    H269819   2.329   2.836   3.096 -1.3246  1.0034  0.9410
16110TIP3   OH269820   3.308   5.728  16.245 -0.5221 -0.1268  0.0028
16110TIP3    H169821   3.396   5.766  16.242 -0.5983  0.0929  0.5327
16110TIP3    H269822   3.254   5.787  16.194 -0.2394 -0.5902 -0.8436
16111TIP3   OH269823   2.609   6.618  14.431  0.6500 -0.0879  0.0091
16111TIP3    H169824   2.581   6.560  14.501  0.4255  0.6134  0.5003
16111TIP3    H269825   2.563   6.586  14.353  0.8251 -0.8021  0.1961
16112TIP3   OH269826   4.245   0.591   2.635 -0.0261  0.4752 -0.0408
16112TIP3    H169827   4.341   0.593   2.636  0.0090 -0.5283  0.2637
16112TIP3    H269828   4.223   0.541   2.714 -0.7423 -0.5718 -0.8823
16113TIP3   OH269829   2.956   2.913   5.973 -0.2763 -0.1820 -0.5538
16113TIP3    H169830   2.918   2.961   6.047  1.9308 -0.1469  0.6064
16113TIP3    H269831   2.933   2.965   5.896  0.6594  1.8678  0.5127
16114TIP3   OH269832   0.205   4.908  14.657 -0.0785  0.1931  1.0030
16114TIP3    H169833   0.271   4.840  14.668 -0.2274  0.1794  1.8468
16114TIP3    H269834   0.149   4.876  14.586  1.2055  0.5266 -0.1804
16115TIP3   OH269835   3.622   3.234   5.437  0.2611 -0.2397  0.2153
16115TIP3    H169836   3.609   3.320   5.477  0.2476 -1.1191  2.1294
16115TIP3    H269837   3.714   3.213   5.455  0.0247 -1.0195  0.5168
16116TIP3   OH269838   6.433   3.494   5.261  0.6335 -0.0761  0.1512
16116TIP3    H169839   6.482   3.575   5.269 -1.1321  1.0440 -0.1605
16116TIP3    H269840   6.363   3.514   5.199 -0.3510 -1.5739  0.7370
16117TIP3   OH269841   5.849   2.904   0.012  0.1747  0.0298 -0.1655
16117TIP3    H169842   5.838   2.991  -0.026  2.3645  0.1944 -0.5329
16117TIP3    H269843   5.904   2.857  -0.051 -1.0774 -1.6775 -0.0404
16118TIP3   OH269844   6.481   0.863   0.470  0.4054 -0.2040  0.1617
16118TIP3    H169845   6.475   0.774   0.436 -0.2955 -0.6036  1.3138
16118TIP3    H269846   6.558   0.900   0.425 -0.4649 -0.7138 -1.8067
16119TIP3   OH269847   2.169   2.606  11.634 -0.0698 -0.3679 -0.0158
16119TIP3    H169848   2.220   2.601  11.553  0.2280 -1.2845  0.2255
16119TIP3    H269849   2.175   2.698  11.660  0.0931 -0.1345 -0.8657
16120TIP3   OH269850   4.315   2.184  16.975  0.6470 -0.1466 -0.3617
16120TIP3    H169851   4.283   2.208  16.889  0.9072  1.3160 -0.0669
16120TIP3    H269852   4.249   2.125  17.010  0.3246 -0.3986 -1.3809
16121TIP3   OH269853   4.237   4.690   1.314  1.0420 -0.6851  0.2209
16121TIP3    H169854   4.282   4.713   1.233  1.9068 -0.3232  0.8010
16121TIP3    H269855   4.227   4.595   1.309  0.9851 -0.6513 -0.3631
16122TIP3   OH269856   4.517   1.369  15.342 -0.3659 -0.1500  0.0356
16122TIP3    H169857   4.498   1.348  15.251 -0.0733 -1.1623  0.2055
16122TIP3    H269858   4.458   1.442  15.363 -1.4034 -0.8097 -0.5590
16123TIP3   OH269859   4.733   2.240  13.160 -0.1479  0.1598  0.8888
16123TIP3    H169860   4.809   2.297  13.164  1.0052 -1.2856  0.1866
16123TIP3    H269861   4.703   2.247  13.069  0.8986 -1.4540  0.3965
16124TIP3   OH269862   5.119   6.068  11.931 -0.5776 -0.7382  0.2957
16124TIP3    H169863   5.196   6.089  11.985 -1.9109 -0.7894  2.2522
16124TIP3    H269864   5.085   6.153  11.905 -0.6927 -0.6783  0.6337
16125TIP3   OH269865   0.434   1.392  11.964  0.3988  0.2367  0.3877
16125TIP3    H169866   0.516   1.410  12.011  0.7421 -0.5004  0.0860
16125TIP3    H269867   0.454   1.416  11.873  0.1061  0.5595  0.4067
16126TIP3   OH269868   1.939   3.289   2.238  0.4826  0.4160 -0.2695
16126TIP3    H169869   1.973   3.211   2.193 -1.0868 -1.6515  1.9962
16126TIP3    H269870   1.882   3.330   2.174  0.4329 -0.9454 -1.1258
16127TIP3   OH269871   5.961   6.690  17.116  0.2159 -0.3455  0.1066
16127TIP3    H169872   5.902   6.679  17.042 -0.7510 -0.3511  0.8570
16127TIP3    H269873   5.903   6.713  17.189  1.0612 -1.0241  1.0158
16128TIP3   OH269874   1.190   6.651  13.735 -0.2606  0.0649 -0.4882
16128TIP3    H169875   1.232   6.566  13.721 -1.0244 -0.2443 -0.9431
16128TIP3    H269876   1.106   6.630  13.774 -1.0510  0.5205 -1.9114
16129TIP3   OH269877   6.465   0.873   1.843 -0.1491  0.0899 -0.2187
16129TIP3    H169878   6.555   0.846   1.863 -0.3582  0.3675  1.1679
16129TIP3    H269879   6.458   0.866   1.748  1.3402  0.0799 -0.3363
16130TIP3   OH269880   6.187   0.457   2.387 -0.1675 -0.2760 -0.1789
16130TIP3    H169881   6.231   0.542   2.377  0.4164 -0.4258  0.9384
16130TIP3    H269882   6.203   0.434   2.479 -1.2654 -1.0749 -0.1896
16131TIP3   OH269883   4.389   6.273   0.069  0.2172  0.1057 -0.2972
16131TIP3    H169884   4.447   6.198   0.077  2.8573  1.9959 -0.9956
16131TIP3    H269885   4.335   6.254  -0.008  3.1110  0.3348 -2.4631
16132TIP3   OH269886   3.048   4.850  11.336 -0.3893 -0.8327 -0.1883
16132TIP3    H169887   2.957   4.821  11.348 -1.3535  1.1578 -2.3311
16132TIP3    H269888   3.047   4.943  11.358  1.2398 -0.8791  0.1645
16133TIP3   OH269889   3.493   4.743  15.544  0.1586  0.1071  0.3613
16133TIP3    H169890   3.427   4.810  15.562  0.9644  0.9605  0.1786
16133TIP3    H269891   3.552   4.747  15.618  2.8276  2.8261 -1.7848
16134TIP3   OH269892   3.641   1.253   2.316  0.2338  0.1456 -0.1905
16134TIP3    H169893   3.693   1.205   2.252  0.9495  0.4276  0.1769
16134TIP3    H269894   3.561   1.201   2.325  0.1019  0.1389 -1.3529
16135TIP3   OH269895   0.592   1.300  12.750 -0.0465  0.4445 -0.3251
16135TIP3    H169896   0.627   1.213  12.767  0.3069  0.9493  1.6428
16135TIP3    H269897   0.500   1.295  12.777 -0.5151  0.1995 -1.8979
16136TIP3   OH269898   3.879   4.142   3.723 -0.1613  0.3312 -0.0785
16136TIP3    H169899   3.878   4.210   3.790 -0.5659 -0.0683  0.3189
16136TIP3    H269900   3.869   4.060   3.771  1.7380 -0.1240 -0.4155
16137TIP3   OH269901   4.297   2.097  14.186  0.0653 -0.9205  0.0596
16137TIP3    H169902   4.234   2.168  14.178  2.0195  0.7855 -0.7896
16137TIP3    H269903   4.329   2.103  14.276  0.5424 -0.4244 -0.1369
16138TIP3   OH269904   1.072   2.631   1.205  0.2920  0.2251  0.5562
16138TIP3    H169905   1.020   2.708   1.227  0.0234 -0.1625  1.3028
16138TIP3    H269906   1.009   2.568   1.171  0.2681 -0.2609  1.5004
16139TIP3   OH269907   6.585   6.252   2.460  0.1403 -0.0896  0.3677
16139TIP3    H169908   6.512   6.189   2.455  0.9737 -0.8669 -2.5143
16139TIP3    H269909   6.542   6.337   2.471 -1.3071 -0.4161 -2.2608
16140TIP3   OH269910   3.436   2.196  15.097 -0.4702 -0.1356  0.5083
16140TIP3    H169911   3.443   2.204  15.002  0.9270 -0.3006  0.5804
16140TIP3    H269912   3.527   2.203  15.128 -0.6490 -2.3505  1.6324
16141TIP3   OH269913   4.213   2.070   0.599  0.1124 -0.2307  0.3016
16141TIP3    H169914   4.168   2.154   0.595 -0.4663 -0.5249  0.6487
16141TIP3    H269915   4.148   2.006   0.571  0.7381 -0.4978 -0.5779
16142TIP3   OH269916   2.117   3.740   1.634 -0.2168 -0.2175 -0.1437
16142TIP3    H169917   2.028   3.705   1.645 -0.3993 -0.7147 -2.7130
16142TIP3    H269918   2.174   3.672   1.670 -0.8614  0.2130  1.7512
16143TIP3   OH269919   1.955   1.913  15.845 -0.0769 -0.4976 -0.0852
16143TIP3    H169920   2.024   1.902  15.911  0.8205 -0.4777 -0.9895
16143TIP3    H269921   1.882   1.861  15.877  0.1364 -0.0314  1.2032
16144TIP3   OH269922   3.899   4.358   5.682 -0.3317 -0.1050 -0.5149
16144TIP3    H169923   3.825   4.356   5.744  0.0704  0.9973  0.0040
16144TIP3    H269924   3.929   4.448   5.683 -0.3678 -0.0601 -2.4090
16145TIP3   OH269925   0.635   3.605  16.709  0.1143 -0.0069  0.0514
16145TIP3    H169926   0.568   3.611  16.642  0.2957 -2.5307 -0.4173
16145TIP3    H269927   0.611   3.671  16.774 -2.4582 -0.4511 -0.4074
16146TIP3   OH269928   0.684   1.691   5.519 -0.7570 -0.2572  0.4439
16146TIP3    H169929   0.736   1.670   5.441 -0.3665  1.7040  0.1442
16146TIP3    H269930   0.593   1.680   5.491 -0.5842 -0.8049  0.0887
16147TIP3   OH269931   3.742   6.083  14.343 -0.1440 -0.0929  0.4995
16147TIP3    H169932   3.671   6.115  14.398 -0.0092  1.1218 -0.0114
16147TIP3    H269933   3.702   6.017  14.286 -1.0040  1.0274 -0.2121
16148TIP3   OH269934   2.742   5.413  17.193  0.4858 -0.6478  0.7268
16148TIP3    H169935   2.707   5.441  17.108 -0.2748 -0.5150  1.0760
16148TIP3    H269936   2.830   5.450  17.196 -0.4174  1.5445  1.0963
16149TIP3   OH269937   4.438   2.443   2.420 -0.3146 -0.3501 -0.6209
16149TIP3    H169938   4.498   2.518   2.425 -0.6446 -0.0794 -0.7386
16149TIP3    H269939   4.495   2.367   2.431 -0.1367 -0.0383  0.6923
16150TIP3   OH269940   1.854   4.338   4.907  0.1869 -0.0303  0.3326
16150TIP3    H169941   1.907   4.403   4.861  0.4651  0.2745  1.0671
16150TIP3    H269942   1.898   4.327   4.991 -0.1404 -0.8068  0.4032
16151TIP3   OH269943   6.292   3.845  12.837  0.4622  0.0911  0.5621
16151TIP3    H169944   6.339   3.844  12.754 -0.9347  3.2574 -0.3204
16151TIP3    H269945   6.283   3.752  12.860  2.0044 -0.7800 -2.1454
16152TIP3   OH269946   6.680   5.460   3.498  0.4807 -0.2154 -0.3773
16152TIP3    H169947   6.767   5.460   3.538 -0.0321  0.0253  0.7513
16152TIP3    H269948   6.628   5.518   3.553 -0.5976 -0.9369 -0.6155
16153TIP3   OH269949   2.087   3.901  13.109 -0.1087 -0.4628 -0.3576
16153TIP3    H169950   2.014   3.961  13.121  0.1407 -0.1850 -0.2013
16153TIP3    H269951   2.078   3.838  13.181  1.1261  0.9435  1.0671
16154TIP3   OH269952   3.331   5.245   5.212  0.6901  0.2308  0.4549
16154TIP3    H169953   3.332   5.314   5.146 -3.4545  0.3308  0.3123
16154TIP3    H269954   3.361   5.167   5.166  0.0056  0.7782 -0.9483
16155TIP3   OH269955   2.383   1.290   3.743  0.0204 -0.7346 -0.6047
16155TIP3    H169956   2.431   1.290   3.826 -0.4445  0.5426 -0.3075
16155TIP3    H269957   2.384   1.199   3.714  2.5038 -0.7581 -0.5493
16156TIP3   OH269958   6.478   3.200   1.381  0.7204 -0.0219  0.0391
16156TIP3    H169959   6.470   3.286   1.423  0.6768  0.1192 -0.2615
16156TIP3    H269960   6.454   3.138   1.451 -0.7324  0.2839 -0.1576
16157TIP3   OH269961   3.122   4.282   5.883  0.3097  0.5580  0.1445
16157TIP3    H169962   3.192   4.290   5.949 -0.1603  1.7026  0.5175
16157TIP3    H269963   3.167   4.292   5.799  0.9649 -1.2501  0.2604
16158TIP3   OH269964   3.811   6.157   4.864  0.3579 -0.2905  0.0525
16158TIP3    H169965   3.854   6.181   4.782  1.2704 -0.4842  0.4637
16158TIP3    H269966   3.775   6.239   4.897  0.0944 -0.1898 -0.4825
16159TIP3   OH269967   5.411   3.959   1.897 -0.4419  0.3172  0.0194
16159TIP3    H169968   5.504   3.976   1.881 -0.8435  1.1491 -1.5023
16159TIP3    H269969   5.387   4.020   1.966  0.4016 -0.6841  1.2286
16160TIP3   OH269970   0.943   6.553  13.488  0.0715  0.3314  0.0928
16160TIP3    H169971   0.940   6.465  13.453 -0.6826 -0.4164  1.9690
16160TIP3    H269972   1.034   6.581  13.476  0.2190 -0.5308 -0.8610
16161TIP3   OH269973   5.258   2.471   3.250  0.6062  0.2975  0.3195
16161TIP3    H169974   5.233   2.560   3.227 -0.5534 -0.3338 -0.9990
16161TIP3    H269975   5.336   2.453   3.198 -0.6309 -0.3042 -1.3824
16162TIP3   OH269976   3.088   5.327   0.159 -0.4431  0.0640  0.0442
16162TIP3    H169977   3.096   5.370   0.074 -0.5843  1.0478  0.5185
16162TIP3    H269978   2.999   5.349   0.189 -0.4219 -0.3412  0.4087
16163TIP3   OH269979   1.556   5.994   0.813 -0.0244  0.4400 -0.3022
16163TIP3    H169980   1.627   6.043   0.855  0.4481 -1.1473  0.7997
16163TIP3    H269981   1.513   5.949   0.885  0.0756 -1.4243 -1.3755
16164TIP3   OH269982   6.145   4.819  10.687  0.0810 -0.0924  0.6790
16164TIP3    H169983   6.210   4.753  10.663 -1.2324 -1.1912  0.0655
16164TIP3    H269984   6.068   4.797  10.634 -0.1772  2.3143 -0.0203
16165TIP3   OH269985   5.993   0.239  13.017  0.0408  0.0413 -0.3347
16165TIP3    H169986   6.015   0.309  13.078 -0.7363  1.6092 -1.8042
16165TIP3    H269987   6.078   0.206  12.987  0.4432  1.7200 -1.1236
16166TIP3   OH269988   3.859   1.185   0.392 -0.0272  0.2005  0.7424
16166TIP3    H169989   3.922   1.250   0.423 -1.1046  1.6583 -0.0882
16166TIP3    H269990   3.807   1.164   0.470  1.4102 -0.9525  1.4137
16167TIP3   OH269991   0.589   0.604  15.096  0.8583  0.2451 -0.2784
16167TIP3    H169992   0.595   0.672  15.163 -0.5912  0.3825 -0.2761
16167TIP3    H269993   0.652   0.632  15.029 -1.0070  2.6230 -1.1485
16168TIP3   OH269994   2.002   4.126  16.972  0.0992  0.0894  0.5062
16168TIP3    H169995   1.945   4.052  16.949  2.5119 -0.8347 -2.8322
16168TIP3    H269996   1.978   4.195  16.910  1.4085  0.2978  0.2360
16169TIP3   OH269997   2.274   4.081  14.556 -0.0563  0.1308 -0.0687
16169TIP3    H169998   2.232   4.156  14.514 -0.7981 -0.7157 -0.8615
16169TIP3    H269999   2.334   4.119  14.619 -0.7404  1.3876 -0.1675
16170TIP3   OH270000   3.035   3.481   5.335 -0.0467  0.1596 -0.0897
16170TIP3    H170001   2.961   3.534   5.365 -1.3458 -0.1139 -2.6463
16170TIP3    H270002   3.003   3.390   5.342  2.1001 -0.4024  4.1187
16171TIP3   OH270003   0.538   0.618   1.703 -0.3600 -0.2756 -0.0075
16171TIP3    H170004   0.501   0.576   1.781 -0.2238 -0.8911 -0.2774
16171TIP3    H270005   0.462   0.642   1.650 -0.4954  0.9322  0.7219
16172TIP3   OH270006   6.797   5.506   2.593 -0.0686 -0.2709 -0.2699
16172TIP3    H170007   6.838   5.424   2.566  0.0314  0.1034 -1.2530
16172TIP3    H270008   6.865   5.552   2.643 -0.1816 -0.8519  0.4425
16173TIP3   OH270009   1.079   1.142   3.335 -0.1123 -0.5058  0.5099
16173TIP3    H170010   1.007   1.150   3.398  0.0646 -1.6596  0.8606
16173TIP3    H270011   1.140   1.082   3.375  1.7709  1.5687  0.8471
16174TIP3   OH270012   0.240   6.513   1.219 -0.6449 -0.2595  0.1603
16174TIP3    H170013   0.171   6.570   1.185 -1.1796 -0.2474  1.2509
16174TIP3    H270014   0.196   6.431   1.241 -0.2049 -0.4534  0.3279
16175TIP3   OH270015   3.111   6.278  12.728  0.0289 -0.2498 -0.1279
16175TIP3    H170016   3.067   6.251  12.647  0.7077  1.3632 -1.0561
16175TIP3    H270017   3.136   6.196  12.770 -0.8690 -1.1216 -1.2501
16176TIP3   OH270018   4.066   2.921   6.692 -0.3094 -0.0865 -0.2288
16176TIP3    H170019   4.037   2.981   6.761 -1.3557  0.1597 -0.8675
16176TIP3    H270020   3.985   2.896   6.646  0.4599  0.5215 -1.9713
16177TIP3   OH270021   2.644   0.569  16.545  0.0600 -0.4589  0.4266
16177TIP3    H170022   2.621   0.583  16.453  2.3825  0.9646  0.0246
16177TIP3    H270023   2.562   0.580  16.592 -1.0553 -0.6807 -1.4250
16178TIP3   OH270024   5.655   0.949   4.020  0.3662 -0.2504  0.4937
16178TIP3    H170025   5.635   0.997   3.939 -1.7107  0.6713  1.5260
16178TIP3    H270026   5.606   0.995   4.088  2.6114 -0.6145  2.4232
16179TIP3   OH270027   4.462   0.506   1.678 -0.5934  0.0900  0.2418
16179TIP3    H170028   4.545   0.462   1.662 -0.8487 -1.2827  2.4843
16179TIP3    H270029   4.440   0.547   1.595  1.7197 -0.5383 -0.7208
16180TIP3   OH270030   1.234   1.939   1.339 -0.3577 -0.4342 -0.1761
16180TIP3    H170031   1.231   1.844   1.343 -0.6247 -0.3444  2.7820
16180TIP3    H270032   1.174   1.968   1.407  1.2387  1.8379  0.3362
16181TIP3   OH270033   2.904   3.868   6.127 -0.0526 -0.7284 -0.2277
16181TIP3    H170034   2.837   3.803   6.145  0.8673 -1.8853 -0.9642
16181TIP3    H270035   2.869   3.921   6.056 -0.1136 -1.4382 -0.7245
16182TIP3   OH270036   1.511   3.891  15.015 -0.3341 -0.1153  0.0216
16182TIP3    H170037   1.591   3.943  15.023 -1.4896  1.9945 -1.4369
16182TIP3    H270038   1.469   3.924  14.935 -2.2260 -1.7991  0.2634
16183TIP3   OH270039   2.688   2.204  14.690  0.2940  0.5660 -0.3513
16183TIP3    H170040   2.687   2.143  14.616  0.8978  0.9170 -0.6593
16183TIP3    H270041   2.640   2.281  14.659  1.3494  1.0885 -0.7185
16184TIP3   OH270042   0.981   5.619  11.146  0.5020 -0.3963  0.2852
16184TIP3    H170043   0.909   5.667  11.105  1.0999  0.0029 -0.3073
16184TIP3    H270044   1.040   5.598  11.073  1.4884  0.1713  0.9133
16185TIP3   OH270045   2.229   1.456  14.020  0.2370  1.3392  0.2805
16185TIP3    H170046   2.208   1.399  13.946  2.7149 -0.7040  1.0466
16185TIP3    H270047   2.161   1.522  14.020  0.1662  1.3924 -3.8320
16186TIP3   OH270048   2.307   3.165  12.785 -0.1108  0.0406  0.2277
16186TIP3    H170049   2.364   3.097  12.749 -0.6831 -1.5120  2.2177
16186TIP3    H270050   2.219   3.129  12.778 -0.8561  2.1058 -2.0840
16187TIP3   OH270051   2.610   6.649  16.860  0.7374 -0.1451  0.0010
16187TIP3    H170052   2.599   6.583  16.927  0.0317 -0.8581 -0.8094
16187TIP3    H270053   2.548   6.625  16.791 -0.5523  2.1275  0.2980
16188TIP3   OH270054   2.530   3.718  14.834  0.1955 -0.4532 -0.0850
16188TIP3    H170055   2.619   3.708  14.867 -0.1003  0.3664  1.0040
16188TIP3    H270056   2.509   3.810  14.849 -0.5844 -0.4714 -0.9983
16189TIP3   OH270057   5.306   5.854   4.793 -0.1490 -0.7654  0.4271
16189TIP3    H170058   5.221   5.882   4.829 -0.2495 -1.2404  0.5632
16189TIP3    H270059   5.304   5.883   4.702 -0.0027  0.2209  0.7228
16190TIP3   OH270060   0.545   2.525   3.972  0.6783  0.0864 -0.1869
16190TIP3    H170061   0.558   2.573   3.890 -2.7519  1.5373  0.0112
16190TIP3    H270062   0.524   2.592   4.036  0.5362 -1.2913  1.2413
16191TIP3   OH270063   3.171   0.145   2.408  0.6267 -0.1252 -0.1082
16191TIP3    H170064   3.205   0.057   2.424  1.2209  0.0987 -0.0990
16191TIP3    H270065   3.117   0.164   2.484  2.1501  0.3133  0.8910
16192TIP3   OH270066   2.654   1.513   1.551  0.3075 -0.4688 -0.0336
16192TIP3    H170067   2.695   1.564   1.481 -1.8092  1.0056 -0.2455
16192TIP3    H270068   2.727   1.472   1.597  2.0035  2.0244 -0.4320
16193TIP3   OH270069   5.853   6.494  16.669 -0.0536 -0.2017 -0.4945
16193TIP3    H170070   5.827   6.407  16.699 -0.4124  1.0741  3.0834
16193TIP3    H270071   5.938   6.509  16.710 -0.1548  1.2841 -0.8084
16194TIP3   OH270072   4.210   1.713  16.464 -0.1978  0.3158 -0.0015
16194TIP3    H170073   4.190   1.635  16.412  1.4230 -0.3170  0.2844
16194TIP3    H270074   4.244   1.776  16.402 -0.9398  0.5955 -0.1360
16195TIP3   OH270075   4.290   3.629   0.175 -0.4326 -0.6578 -0.2084
16195TIP3    H170076   4.311   3.722   0.174  0.4268 -0.8440 -1.2290
16195TIP3    H270077   4.322   3.598   0.260  1.1483 -0.4060 -0.6818
16196TIP3   OH270078   3.995   5.803   4.048 -0.3270 -0.0643 -0.5814
16196TIP3    H170079   3.959   5.716   4.063 -0.3689 -0.1686 -1.2918
16196TIP3    H270080   3.971   5.824   3.958 -0.1689  0.6093 -0.4690
16197TIP3   OH270081   5.488   2.806   5.075 -0.9102  0.2535 -0.4661
16197TIP3    H170082   5.491   2.886   5.128  1.4434  0.8954 -1.4953
16197TIP3    H270083   5.476   2.837   4.985  4.0352 -0.1875 -1.4132
16198TIP3   OH270084   5.306   1.443  13.137  0.1794  0.0845 -0.4699
16198TIP3    H170085   5.360   1.463  13.060  1.0462  1.7884  0.5734
16198TIP3    H270086   5.219   1.425  13.101  1.0004 -0.9306 -2.0078
16199TIP3   OH270087   1.875   0.374   3.987 -0.1150  0.1028 -0.0857
16199TIP3    H170088   1.850   0.450   3.934 -1.3497 -1.7754 -2.2566
16199TIP3    H270089   1.822   0.382   4.066 -0.2745  1.4799 -0.3158
16200TIP3   OH270090   3.089   6.506   4.074 -0.0609  0.4781 -0.0969
16200TIP3    H170091   3.021   6.556   4.120  1.0143  1.2287  0.6867
16200TIP3    H270092   3.045   6.424   4.049 -1.3974  1.1644 -0.0408
16201TIP3   OH270093   0.954   6.394   5.532 -0.4752 -0.5134  0.0720
16201TIP3    H170094   0.935   6.383   5.625  1.2372 -1.3474  0.3376
16201TIP3    H270095   0.938   6.487   5.514 -0.6253 -0.3162  1.2354
16202TIP3   OH270096   4.154   0.936  13.819  0.1044  0.2093  0.3477
16202TIP3    H170097   4.102   0.997  13.871 -0.5781  0.6947 -0.8887
16202TIP3    H270098   4.244   0.948  13.850  0.2507  3.1088 -1.0856
16203TIP3   OH270099   5.469   4.190   0.574  0.3306 -0.7029  0.1368
16203TIP3    H170100   5.402   4.183   0.642  1.4875  1.2017  1.5200
16203TIP3    H270101   5.550   4.165   0.618  0.7784 -1.5878 -1.1535
16204TIP3   OH270102   1.692   3.126   4.061 -0.1856  0.4147  0.4351
16204TIP3    H170103   1.685   3.221   4.050  0.7802  0.6155  1.4922
16204TIP3    H270104   1.688   3.091   3.971 -2.7694  1.2696  0.1845
16205TIP3   OH270105   6.140   5.439  14.837 -0.5643  0.4374 -0.4816
16205TIP3    H170106   6.147   5.526  14.797 -0.2241  0.5198 -0.2480
16205TIP3    H270107   6.047   5.427  14.852 -0.9708 -0.5191 -3.3657
16206TIP3   OH270108   4.021   6.685  13.902  0.2064 -0.4469  0.1765
16206TIP3    H170109   3.943   6.728  13.937 -1.2384 -1.7716 -1.3327
16206TIP3    H270110   4.006   6.681  13.808  1.0632 -2.7682  0.1173
16207TIP3   OH270111   1.463   3.060  10.780 -0.1188 -0.7006  0.1920
16207TIP3    H170112   1.453   3.137  10.724 -0.7228 -0.2892  0.8572
16207TIP3    H270113   1.554   3.033  10.769  0.0616  0.0446 -0.1301
16208TIP3   OH270114   1.316   5.944  15.404 -0.0530 -0.1653 -0.5809
16208TIP3    H170115   1.292   5.851  15.404  0.4897 -0.3377  1.2639
16208TIP3    H270116   1.401   5.946  15.361  1.0828 -0.8890  1.5510
16209TIP3   OH270117   2.158   1.622  11.668 -0.8022 -0.2370  0.0898
16209TIP3    H170118   2.128   1.580  11.588 -1.1001  1.8172 -0.9069
16209TIP3    H270119   2.180   1.550  11.726 -1.3706 -1.7564 -1.5406
16210TIP3   OH270120   5.452   0.072  11.996  0.1855  0.5380  0.2049
16210TIP3    H170121   5.373   0.039  11.954  0.4254 -0.1978  0.3240
16210TIP3    H270122   5.516   0.079  11.925  0.6677 -0.9469  0.4836
16211TIP3   OH270123   2.392   3.487  14.760 -0.1269  0.1895  0.6718
16211TIP3    H170124   2.408   3.578  14.787 -0.5154 -0.0072  1.5911
16211TIP3    H270125   2.461   3.437  14.804 -0.3677 -0.0553  0.7684
16212TIP3   OH270126   2.887   6.063   6.606 -0.0570  0.2388  0.0236
16212TIP3    H170127   2.827   6.056   6.681 -0.9203 -2.1445 -0.8559
16212TIP3    H270128   2.846   6.128   6.549 -0.1620  0.9581  0.8909
16213TIP3   OH270129   5.492   6.816   1.145  0.2886 -0.5229  0.8796
16213TIP3    H170130   5.505   6.843   1.054 -0.2721 -1.0814  0.6256
16213TIP3    H270131   5.495   6.898   1.195 -3.7360  0.3969 -0.1311
16214TIP3   OH270132   2.336   4.945  14.285 -0.1094 -0.1741  0.3724
16214TIP3    H170133   2.372   4.910  14.203  1.8814 -0.3431  1.2832
16214TIP3    H270134   2.273   4.879  14.313  1.1428 -1.4126  0.3239
16215TIP3   OH270135   2.349   0.987   4.991  0.1350  0.0144 -0.2377
16215TIP3    H170136   2.437   1.009   4.961  0.0338 -0.0730 -0.5957
16215TIP3    H270137   2.336   1.043   5.068  0.8540 -0.6449  0.3790
16216TIP3   OH270138   1.283   3.569  12.258  0.5510 -0.0651 -0.3569
16216TIP3    H170139   1.379   3.563  12.265  0.4507 -0.3105  0.8969
16216TIP3    H270140   1.252   3.481  12.282  0.0005  0.1183 -0.3943
16217TIP3   OH270141   0.117   2.260  15.923 -0.1747 -0.1066  0.0311
16217TIP3    H170142   0.194   2.303  15.962  1.2478 -0.5426 -2.1816
16217TIP3    H270143   0.122   2.283  15.830 -2.0563 -1.1736 -0.3487
16218TIP3   OH270144   4.592   2.502  12.457 -0.5821 -0.1425 -0.4152
16218TIP3    H170145   4.522   2.557  12.492 -1.2212 -0.1076 -1.7146
16218TIP3    H270146   4.610   2.537  12.370  0.1266 -0.9857 -0.6244
16219TIP3   OH270147   4.983   2.806   4.202 -0.1959 -0.3830  0.0655
16219TIP3    H170148   5.040   2.882   4.217 -0.4996 -0.3292  0.9955
16219TIP3    H270149   5.042   2.735   4.178  0.3546 -0.5530  1.8638
16220TIP3   OH270150   0.857   3.542  13.917  1.0473  0.1415 -0.2288
16220TIP3    H170151   0.949   3.567  13.910  0.7283  1.2055 -0.7330
16220TIP3    H270152   0.816   3.617  13.959  0.1972  0.1607 -1.0873
16221TIP3   OH270153   5.776   5.919  13.194 -0.3326  0.1470 -0.4841
16221TIP3    H170154   5.695   5.910  13.243 -0.1773  0.0514 -0.2438
16221TIP3    H270155   5.790   5.833  13.154 -0.5652  0.2841 -0.8583
16222TIP3   OH270156   1.752   4.253   1.772  0.4710 -0.0638 -0.0079
16222TIP3    H170157   1.685   4.223   1.834  0.1107  1.3921  0.3218
16222TIP3    H270158   1.703   4.279   1.694  0.5510  1.6424  0.4774
16223TIP3   OH270159   1.870   5.187   1.495 -0.0771 -1.1098 -0.4887
16223TIP3    H170160   1.847   5.143   1.413  0.4776 -0.4006 -1.0357
16223TIP3    H270161   1.792   5.238   1.517 -0.1818 -1.1959 -0.6573
16224TIP3   OH270162   1.976   1.344  13.571  0.5027 -0.0789  0.2611
16224TIP3    H170163   1.910   1.357  13.502  0.1370  0.1515  0.6560
16224TIP3    H270164   1.939   1.388  13.648  0.6074 -0.9178  0.7896
16225TIP3   OH270165   5.323   0.881  10.616 -0.3638  0.3935  0.2787
16225TIP3    H170166   5.386   0.914  10.552 -0.7370 -0.7011 -0.6719
16225TIP3    H270167   5.280   0.960  10.650  0.8692  1.0805  0.2762
16226TIP3   OH270168   1.017   2.218   3.602  0.1315  0.2280  0.5853
16226TIP3    H170169   0.925   2.203   3.625 -0.3792  0.4053 -1.2222
16226TIP3    H270170   1.025   2.183   3.513  2.2578 -1.3581  1.3787
16227TIP3   OH270171   2.353   1.726  15.423 -0.3120  0.0045  0.3535
16227TIP3    H170172   2.443   1.733  15.390  0.3449 -2.2572  1.5661
16227TIP3    H270173   2.319   1.646  15.382 -0.9660 -0.4074  1.6646
16228TIP3   OH270174   0.068   6.237  15.153 -0.1046  0.1054 -0.1187
16228TIP3    H170175   0.153   6.223  15.194  0.2867 -2.1260 -1.5469
16228TIP3    H270176   0.005   6.219  15.222  0.5762 -1.0006  0.2335
16229TIP3   OH270177   0.518   1.660   2.796 -0.0030  0.1761  0.5011
16229TIP3    H170178   0.492   1.579   2.840 -0.7256 -0.3547 -0.8669
16229TIP3    H270179   0.593   1.691   2.845 -0.7464 -0.4407  2.0574
16230TIP3   OH270180   6.366   5.013  17.278 -0.2889 -0.4323 -0.3303
16230TIP3    H170181   6.286   5.027  17.228 -0.9678 -0.6364  0.6796
16230TIP3    H270182   6.351   4.932  17.326 -1.2224  1.6958  3.1645
16231TIP3   OH270183   0.106   6.184  15.597 -0.1375  0.0130  0.4456
16231TIP3    H170184   0.182   6.239  15.578 -0.4510  0.3810  0.2300
16231TIP3    H270185   0.087   6.142  15.513 -0.0866 -0.1823  0.5336
16232TIP3   OH270186   6.245   3.085   2.899  0.5800  0.2409  0.2610
16232TIP3    H170187   6.234   3.166   2.948  0.9815 -0.5939  1.7539
16232TIP3    H270188   6.185   3.093   2.825 -0.1395  1.4368  0.9647
16233TIP3   OH270189   2.317   5.677  14.975 -0.1878 -0.5361  0.0608
16233TIP3    H170190   2.242   5.720  15.016  0.9941 -0.1686  1.8714
16233TIP3    H270191   2.393   5.716  15.017  0.9704 -2.6649  0.0112
16234TIP3   OH270192   1.534   6.596   6.702  0.2349 -0.3585 -0.4052
16234TIP3    H170193   1.611   6.561   6.657 -0.7192 -1.4977 -1.1887
16234TIP3    H270194   1.478   6.520   6.718 -1.0662  0.5486 -0.5163
16235TIP3   OH270195   4.980   5.379   2.533  0.0120  0.0012  0.5386
16235TIP3    H170196   4.972   5.470   2.562 -1.5625  0.2737 -0.6538
16235TIP3    H270197   5.060   5.378   2.480  0.2889  0.5818  0.9347
16236TIP3   OH270198   3.094   5.044  12.450 -0.0813 -0.4262 -0.2209
16236TIP3    H170199   3.176   5.082  12.418 -0.7106 -0.7844 -2.3258
16236TIP3    H270200   3.052   5.116  12.498 -1.0965  1.5435 -3.8341
16237TIP3   OH270201   0.992   3.443   4.618  0.2387  0.7029  0.2375
16237TIP3    H170202   1.014   3.516   4.561 -0.0778  1.1389  0.6667
16237TIP3    H270203   0.926   3.478   4.677  0.0655  0.0619  0.4330
16238TIP3   OH270204   1.730   6.022  15.543 -0.0065  0.0091 -1.0439
16238TIP3    H170205   1.814   6.001  15.503  0.6212 -3.6757  1.9351
16238TIP3    H270206   1.747   6.099  15.597 -0.3564  3.6575 -5.8278
16239TIP3   OH270207   2.986   4.118  15.328  0.2616  0.2407  0.2213
16239TIP3    H170208   2.892   4.133  15.339  0.5616  1.5116  1.1480
16239TIP3    H270209   3.022   4.120  15.417  1.1771 -0.1440 -0.1320
16240TIP3   OH270210   2.230   2.161  12.039  0.3545 -0.4320 -0.0858
16240TIP3    H170211   2.307   2.203  12.003 -0.6616  1.6218  0.0585
16240TIP3    H270212   2.209   2.091  11.977  1.7696 -0.3855 -0.6161
16241TIP3   OH270213   6.796   5.613  10.658 -0.6053 -0.7430  0.2635
16241TIP3    H170214   6.702   5.594  10.659 -1.1352  1.6095  1.7816
16241TIP3    H270215   6.802   5.700  10.617  0.7273 -0.2320  1.4956
16242TIP3   OH270216   3.334   4.378  16.688  0.4127 -0.0391  0.2215
16242TIP3    H170217   3.419   4.412  16.715  1.0487 -1.6620  0.3266
16242TIP3    H270218   3.349   4.345  16.600 -0.7571  1.9612 -0.7561
16243TIP3   OH270219   1.300   6.094   2.021 -0.5337 -0.0688  0.0747
16243TIP3    H170220   1.359   6.088   1.946  1.8281  0.7625  1.7974
16243TIP3    H270221   1.248   6.014   2.017  2.1386 -1.8606 -0.3426
16244TIP3   OH270222   1.457   2.017   3.199  0.0543  0.1984 -0.0547
16244TIP3    H170223   1.391   2.003   3.132 -0.0085 -0.7421  0.2040
16244TIP3    H270224   1.538   1.981   3.161  0.1371  0.1637  0.1518
16245TIP3   OH270225   6.616   5.356  14.401 -0.4352 -0.4729 -0.4730
16245TIP3    H170226   6.591   5.390  14.315 -2.9909 -0.1897  0.3537
16245TIP3    H270227   6.589   5.423  14.463  0.0311 -1.3255  0.6822
16246TIP3   OH270228   0.520   3.885   4.705 -0.2017 -0.0739  0.2638
16246TIP3    H170229   0.553   3.974   4.719 -1.4430  0.6289 -1.0525
16246TIP3    H270230   0.440   3.881   4.757 -0.4805 -0.1878 -0.1667
16247TIP3   OH270231   6.412   5.991  12.177 -0.3876 -0.2516  0.3514
16247TIP3    H170232   6.505   5.984  12.194 -0.0937 -1.8273 -1.6415
16247TIP3    H270233   6.388   5.905  12.142 -2.1977  0.7034 -0.8573
16248TIP3   OH270234   0.628   6.778   3.378  0.4019 -0.2140  1.0690
16248TIP3    H170235   0.537   6.748   3.379  0.1867  0.3796  0.3212
16248TIP3    H270236   0.658   6.760   3.289  2.1348 -3.5983  2.2599
16249TIP3   OH270237   0.860   1.745  15.336 -0.3457  0.4177 -0.4280
16249TIP3    H170238   0.902   1.739  15.250 -2.0843  1.7251 -1.4163
16249TIP3    H270239   0.767   1.751  15.316 -0.5878  3.6951  1.3979
16250TIP3   OH270240   1.349   4.999  11.614 -0.1119 -0.0695 -0.0038
16250TIP3    H170241   1.437   4.966  11.598 -0.5057 -2.0801  1.6792
16250TIP3    H270242   1.361   5.072  11.675  0.4202 -0.2753  0.1391
16251TIP3   OH270243   5.718   6.313  11.460 -0.0448  0.7454  0.5516
16251TIP3    H170244   5.758   6.343  11.541  1.2478  0.1353  0.1436
16251TIP3    H270245   5.728   6.386  11.399  1.3498  0.2236  0.1488
16252TIP3   OH270246   2.479   5.817   5.355  0.0876  0.4536 -0.0505
16252TIP3    H170247   2.516   5.757   5.290  0.3462  0.5095  0.0486
16252TIP3    H270248   2.464   5.762   5.432  0.4292  0.5421  0.0789
16253TIP3   OH270249   4.396   4.576  15.845 -0.6403 -0.2665 -0.0112
16253TIP3    H170250   4.401   4.670  15.827  0.7998 -0.1961  0.7248
16253TIP3    H270251   4.466   4.538  15.793  1.4891 -0.4327  2.9021
16254TIP3   OH270252   6.763   1.973   3.781  0.0979 -0.6426 -0.3844
16254TIP3    H170253   6.709   2.012   3.850 -0.0658 -0.6996 -0.4802
16254TIP3    H270254   6.707   1.907   3.741 -0.7553  1.1575 -2.2976
16255TIP3   OH270255   1.457   6.673  12.359  0.2316 -0.4832  0.2014
16255TIP3    H170256   1.419   6.709  12.439  0.9480  0.3318  0.1770
16255TIP3    H270257   1.382   6.658  12.302 -0.0478  1.3928  0.0485
16256TIP3   OH270258   3.323   6.702   4.180 -0.3192  0.1766  0.3969
16256TIP3    H170259   3.389   6.711   4.111 -0.2990 -0.9149  0.2634
16256TIP3    H270260   3.260   6.640   4.145  0.7341 -1.9356  2.1197
16257TIP3   OH270261   6.161   2.756  12.897 -0.3209 -0.2044  0.6490
16257TIP3    H170262   6.224   2.688  12.873  0.2911  0.9159 -1.0054
16257TIP3    H270263   6.086   2.741  12.840  0.3440  1.2673 -0.6732
16258TIP3   OH270264   4.193   3.925  15.442 -0.2495  0.3552 -0.2051
16258TIP3    H170265   4.145   3.921  15.525 -0.6626  0.9453 -0.4098
16258TIP3    H270266   4.139   3.875  15.381 -0.4492  0.7404 -0.3522
16259TIP3   OH270267   0.652   2.630   1.135  0.2825 -0.3601 -0.0346
16259TIP3    H170268   0.586   2.672   1.079  1.0693  0.1802 -0.5779
16259TIP3    H270269   0.601   2.582   1.200 -0.6481  0.0173 -0.4668
16260TIP3   OH270270   1.709   2.509   5.118  0.6057 -0.3409 -0.0336
16260TIP3    H170271   1.803   2.528   5.120  0.0343  2.6899 -0.4955
16260TIP3    H270272   1.685   2.517   5.025 -0.2581 -0.3565  0.1865
16261TIP3   OH270273   4.182   4.878  15.673 -0.2762 -0.0047 -0.7651
16261TIP3    H170274   4.259   4.897  15.726 -1.6010  1.9477  0.5299
16261TIP3    H270275   4.214   4.880  15.583  1.4100 -0.3836 -0.1943
16262TIP3   OH270276   1.617   6.552   0.803  0.1399  0.1275  0.0727
16262TIP3    H170277   1.568   6.601   0.738 -1.1834 -2.6183 -1.0822
16262TIP3    H270278   1.565   6.472   0.817  2.7721 -1.4940  0.9981
16263TIP3   OH270279   5.165   5.446  16.587  0.4742  0.1163 -0.1167
16263TIP3    H170280   5.072   5.438  16.568 -0.0348  2.9247  1.0109
16263TIP3    H270281   5.173   5.419  16.679  1.0398 -1.5503 -0.6263
16264TIP3   OH270282   1.027   6.341  16.467  0.0358  0.1148  0.4781
16264TIP3    H170283   1.026   6.258  16.514 -1.7889  0.3061  0.7909
16264TIP3    H270284   1.079   6.399  16.523 -1.3502  0.0787  1.8528
16265TIP3   OH270285   3.922   1.869   5.023  0.1980  0.2853  0.3396
16265TIP3    H170286   3.943   1.827   4.939 -1.9881 -1.0972  0.4664
16265TIP3    H270287   3.992   1.840   5.082  0.8772 -0.0013 -0.5911
16266TIP3   OH270288   4.994   1.847   4.015  0.0778 -0.1369 -0.6251
16266TIP3    H170289   4.948   1.763   4.016 -0.5233  0.1817 -0.7132
16266TIP3    H270290   4.932   1.908   4.057 -0.1016  0.5626 -1.8817
16267TIP3   OH270291   2.575   3.483   4.121  0.2895 -0.6454  0.1780
16267TIP3    H170292   2.494   3.435   4.106  0.9712 -1.7836  0.0405
16267TIP3    H270293   2.571   3.508   4.214  0.1888 -1.4817  0.4016
16268TIP3   OH270294   4.615   5.089   4.977 -0.0222 -0.3667 -0.0064
16268TIP3    H170295   4.622   5.003   5.019 -2.2168  0.7815  2.9517
16268TIP3    H270296   4.524   5.093   4.946  1.2229 -0.6852 -3.8773
16269TIP3   OH270297   5.199   4.912   3.698  0.1060  0.0440 -0.6083
16269TIP3    H170298   5.293   4.928   3.694  0.0521  0.6293  0.3820
16269TIP3    H270299   5.163   4.958   3.622  0.7131 -0.9680 -1.5341
16270TIP3   OH270300   0.823   5.024   0.716 -1.1621 -0.3743  0.3197
16270TIP3    H170301   0.749   4.968   0.694 -0.1345 -1.4539 -0.4417
16270TIP3    H270302   0.892   4.963   0.743 -0.4088  0.5875  0.5942
16271TIP3   OH270303   2.257   0.543   5.321 -0.3202 -0.4281 -0.6105
16271TIP3    H170304   2.202   0.464   5.320  1.2946 -1.5880  0.2842
16271TIP3    H270305   2.316   0.531   5.247  0.5470 -0.5194  0.0911
16272TIP3   OH270306   3.715   5.703   5.414 -0.1983 -0.4259 -0.2024
16272TIP3    H170307   3.687   5.760   5.486 -1.0475 -0.4683 -0.5023
16272TIP3    H270308   3.694   5.614   5.444 -0.2686 -0.4679 -0.3789
16273TIP3   OH270309   1.616   5.599   1.963  0.1591 -0.9309  0.7031
16273TIP3    H170310   1.694   5.568   2.009 -0.3517 -1.0940  1.4760
16273TIP3    H270311   1.581   5.668   2.019  1.1952  0.9839 -0.9286
16274TIP3   OH270312   0.624   0.456   5.739  0.1707  0.4010  0.4261
16274TIP3    H170313   0.689   0.517   5.773  1.1281 -0.8684  0.9080
16274TIP3    H270314   0.605   0.398   5.813 -1.4368  0.7004  0.2581
16275TIP3   OH270315   1.477   4.076  12.576 -0.0149  0.8911  0.1472
16275TIP3    H170316   1.503   4.066  12.484  0.4665  1.5610  0.2093
16275TIP3    H270317   1.554   4.115  12.619 -1.0731  2.8065  0.3475
16276TIP3   OH270318   1.751   6.043   1.800  0.1768 -0.0689 -0.3077
16276TIP3    H170319   1.707   6.110   1.749 -0.2099  0.3141  0.5147
16276TIP3    H270320   1.749   6.076   1.890 -2.7361 -2.5206  0.6243
16277TIP3   OH270321   0.619   2.100  13.022  0.3148  0.0649  0.4969
16277TIP3    H170322   0.584   2.150  12.948 -0.0626 -0.7506  0.1182
16277TIP3    H270323   0.542   2.057  13.060  0.5149  0.4601  1.3443
16278TIP3   OH270324   1.014   4.112  17.222 -0.0635  0.2645  0.2381
16278TIP3    H170325   1.092   4.167  17.230  0.4876 -0.3612 -0.7299
16278TIP3    H270326   1.048   4.027  17.195 -1.1073  0.0417 -0.3881
16279TIP3   OH270327   3.210   3.904   5.458 -0.0739 -0.6439 -0.3130
16279TIP3    H170328   3.194   3.998   5.469 -0.3953 -0.4534 -2.3109
16279TIP3    H270329   3.123   3.864   5.460 -0.0109 -0.7912 -0.5434
16280TIP3   OH270330   6.640   0.730   0.271  0.0682  0.6096 -0.4160
16280TIP3    H170331   6.697   0.669   0.225  1.1376  1.9228 -0.8855
16280TIP3    H270332   6.621   0.798   0.206 -3.3893 -0.6024 -0.7957
16281TIP3   OH270333   3.172   4.098   4.479 -0.1125 -0.0620 -0.0386
16281TIP3    H170334   3.190   4.044   4.556  1.8099  0.9044  0.2311
16281TIP3    H270335   3.227   4.061   4.410  1.7670  1.9212  0.3321
16282TIP3   OH270336   2.650   0.138   1.239 -0.0545  0.0839 -0.1720
16282TIP3    H170337   2.614   0.064   1.192  1.3209 -1.0483  0.5176
16282TIP3    H270338   2.667   0.105   1.327 -0.5556  1.5560  0.4953
16283TIP3   OH270339   4.213   2.364   5.179  0.2277  0.4567  0.5631
16283TIP3    H170340   4.130   2.402   5.208  0.9369  3.2419 -0.9154
16283TIP3    H270341   4.188   2.297   5.115 -0.9318 -0.0397  1.5126
16284TIP3   OH270342   5.509   2.699   2.596 -0.5936 -0.1155  0.1134
16284TIP3    H170343   5.519   2.743   2.680 -0.2573  0.2470 -0.1141
16284TIP3    H270344   5.459   2.759   2.542 -0.7061 -0.2947  0.0171
16285TIP3   OH270345   0.276   1.214  16.957 -0.1589  0.2504 -0.1190
16285TIP3    H170346   0.200   1.242  17.007 -0.0762  1.3996 -0.6054
16285TIP3    H270347   0.337   1.180  17.022 -0.7292  0.1659  0.3719
16286TIP3   OH270348   4.747   0.137   5.867  0.6231 -0.3838  0.0376
16286TIP3    H170349   4.757   0.084   5.947 -1.3866 -1.8005 -0.6022
16286TIP3    H270350   4.739   0.072   5.797 -0.5357  0.8071 -0.9406
16287TIP3   OH270351   4.460   4.472   1.735  0.4313 -0.0441  0.1451
16287TIP3    H170352   4.376   4.517   1.732  0.3315 -0.2981 -1.8609
16287TIP3    H270353   4.445   4.395   1.789 -1.5137 -1.7595 -2.7276
16288TIP3   OH270354   6.293   1.744   2.615  0.1691 -0.4821  0.2069
16288TIP3    H170355   6.225   1.682   2.587  0.1419 -0.8000  0.9616
16288TIP3    H270356   6.360   1.689   2.655 -0.2922  0.0497  1.7348
16289TIP3   OH270357   4.747   5.596  16.025 -0.3767 -0.4152  0.1784
16289TIP3    H170358   4.688   5.582  15.952 -0.1334 -0.5383  0.0033
16289TIP3    H270359   4.816   5.531  16.013 -0.2389 -0.3132  0.4125
16290TIP3   OH270360   5.106   0.521   2.851 -0.6578 -0.4142 -0.5235
16290TIP3    H170361   5.151   0.496   2.771 -1.3300 -1.6817 -0.5319
16290TIP3    H270362   5.159   0.482   2.921 -0.3449  0.2621 -0.3848
16291TIP3   OH270363   6.809   0.689  12.789  0.2119 -0.4698  0.1011
16291TIP3    H170364   6.821   0.718  12.880 -0.4846 -0.4994  0.2084
16291TIP3    H270365   6.839   0.763  12.736  0.8182 -0.5337  0.3543
16292TIP3   OH270366   2.868   2.406   4.628 -0.1018 -0.3623  0.2164
16292TIP3    H170367   2.931   2.338   4.651 -2.5343 -2.5606  0.5977
16292TIP3    H270368   2.822   2.425   4.710 -0.2262  0.9054 -0.1431
16293TIP3   OH270369   5.189   6.769  15.764 -0.4092 -0.3218  0.4523
16293TIP3    H170370   5.208   6.689  15.715 -0.4155 -0.4241  0.6164
16293TIP3    H270371   5.259   6.775  15.828  0.4185  0.5860 -0.5121
16294TIP3   OH270372   2.538   4.091   3.844 -0.2468 -0.2385  0.1747
16294TIP3    H170373   2.504   4.162   3.898 -2.0897 -0.7608 -0.2767
16294TIP3    H270374   2.508   4.011   3.888 -0.0640 -0.6985 -0.5312
16295TIP3   OH270375   0.830   6.013   5.764  0.0304 -0.5080  0.1435
16295TIP3    H170376   0.771   5.946   5.802  0.3601 -1.2606 -0.6553
16295TIP3    H270377   0.771   6.084   5.738 -0.5621 -1.3198 -0.7857
16296TIP3   OH270378   3.351   5.467   2.780  0.1027  0.1385 -0.0768
16296TIP3    H170379   3.301   5.506   2.852 -0.6136 -0.3311 -0.3178
16296TIP3    H270380   3.441   5.464   2.812  0.0078  1.1187  0.3078
16297TIP3   OH270381   6.755   5.071  15.236 -0.2404  0.0823 -0.2249
16297TIP3    H170382   6.744   5.155  15.193 -0.8563 -0.2485 -0.7278
16297TIP3    H270383   6.710   5.009  15.179 -0.3540 -0.4875  0.4775
16298TIP3   OH270384   5.399   4.192   4.511 -0.2874  0.4888  0.4411
16298TIP3    H170385   5.488   4.224   4.529  0.2630 -2.3584  3.1818
16298TIP3    H270386   5.341   4.258   4.549  0.7118  0.8102  1.4193
16299TIP3   OH270387   3.318   1.992   2.856 -0.0014 -0.5752  0.1767
16299TIP3    H170388   3.225   1.978   2.871 -0.1226 -0.3431 -0.3438
16299TIP3    H270389   3.322   2.070   2.800  0.5308 -0.1809  0.7478
16300TIP3   OH270390   4.189   1.681  16.822  0.3110 -0.0520 -0.9423
16300TIP3    H170391   4.138   1.717  16.750  0.0217  0.7842 -0.3226
16300TIP3    H270392   4.142   1.601  16.846 -1.5978  1.4803  0.6035
16301TIP3   OH270393   2.783   3.032   0.208 -0.4489  0.2115  0.0227
16301TIP3    H170394   2.741   3.074   0.283 -1.2409 -0.6969  0.0943
16301TIP3    H270395   2.803   2.943   0.237  1.4376  0.5821 -0.0523
16302TIP3   OH270396   6.729   6.544  14.671 -0.1197 -0.2304  0.1688
16302TIP3    H170397   6.722   6.475  14.605 -1.3750 -0.5848  0.6485
16302TIP3    H270398   6.695   6.503  14.751 -4.2936  1.9785 -0.3173
16303TIP3   OH270399   2.083   3.212  15.145  0.0898  0.4931  0.5194
16303TIP3    H170400   2.151   3.278  15.132  0.3033  0.6546  2.3244
16303TIP3    H270401   2.120   3.153  15.211 -1.2421  0.2035  1.0158
16304TIP3   OH270402   3.158   0.496   2.486 -0.1652  0.4355 -0.2292
16304TIP3    H170403   3.214   0.419   2.481 -0.4227  0.3150 -1.3677
16304TIP3    H270404   3.219   0.570   2.496  0.0709  0.0896  1.0351
16305TIP3   OH270405   3.281   2.945   3.508  0.2879  0.0596  0.3975
16305TIP3    H170406   3.189   2.958   3.533  0.9503  2.5840  1.7542
16305TIP3    H270407   3.328   2.949   3.591  1.7456 -0.0411 -0.4169
16306TIP3   OH270408   0.565   3.850  10.149 -0.1385  0.0837 -0.2048
16306TIP3    H170409   0.594   3.760  10.160  1.0961  0.2375 -2.1589
16306TIP3    H270410   0.470   3.843  10.136 -0.1952 -0.8403  0.6549
16307TIP3   OH270411   2.286   2.262   2.815  0.3901 -1.0174  0.0276
16307TIP3    H170412   2.297   2.246   2.909  0.5525 -2.5634 -0.2508
16307TIP3    H270413   2.268   2.176   2.778 -1.0241 -0.2178 -1.1769
16308TIP3   OH270414   2.416   0.217  14.456  0.3499 -0.3581  0.0211
16308TIP3    H170415   2.357   0.196  14.528 -1.5630  0.4428 -1.2802
16308TIP3    H270416   2.486   0.269  14.496 -0.4793 -0.2540  1.3440
16309TIP3   OH270417   5.154   1.307   1.035 -0.7861  0.1887 -0.7316
16309TIP3    H170418   5.238   1.352   1.036 -1.1681  0.9122 -0.6768
16309TIP3    H270419   5.176   1.214   1.044  0.0416  0.3046 -1.5318
16310TIP3   OH270420   3.554   1.449   5.807  0.0041  0.1005 -0.5354
16310TIP3    H170421   3.496   1.433   5.881  0.6526 -0.3817 -0.1207
16310TIP3    H270422   3.604   1.526   5.833  1.0184 -0.7308  0.0256
16311TIP3   OH270423   3.078   0.299   3.332  0.8196 -0.0576 -0.0169
16311TIP3    H170424   3.065   0.348   3.413  1.1925  1.1904 -0.7092
16311TIP3    H270425   2.992   0.261   3.313  0.3236  1.0356  0.0550
16312TIP3   OH270426   2.686   2.186  13.047 -0.1693  0.4389  0.2369
16312TIP3    H170427   2.631   2.137  13.108 -1.2169  0.7117 -0.4904
16312TIP3    H270428   2.761   2.129  13.032 -0.7058 -0.3405  0.4946
16313TIP3   OH270429   5.291   2.317  15.165  0.4077 -0.0932 -0.1054
16313TIP3    H170430   5.216   2.284  15.215  0.2492 -2.7134 -1.9698
16313TIP3    H270431   5.336   2.376  15.225 -1.8436 -0.2894  1.8354
16314TIP3   OH270432   2.702   3.234   5.154  0.5090 -0.0606  0.4765
16314TIP3    H170433   2.652   3.194   5.225 -0.8770  2.0862  0.7612
16314TIP3    H270434   2.776   3.175   5.140 -0.1816 -1.4383  2.4765
16315TIP3   OH270435   0.316   4.301  16.357 -0.7616  0.0595  0.2015
16315TIP3    H170436   0.333   4.371  16.295 -0.1464 -0.1557  0.1225
16315TIP3    H270437   0.314   4.221  16.303  0.3914 -0.1980  0.5437
16316TIP3   OH270438   3.930   0.848   6.337  0.4926 -0.0312 -0.9854
16316TIP3    H170439   3.857   0.791   6.315 -0.3800  1.0282 -0.8538
16316TIP3    H270440   3.922   0.862   6.432 -0.9407  2.5443 -1.4442
16317TIP3   OH270441   5.081   1.226  16.511 -0.4923  0.1793 -0.0923
16317TIP3    H170442   5.151   1.236  16.447 -0.2316  1.2523  0.3631
16317TIP3    H270443   5.000   1.228  16.459 -0.2168 -0.7832 -0.5830
16318TIP3   OH270444   1.305   4.246   2.936  0.2741  0.5982  0.0152
16318TIP3    H170445   1.392   4.285   2.945 -0.4198  2.1206  0.4283
16318TIP3    H270446   1.260   4.269   3.017 -1.1115  1.4261 -0.9573
16319TIP3   OH270447   0.829   4.707  17.033 -0.1238 -0.0018  0.0420
16319TIP3    H170448   0.752   4.756  17.062 -1.3069  1.7301 -5.3814
16319TIP3    H270449   0.795   4.620  17.009 -0.5007  0.7974 -2.4548
16320TIP3   OH270450   0.387   6.055   2.766  0.0336  0.4516  0.0299
16320TIP3    H170451   0.467   6.005   2.747 -0.4795 -0.4093  0.1256
16320TIP3    H270452   0.346   6.008   2.838 -0.9661  0.4528 -0.5391
16321TIP3   OH270453   0.441   5.134  14.271  0.4074  0.1656 -0.2787
16321TIP3    H170454   0.420   5.223  14.241  0.3804  0.3176  0.1718
16321TIP3    H270455   0.449   5.082  14.192 -0.5072  0.3669 -0.5140
16322TIP3   OH270456   1.341   5.150  13.207  0.0725  0.3476  0.0081
16322TIP3    H170457   1.299   5.215  13.152  1.0086 -1.9134 -3.5222
16322TIP3    H270458   1.286   5.072  13.198  0.7423 -0.3487  1.6077
16323TIP3   OH270459   0.480   0.047  16.586  0.0521  0.3518  0.0096
16323TIP3    H170460   0.547   0.047  16.517 -0.2687 -1.1634 -0.3309
16323TIP3    H270461   0.523   0.004  16.661 -0.6349 -0.9539 -0.3283
16324TIP3   OH270462   0.438   6.392  11.767  0.8132 -0.1273 -0.0782
16324TIP3    H170463   0.389   6.313  11.741  1.2419 -0.9727  1.6214
16324TIP3    H270464   0.453   6.381  11.861  0.2154  2.3558  0.3429
16325TIP3   OH270465   1.936   0.328  14.491 -0.6534 -0.3617  0.1013
16325TIP3    H170466   1.962   0.236  14.495  0.8159  0.0811  1.2577
16325TIP3    H270467   1.841   0.326  14.481 -0.5711 -2.0045 -0.4801
16326TIP3   OH270468   3.872   3.476  13.486  0.0173 -0.2133 -0.2244
16326TIP3    H170469   3.849   3.403  13.544 -0.6778  0.3963  0.2798
16326TIP3    H270470   3.826   3.457  13.404 -3.2742  1.5340  1.1157
16327TIP3   OH270471   2.981   6.644  16.386 -0.1231 -0.4438  1.0802
16327TIP3    H170472   2.891   6.622  16.411 -0.0928 -2.5138 -0.5118
16327TIP3    H270473   3.034   6.572  16.421  0.9146  0.7147  1.9188
16328TIP3   OH270474   2.946   1.438   3.819  1.1377 -0.4325 -0.2167
16328TIP3    H170475   3.004   1.503   3.859  0.6340 -2.1746  3.5637
16328TIP3    H270476   2.858   1.471   3.834  0.9807  1.0120 -3.8298
16329TIP3   OH270477   1.208   0.889   1.633 -0.0849 -0.2529  0.0790
16329TIP3    H170478   1.246   0.803   1.618  1.2642 -0.0394  2.1891
16329TIP3    H270479   1.243   0.943   1.562  1.9315 -0.5616  0.8170
16330TIP3   OH270480   2.367   5.570   0.904 -0.1221  0.0207 -0.4030
16330TIP3    H170481   2.383   5.656   0.866 -0.8535 -0.2530 -1.3358
16330TIP3    H270482   2.353   5.587   0.997 -0.8648  0.9723 -0.6831
16331TIP3   OH270483   1.017   4.329  12.049  0.0044 -0.0386 -0.2240
16331TIP3    H170484   0.945   4.356  11.992 -1.6465 -0.7541  1.4675
16331TIP3    H270485   1.090   4.387  12.025 -1.3438  1.1978 -1.4309
16332TIP3   OH270486   0.021   0.563  15.233 -0.1222 -0.2557 -0.2432
16332TIP3    H170487   0.010   0.658  15.245 -0.2044 -0.4491  1.2801
16332TIP3    H270488   0.002   0.549  15.140 -1.1241  1.0748 -0.2624
16333TIP3   OH270489   1.242   6.097   0.428  0.1946 -0.1269  0.4704
16333TIP3    H170490   1.150   6.071   0.423  0.1959 -0.2428  1.0108
16333TIP3    H270491   1.276   6.051   0.505  0.8490 -0.5319 -0.0558
16334TIP3   OH270492   5.822   6.174   6.343 -0.2503  0.2131 -0.4543
16334TIP3    H170493   5.745   6.212   6.386  0.2908  0.0559  0.6666
16334TIP3    H270494   5.792   6.089   6.313 -0.1169 -0.4720  1.2914
16335TIP3   OH270495   2.690   1.811  12.890  0.4122 -0.0435 -0.3338
16335TIP3    H170496   2.688   1.722  12.926  1.0901  0.1796  0.2715
16335TIP3    H270497   2.735   1.803  12.806 -0.6615 -0.4783 -0.8679
16336TIP3   OH270498   5.602   6.304  12.132  0.0345  0.4493  0.3296
16336TIP3    H170499   5.593   6.337  12.221  0.8555  1.2166  0.1388
16336TIP3    H270500   5.639   6.377  12.083 -0.2168 -0.0365 -0.5985
16337TIP3   OH270501   2.040   6.392  16.581  0.4064  0.4833 -0.6588
16337TIP3    H170502   2.035   6.369  16.488  1.8012  0.5750 -0.7765
16337TIP3    H270503   2.064   6.485  16.581 -1.0281  0.8618 -0.1982
16338TIP3   OH270504   4.982   6.041  14.591 -0.3577 -0.1043  0.1505
16338TIP3    H170505   5.013   6.004  14.508 -0.3893 -0.3370  0.2407
16338TIP3    H270506   5.043   6.113  14.610 -0.7000  0.3250 -0.3683
16339TIP3   OH270507   3.560   2.292  13.107  0.2742 -0.2830  0.3773
16339TIP3    H170508   3.488   2.250  13.059 -2.6471  1.6764  2.8697
16339TIP3    H270509   3.522   2.316  13.191  2.9131  3.7414  0.5729
16340TIP3   OH270510   5.690   2.429  15.928  0.5166  0.0249  0.2821
16340TIP3    H170511   5.681   2.500  15.992  0.4143  0.6278 -0.3952
16340TIP3    H270512   5.779   2.398  15.939  0.7946  0.7340  0.1031
16341TIP3   OH270513   6.134   4.191   1.136 -0.7173  0.3072  0.2915
16341TIP3    H170514   6.098   4.204   1.048 -1.5800  1.3600  0.7964
16341TIP3    H270515   6.229   4.184   1.121 -0.9993 -1.3943 -0.9118
16342TIP3   OH270516   3.132   2.193   4.257 -0.2511 -0.1031  0.2439
16342TIP3    H170517   3.155   2.237   4.339 -0.8081 -0.6056  0.6811
16342TIP3    H270518   3.145   2.100   4.275 -0.7099 -0.2445 -0.1197
16343TIP3   OH270519   1.903   2.718   2.507 -0.2436  0.9496  0.6349
16343TIP3    H170520   1.887   2.728   2.413  2.5595 -1.5883 -0.2097
16343TIP3    H270521   1.860   2.635   2.529  1.6052  0.0326  0.8851
16344TIP3   OH270522   4.963   0.057   5.610  0.2075  0.2430  0.1967
16344TIP3    H170523   4.993  -0.030   5.584  0.9009 -0.2242  2.4445
16344TIP3    H270524   4.994   0.067   5.700 -0.9948  2.2939  0.4113
16345TIP3   OH270525   1.384   6.407  15.770 -0.4615  0.0472  0.2265
16345TIP3    H170526   1.400   6.437  15.681  1.3535  0.2204  0.5907
16345TIP3    H270527   1.289   6.409  15.780 -0.6686  0.0665 -1.6817
16346TIP3   OH270528   0.277   4.497  16.153 -0.3380  0.1734 -0.2818
16346TIP3    H170529   0.236   4.437  16.091 -0.8101  0.3025 -0.0975
16346TIP3    H270530   0.344   4.542  16.101 -1.0554  0.6308 -0.8310
16347TIP3   OH270531   6.663   3.741   0.821 -0.1421  0.3756  0.2460
16347TIP3    H170532   6.729   3.798   0.861 -0.0170 -0.2965  1.0243
16347TIP3    H270533   6.711   3.694   0.753  0.8272 -1.8420  2.3463
16348TIP3   OH270534   0.218   1.828  15.464  0.5538 -0.5282 -0.5580
16348TIP3    H170535   0.221   1.894  15.395  0.0112  1.1938  1.0409
16348TIP3    H270536   0.146   1.770  15.439 -1.8023  1.9886  0.2452
16349TIP3   OH270537   0.877   2.290   0.482  0.1022 -0.2485  0.0706
16349TIP3    H170538   0.963   2.299   0.523 -0.6525 -1.1321  1.9019
16349TIP3    H270539   0.816   2.279   0.555 -1.3809 -1.1340 -1.2582
16350TIP3   OH270540   3.394   5.866  15.974  0.6888  0.8181 -0.1990
16350TIP3    H170541   3.447   5.786  15.975  1.4719  1.3028 -1.0159
16350TIP3    H270542   3.455   5.935  16.002 -0.1155  1.0539  0.9921
16351TIP3   OH270543   5.551   3.175  17.071  0.0851 -0.3444  0.8319
16351TIP3    H170544   5.564   3.221  17.154 -3.4114  0.6325  0.9000
16351TIP3    H270545   5.497   3.099  17.094 -0.5934 -0.2775 -0.4926
16352TIP3   OH270546   6.681   4.153  10.577 -0.9022 -0.8732  0.5640
16352TIP3    H170547   6.595   4.183  10.546 -1.1580 -1.4956  0.6608
16352TIP3    H270548   6.666   4.129  10.668 -0.7023 -1.2952  0.4887
16353TIP3   OH270549   3.065   2.167  12.801  0.1539 -0.8869  0.1838
16353TIP3    H170550   3.089   2.256  12.829  0.0599 -0.2245 -1.8107
16353TIP3    H270551   3.044   2.122  12.883  1.2225  0.6115  1.3267
16354TIP3   OH270552   6.007   4.999   4.536  0.0309  0.4538 -0.0528
16354TIP3    H170553   6.023   5.087   4.570  0.5186  1.3403 -2.4808
16354TIP3    H270554   5.976   5.014   4.446 -3.3246 -1.6960  0.6819
16355TIP3   OH270555   2.227   1.439  15.618  0.4088  0.0345  0.0695
16355TIP3    H170556   2.200   1.523  15.655 -0.9007  0.4388 -1.7142
16355TIP3    H270557   2.313   1.422  15.656  0.7791  2.2972  0.2790
16356TIP3   OH270558   2.833   5.223  12.826 -0.1829 -0.9705  0.0250
16356TIP3    H170559   2.920   5.249  12.855  0.4814 -2.2779 -0.7181
16356TIP3    H270560   2.827   5.130  12.849 -1.2444 -0.9745 -0.2427
16357TIP3   OH270561   2.420   5.524  14.006  0.2401 -0.4338  0.1286
16357TIP3    H170562   2.418   5.555  14.097 -0.8403  1.0269 -0.3742
16357TIP3    H270563   2.353   5.455  14.003 -1.0775  0.8277 -0.0004
16358TIP3   OH270564   0.514   0.421  16.979 -0.0767 -0.0409  0.5319
16358TIP3    H170565   0.433   0.399  16.934  0.5240 -1.8471  0.2720
16358TIP3    H270566   0.562   0.476  16.918  0.7667 -2.5330 -1.1526
16359TIP3   OH270567   3.620   1.388  16.848  0.0023  0.0762 -0.2872
16359TIP3    H170568   3.659   1.322  16.904  1.4089  1.3963  0.3243
16359TIP3    H270569   3.599   1.461  16.906 -3.2015 -0.4921 -0.6438
16360TIP3   OH270570   2.276   3.972   3.913 -0.0514  0.2507  0.1701
16360TIP3    H170571   2.279   3.878   3.931 -1.6019 -0.0165 -0.8245
16360TIP3    H270572   2.184   3.989   3.891  0.4598  1.7538 -0.8884
16361TIP3   OH270573   4.595   4.372  14.375 -0.1135  0.5341  0.2541
16361TIP3    H170574   4.512   4.378  14.421  1.1096 -2.1968  2.9949
16361TIP3    H270575   4.625   4.462  14.368 -1.6216  1.2442  2.4498
16362TIP3   OH270576   4.025   6.706  12.765  0.1973 -0.1241 -0.3218
16362TIP3    H170577   4.086   6.760  12.815 -1.5987  2.1209 -0.5016
16362TIP3    H270578   4.079   6.666  12.697  1.4762  1.7700 -0.4558
16363TIP3   OH270579   4.761   2.143   3.601  0.3184 -0.3311  0.1896
16363TIP3    H170580   4.772   2.191   3.518 -2.8487 -0.7908 -0.5699
16363TIP3    H270581   4.740   2.211   3.665  0.6133 -0.2001  0.1475
16364TIP3   OH270582   6.381   4.401   4.407 -0.4931  0.3971 -0.9086
16364TIP3    H170583   6.372   4.309   4.383 -2.2658  1.0285 -2.8842
16364TIP3    H270584   6.422   4.400   4.493 -2.5335 -2.3189  0.1027
16365TIP3   OH270585   1.866   5.469  14.841  0.1105  0.4008 -0.3003
16365TIP3    H170586   1.870   5.561  14.816 -1.0140  0.6949  0.5943
16365TIP3    H270587   1.774   5.453  14.861  0.5701 -0.4878  1.2041
16366TIP3   OH270588   6.185   0.194  11.314  0.8140 -0.6988 -1.0162
16366TIP3    H170589   6.179   0.239  11.399  0.2160 -1.3810 -0.6836
16366TIP3    H270590   6.122   0.241  11.259  2.0981  0.5225 -1.4529
16367TIP3   OH270591   5.449   3.074   4.051 -0.5260 -0.5438 -0.1303
16367TIP3    H170592   5.376   3.027   4.011 -0.4321  1.0386 -2.2175
16367TIP3    H270593   5.466   3.147   3.992  0.6963  0.9238  1.9778
16368TIP3   OH270594   4.293   0.400   5.635 -0.0971  0.6887  0.3941
16368TIP3    H170595   4.321   0.309   5.625 -1.0465  0.4232  0.1195
16368TIP3    H270596   4.293   0.436   5.547  1.3046  1.2743  0.6175
16369TIP3   OH270597   1.009   1.296   0.347  0.6499  0.5218 -0.6499
16369TIP3    H170598   1.024   1.376   0.295 -2.1652  0.9846 -0.7972
16369TIP3    H270599   0.920   1.269   0.326 -0.5449  0.5962  3.7323
16370TIP3   OH270600   6.523   2.065  14.080 -0.3114 -0.0960  0.2459
16370TIP3    H170601   6.443   2.108  14.111  1.3080  1.0536  3.0067
16370TIP3    H270602   6.546   2.111  14.000 -1.0592  1.2388  0.7883
16371TIP3   OH270603   0.256   0.081   3.653  0.3133  0.4983 -0.0538
16371TIP3    H170604   0.182   0.032   3.688  0.0341  0.5905 -0.5060
16371TIP3    H270605   0.333   0.031   3.681  0.1041  0.6518  0.7976
16372TIP3   OH270606   0.573   3.840   0.841  0.1878  0.0342 -0.2228
16372TIP3    H170607   0.652   3.833   0.895  0.4321  1.2542 -0.4149
16372TIP3    H270608   0.516   3.899   0.889 -0.5879 -0.7800 -0.1264
16373TIP3   OH270609   3.770   5.907  10.643 -0.6096  0.0017  0.2937
16373TIP3    H170610   3.783   5.972  10.574 -0.1210 -0.9244 -0.4905
16373TIP3    H270611   3.827   5.834  10.620 -0.0402 -0.1116  1.9657
16374TIP3   OH270612   4.058   6.137   1.652 -0.0161 -0.0011 -0.2338
16374TIP3    H170613   4.100   6.119   1.736  0.3164  2.1056  0.0775
16374TIP3    H270614   4.086   6.065   1.595  1.5629 -0.2557  0.8233
16375TIP3   OH270615   1.855   0.120  13.638 -0.3981  0.0858 -0.2051
16375TIP3    H170616   1.917   0.122  13.712  0.3790  1.2425 -0.8704
16375TIP3    H270617   1.769   0.125  13.679  0.0266  0.6789  0.6393
16376TIP3   OH270618   0.239   3.091  15.415  0.1561  0.2263 -0.6310
16376TIP3    H170619   0.166   3.113  15.357 -0.6579 -0.4550  0.1186
16376TIP3    H270620   0.201   3.098  15.503  0.8963 -0.5255 -0.2554
16377TIP3   OH270621   1.656   2.984  16.256  0.6629 -0.1008  0.0341
16377TIP3    H170622   1.729   2.931  16.286  0.7279 -0.9572 -1.6303
16377TIP3    H270623   1.632   3.036  16.333  3.4685  0.7210  0.4090
16378TIP3   OH270624   3.659   4.319  11.495  0.0306  0.0111  0.3700
16378TIP3    H170625   3.594   4.386  11.473  0.1115  0.4372  1.4162
16378TIP3    H270626   3.678   4.276  11.411 -0.1407  1.1882 -0.2930
16379TIP3   OH270627   4.018   5.519  12.318  0.1217  0.1284 -0.0821
16379TIP3    H170628   4.035   5.577  12.244  0.1430 -0.1979 -0.3318
16379TIP3    H270629   3.960   5.569  12.376  0.9669  0.7983  0.2001
16380TIP3   OH270630   3.435   2.105   0.386  0.1010 -0.5738  0.3393
16380TIP3    H170631   3.440   2.021   0.340  1.3967 -0.9386  1.1270
16380TIP3    H270632   3.450   2.171   0.318  1.9229 -1.1046  0.1956
16381TIP3   OH270633   6.736   5.726   0.274  0.0755 -0.7557  0.0550
16381TIP3    H170634   6.737   5.785   0.350  1.8206  0.6604 -1.0340
16381TIP3    H270635   6.805   5.760   0.217 -2.6483 -0.4374 -3.1844
16382TIP3   OH270636   2.005   2.800   5.636 -0.0716 -0.6914 -0.2376
16382TIP3    H170637   1.926   2.751   5.611 -0.7461  0.8619 -1.2091
16382TIP3    H270638   2.075   2.736   5.633 -1.2650 -2.0602  0.4509
16383TIP3   OH270639   2.572   0.874  11.208 -0.3251  0.0736  0.1031
16383TIP3    H170640   2.489   0.892  11.163  0.1631  1.8038 -0.1154
16383TIP3    H270641   2.547   0.869  11.300 -0.7256  0.2587  0.0101
16384TIP3   OH270642   5.018   6.134   5.809 -0.2339 -0.5130 -0.2632
16384TIP3    H170643   4.996   6.214   5.761 -0.6150 -0.5470 -0.1468
16384TIP3    H270644   4.938   6.113   5.858 -0.0977 -0.9062 -0.2134
16385TIP3   OH270645   0.104   6.415  15.393 -0.2780 -0.8511  0.2655
16385TIP3    H170646   0.174   6.349  15.394 -1.1834 -1.9134 -1.9378
16385TIP3    H270647   0.113   6.458  15.307 -1.2324  0.2048  0.6855
16386TIP3   OH270648   6.107   4.972  12.430 -0.1418 -0.5244 -0.3666
16386TIP3    H170649   6.123   5.052  12.381 -0.1134  0.0062  0.4897
16386TIP3    H270650   6.170   4.975  12.502  0.8155 -2.0012 -1.1068
16387TIP3   OH270651   5.530   5.587  17.172 -0.0430  0.4118  0.2415
16387TIP3    H170652   5.514   5.496  17.148 -0.2363  0.4509  0.2173
16387TIP3    H270653   5.475   5.638  17.112  2.1769  0.6869 -1.6147
16388TIP3   OH270654   3.002   5.220   5.315 -0.7059  0.5601 -0.0718
16388TIP3    H170655   3.097   5.211   5.319 -0.5714  1.8622  0.0252
16388TIP3    H270656   2.968   5.138   5.351  0.3635 -0.6696 -1.8078
16389TIP3   OH270657   3.219   4.927  14.707 -0.2205 -0.0564  0.2694
16389TIP3    H170658   3.282   4.859  14.683  0.2321  0.5478 -0.2551
16389TIP3    H270659   3.164   4.937  14.630  0.7322  1.3135 -0.2565
16390TIP3   OH270660   6.743   3.080   1.614  0.6343 -0.2344  0.4262
16390TIP3    H170661   6.834   3.076   1.643  0.6939  2.5085  0.7415
16390TIP3    H270662   6.737   3.161   1.565 -1.5057 -0.6985 -0.1385
16391TIP3   OH270663   0.434   0.999  11.361  0.0498 -0.5641  0.3378
16391TIP3    H170664   0.475   1.022  11.278  0.1573  0.4941  0.6750
16391TIP3    H270665   0.376   1.073  11.380  0.4354 -0.5517  1.4759
16392TIP3   OH270666   4.007   5.698  13.575 -0.1680  0.0157  0.2345
16392TIP3    H170667   4.061   5.749  13.514 -2.2806  2.1218  0.0610
16392TIP3    H270668   4.007   5.750  13.656  0.3834 -1.3984  1.1553
16393TIP3   OH270669   1.215   5.054  14.668  0.1686  0.5524  0.0423
16393TIP3    H170670   1.303   5.092  14.659  0.5046 -0.4856 -1.3731
16393TIP3    H270671   1.191   5.030  14.579 -0.3139 -1.8731  0.7844
16394TIP3   OH270672   6.381   1.251   5.306 -0.2592 -0.4187  0.6930
16394TIP3    H170673   6.358   1.244   5.214  0.9832  1.2620  0.2265
16394TIP3    H270674   6.326   1.186   5.350  0.1362 -2.2011 -1.3877
16395TIP3   OH270675   3.342   4.919  12.691  0.3149  0.5313 -0.4641
16395TIP3    H170676   3.317   5.010  12.706 -0.3052  0.5150 -1.3935
16395TIP3    H270677   3.341   4.908  12.596  0.6782 -0.3633 -0.3747
16396TIP3   OH270678   0.407   5.019  13.630  0.3211 -0.1293  0.3219
16396TIP3    H170679   0.341   5.063  13.577 -0.5101 -0.9536  0.6623
16396TIP3    H270680   0.409   5.068  13.712  1.0012  0.6274 -0.1346
16397TIP3   OH270681   3.796   0.951  16.639  0.8761  0.7348  0.2369
16397TIP3    H170682   3.793   0.941  16.734 -1.1546  1.5354  0.2714
16397TIP3    H270683   3.753   0.873  16.606  3.3557 -0.5383 -0.1295
16398TIP3   OH270684   5.705   0.412   0.436  0.6245  0.4111  0.0634
16398TIP3    H170685   5.704   0.498   0.477  1.9536 -0.2239  1.4787
16398TIP3    H270686   5.657   0.424   0.354 -0.0621  2.2509  0.7046
16399TIP3   OH270687   2.452   5.373  13.188  0.0785 -0.3201 -0.0046
16399TIP3    H170688   2.512   5.365  13.114  0.9716  1.0466  0.5489
16399TIP3    H270689   2.370   5.333  13.158  0.7393 -0.6717 -1.3591
16400TIP3   OH270690   0.155   2.646   0.179 -0.0583 -0.0651  0.6976
16400TIP3    H170691   0.141   2.574   0.117  0.6339  0.8616 -0.5532
16400TIP3    H270692   0.220   2.613   0.240 -0.8205 -1.0241  1.0095
16401TIP3   OH270693   2.661   4.988  16.764  0.1950 -0.6514 -0.3074
16401TIP3    H170694   2.649   4.980  16.859 -0.9693 -0.7237 -0.4522
16401TIP3    H270695   2.686   5.079  16.751  0.2922 -0.6239  0.0680
16402TIP3   OH270696   5.779   0.204   4.724  0.2178  0.2745  0.0874
16402TIP3    H170697   5.697   0.196   4.773  1.1182  2.9048  2.0999
16402TIP3    H270698   5.840   0.146   4.769  0.1934  0.3200  0.1782
16403TIP3   OH270699   0.359   0.263  12.884 -0.5775  0.1145  0.0087
16403TIP3    H170700   0.331   0.209  12.958  2.5007 -2.7231 -0.8202
16403TIP3    H270701   0.435   0.310  12.917 -0.7119  0.7676 -0.6042
16404TIP3   OH270702   3.519   0.972  14.601 -0.8139  0.6282  0.3814
16404TIP3    H170703   3.548   1.032  14.670 -0.8353 -0.2606  1.1602
16404TIP3    H270704   3.442   0.929  14.637 -0.0871 -0.7655  0.2994
16405TIP3   OH270705   6.640   5.492  16.361  1.0183 -0.3103  0.2020
16405TIP3    H170706   6.593   5.447  16.431 -0.1504 -0.1435 -0.4582
16405TIP3    H270707   6.572   5.542  16.315  1.6699 -0.9131 -1.4405
16406TIP3   OH270708   5.464   5.324  14.420 -0.3314  0.3463  0.0864
16406TIP3    H170709   5.543   5.325  14.474 -0.4997 -0.4331  0.3514
16406TIP3    H270710   5.494   5.300  14.333 -0.1167  1.2011 -0.0799
16407TIP3   OH270711   0.377   1.352  16.742 -0.0077  0.3257  0.5583
16407TIP3    H170712   0.295   1.313  16.770  0.8476 -1.6705  0.3640
16407TIP3    H270713   0.429   1.359  16.822 -0.2771  1.3995  0.6455
16408TIP3   OH270714   3.499   0.120   1.501  0.1531 -0.7670 -0.3115
16408TIP3    H170715   3.521   0.139   1.410  1.4245 -0.4314  0.0466
16408TIP3    H270716   3.563   0.170   1.551  1.7456 -3.7063  0.7206
16409TIP3   OH270717   1.449   5.092  15.680  0.2142 -0.4487 -0.0683
16409TIP3    H170718   1.415   5.170  15.724 -1.3390 -0.3255 -1.4374
16409TIP3    H270719   1.426   5.020  15.739 -2.4661 -0.3570 -0.9524
16410TIP3   OH270720   1.113   0.531   0.685 -0.2830 -0.4079 -0.5652
16410TIP3    H170721   1.035   0.479   0.664  0.8626 -2.7590  0.7237
16410TIP3    H270722   1.178   0.503   0.621  0.5322 -1.0175  0.5217
16411TIP3   OH270723   1.576   5.402   3.460  0.4691 -0.3768 -0.7582
16411TIP3    H170724   1.538   5.355   3.385  0.6995  0.1958 -1.2324
16411TIP3    H270725   1.669   5.382   3.456  0.5596  0.0746 -0.9309
16412TIP3   OH270726   5.838   6.534  10.780 -0.3317  0.2053 -0.0574
16412TIP3    H170727   5.799   6.451  10.753  1.1175 -0.6998  0.5803
16412TIP3    H270728   5.928   6.530  10.747 -0.1933  1.4467  0.1350
16413TIP3   OH270729   6.599   4.278  15.470 -0.0920 -0.7384 -0.3361
16413TIP3    H170730   6.509   4.261  15.443 -0.4153 -0.8288  0.7735
16413TIP3    H270731   6.637   4.327  15.397 -1.5155  0.7308 -0.1232
16414TIP3   OH270732   1.304   1.567   4.100  0.1333 -0.0019  0.0778
16414TIP3    H170733   1.267   1.481   4.081 -0.0440 -0.6527  3.1359
16414TIP3    H270734   1.317   1.567   4.195  2.0701  2.5803 -0.1398
16415TIP3   OH270735   4.151   2.971  13.680 -0.0283  0.3850  0.0216
16415TIP3    H170736   4.229   2.979  13.734  0.7582  0.3722 -1.0930
16415TIP3    H270737   4.094   2.909  13.727  0.6703  0.3318  0.7888
16416TIP3   OH270738   4.310   1.160   1.450 -0.0100  0.3809  0.5595
16416TIP3    H170739   4.340   1.074   1.477  0.8355  0.9933  1.6210
16416TIP3    H270740   4.358   1.178   1.369 -1.8688 -1.0715 -0.9218
16417TIP3   OH270741   2.598   3.441   0.385 -0.1820  0.6994 -0.4246
16417TIP3    H170742   2.582   3.480   0.299  1.0950 -0.7834 -1.3657
16417TIP3    H270743   2.592   3.515   0.446  1.5486  2.2625 -2.0745
16418TIP3   OH270744   5.286   6.808  15.401  0.1008  0.2761 -0.6066
16418TIP3    H170745   5.366   6.855  15.425  0.0851 -0.9087  1.9663
16418TIP3    H270746   5.214   6.863  15.431 -0.0588  0.9141 -2.1018
16419TIP3   OH270747   5.438   1.682   5.700  0.0584 -0.5412 -0.1392
16419TIP3    H170748   5.456   1.610   5.760  0.1356 -0.1868  0.2592
16419TIP3    H270749   5.467   1.760   5.746 -0.7385 -0.1707 -0.2613
16420TIP3   OH270750   6.755   0.142  15.095 -0.2786 -0.5103 -0.0693
16420TIP3    H170751   6.844   0.170  15.073 -1.2482  1.7639 -1.1545
16420TIP3    H270752   6.718   0.110  15.013 -1.3800  1.0872 -0.2079
16421TIP3   OH270753   2.778   0.311   3.241  0.0544  0.1421  0.0309
16421TIP3    H170754   2.778   0.394   3.289 -0.8369  0.7362 -0.9700
16421TIP3    H270755   2.707   0.321   3.177 -0.7585 -1.8065  0.6118
16422TIP3   OH270756   5.100   1.099  14.051  0.5121 -0.0688  0.2331
16422TIP3    H170757   5.054   1.085  13.968 -0.5126 -1.7312  1.0632
16422TIP3    H270758   5.111   1.012  14.088  2.3894  0.5079  1.1231
16423TIP3   OH270759   2.274   5.900  12.029  0.0705 -1.3855  0.0226
16423TIP3    H170760   2.247   5.914  11.939  1.8567 -1.5381 -0.5596
16423TIP3    H270761   2.278   5.805  12.039 -1.6788 -1.4017  0.7649
16424TIP3   OH270762   5.488   0.591   3.792  0.2885 -0.3193 -0.0306
16424TIP3    H170763   5.442   0.536   3.728  1.3930 -0.3547 -0.8224
16424TIP3    H270764   5.423   0.610   3.859 -0.5681 -1.2481 -0.5831
16425TIP3   OH270765   5.764   2.533   5.693 -0.1767  0.0638  0.4804
16425TIP3    H170766   5.776   2.624   5.721 -2.9665  0.7134 -0.2424
16425TIP3    H270767   5.760   2.538   5.598 -0.1358 -0.8582  0.4278
16426TIP3   OH270768   6.631   5.652  17.254 -0.2156  0.2769  0.3114
16426TIP3    H170769   6.723   5.627  17.237 -0.5636 -2.3105  1.8893
16426TIP3    H270770   6.620   5.638  17.348 -1.8609  1.9563  0.3851
16427TIP3   OH270771   3.318   5.662  11.550  0.0938  0.3172 -0.4031
16427TIP3    H170772   3.349   5.656  11.459  2.2680  0.3583  0.3183
16427TIP3    H270773   3.222   5.662  11.542  0.2225 -1.1506 -2.6104
16428TIP3   OH270774   1.115   1.893   1.807 -0.5599  0.5846 -0.2059
16428TIP3    H170775   1.125   1.914   1.714 -0.4614  1.9602  0.0979
16428TIP3    H270776   1.202   1.863   1.834 -0.6233  0.0517 -0.5818
16429TIP3   OH270777   3.034   0.497   3.871  0.3818  0.2669  0.0747
16429TIP3    H170778   3.087   0.529   3.945 -0.9402  0.4961  0.9471
16429TIP3    H270779   2.968   0.440   3.911  3.4568 -4.7487 -1.5852
16430TIP3   OH270780   3.852   3.006   0.626 -0.1456  0.1740 -0.4359
16430TIP3    H170781   3.947   2.999   0.617 -0.0217  1.3996 -0.1475
16430TIP3    H270782   3.838   3.084   0.679 -1.2670 -0.7043  0.6147
16431TIP3   OH270783   0.820   6.171   5.384 -0.1837  0.7373  0.1263
16431TIP3    H170784   0.870   6.223   5.447 -0.7971  1.3480  0.1095
16431TIP3    H270785   0.728   6.188   5.406 -0.3938  0.5096 -0.5694
16432TIP3   OH270786   4.191   4.241   2.810 -0.0749 -0.0684 -0.0055
16432TIP3    H170787   4.166   4.327   2.774  0.5485 -0.0737 -0.4553
16432TIP3    H270788   4.256   4.208   2.748 -0.1891 -0.7927  0.2675
16433TIP3   OH270789   0.616   3.758  12.319 -0.3124 -0.1430  0.2679
16433TIP3    H170790   0.643   3.813  12.246  1.0281 -0.5883  0.4192
16433TIP3    H270791   0.690   3.700  12.334 -0.1202  0.6885  2.7014
16434TIP3   OH270792   4.945   6.644  12.073  0.1356  0.5017 -0.1238
16434TIP3    H170793   4.985   6.703  12.009  0.0376 -0.1789 -0.8175
16434TIP3    H270794   4.948   6.558  12.031  0.1837  0.0306  0.8365
16435TIP3   OH270795   6.600   5.110  12.316 -0.9012 -0.1988  0.3807
16435TIP3    H170796   6.626   5.022  12.343  5.2813  1.2151 -0.2338
16435TIP3    H270797   6.563   5.149  12.395  1.3699 -1.6124  2.2229
16436TIP3   OH270798   5.437   2.897   1.429  0.0119  0.1425  0.0717
16436TIP3    H170799   5.469   2.984   1.403 -0.3302  0.4616  0.6840
16436TIP3    H270800   5.352   2.915   1.470  0.1824 -0.4277  0.6773
16437TIP3   OH270801   5.044   0.829  12.882  0.5427  0.3467 -0.2363
16437TIP3    H170802   5.089   0.831  12.966  3.2846 -1.9940 -1.5650
16437TIP3    H270803   5.061   0.915  12.843  0.2716  0.9972  1.0570
16438TIP3   OH270804   2.963   0.667   2.844  0.0230  0.0426 -0.7673
16438TIP3    H170805   3.056   0.686   2.834  0.3358 -1.4056 -0.7621
16438TIP3    H270806   2.925   0.749   2.876  1.0081  1.1400 -2.3380
16439TIP3   OH270807   4.070   3.561  15.381  0.0101 -0.5662 -0.5200
16439TIP3    H170808   4.052   3.647  15.344  1.5993  0.1500  0.3203
16439TIP3    H270809   3.998   3.506  15.350 -0.4367  0.7932 -1.9627
16440TIP3   OH270810   4.166   1.325  11.792  0.4519  0.4025  0.9903
16440TIP3    H170811   4.080   1.296  11.760  0.2184  0.2928  1.6824
16440TIP3    H270812   4.157   1.419  11.804  1.0966  0.7109 -0.9228
16441TIP3   OH270813   1.478   0.580   0.190  0.7351  0.4828  0.1771
16441TIP3    H170814   1.532   0.502   0.197  2.9101  2.0652  2.0638
16441TIP3    H270815   1.390   0.552   0.214  1.4223 -1.4697  0.4437
16442TIP3   OH270816   3.030   0.911  16.082 -0.7892  0.0837 -0.0803
16442TIP3    H170817   3.017   0.816  16.081  0.1039 -0.0367 -0.6717
16442TIP3    H270818   2.943   0.947  16.098 -0.7170 -0.9038  2.8105
16443TIP3   OH270819   2.451   6.714  11.550 -0.0413 -0.1684  0.0485
16443TIP3    H170820   2.399   6.780  11.504 -1.4834 -2.0438 -1.0790
16443TIP3    H270821   2.537   6.755  11.562  0.1795  0.6365 -3.7098
16444TIP3   OH270822   4.751   0.598  11.376  0.8803  0.1554  0.3549
16444TIP3    H170823   4.799   0.617  11.296  1.4861  1.7791  1.0811
16444TIP3    H270824   4.815   0.610  11.446 -0.3893  1.8061  1.2945
16445TIP3   OH270825   6.657   2.857   2.665  0.2105 -0.3910  0.4509
16445TIP3    H170826   6.633   2.804   2.741  0.2412 -1.9046 -0.5677
16445TIP3    H270827   6.681   2.793   2.598 -2.1259  0.8061 -1.6288
16446TIP3   OH270828   4.826   2.547   0.902 -0.0650 -0.3024 -0.1670
16446TIP3    H170829   4.844   2.558   0.996 -0.2835 -3.1347  0.2364
16446TIP3    H270830   4.731   2.551   0.895 -0.0079  0.7777 -0.4018
16447TIP3   OH270831   0.881   3.475  11.771  0.1901 -0.1537  0.0482
16447TIP3    H170832   0.874   3.528  11.691 -1.2503 -0.8851 -0.3265
16447TIP3    H270833   0.891   3.385  11.740  2.6487 -0.1385  0.6911
16448TIP3   OH270834   2.323   1.262   6.580  0.4807 -0.0521 -0.5744
16448TIP3    H170835   2.329   1.167   6.568  1.0076 -0.1548  0.4194
16448TIP3    H270836   2.404   1.296   6.544  1.1666 -0.1758  0.7951
16449TIP3   OH270837   1.462   2.066  12.491  0.1613 -0.5070 -0.1218
16449TIP3    H170838   1.490   1.975  12.497  0.9370 -0.2695 -0.0831
16449TIP3    H270839   1.534   2.116  12.530 -0.6961  0.0545  0.7772
16450TIP3   OH270840   1.165   0.351  16.513 -0.2941  0.3323 -0.1630
16450TIP3    H170841   1.195   0.368  16.423 -2.8673 -0.5051 -1.2057
16450TIP3    H270842   1.138   0.437  16.545 -0.6264  0.4273 -0.6822
16451TIP3   OH270843   0.380   4.278   5.076  0.5365  0.4120 -0.0731
16451TIP3    H170844   0.353   4.194   5.113 -2.6805  0.7926 -1.3657
16451TIP3    H270845   0.325   4.342   5.122 -0.8719  1.2423 -2.8288
16452TIP3   OH270846   2.778   6.738  11.794  0.0147  0.4011  0.2928
16452TIP3    H170847   2.859   6.788  11.801  1.1034 -0.8425 -2.4905
16452TIP3    H270848   2.741   6.765  11.709 -0.6043 -1.6923 -0.1301
16453TIP3   OH270849   1.640   3.221   5.190 -0.0343  0.2525 -0.5461
16453TIP3    H170850   1.679   3.203   5.276  2.3097  1.7805 -1.2437
16453TIP3    H270851   1.703   3.280   5.147 -0.9320 -0.8722 -3.5020
16454TIP3   OH270852   4.727   6.591   3.225  0.2783  0.3102  0.5663
16454TIP3    H170853   4.747   6.505   3.189  0.8128  0.5407  0.2952
16454TIP3    H270854   4.687   6.639   3.152  0.0481  0.3112  0.6950
16455TIP3   OH270855   1.401   3.300  16.414  0.4914 -0.5574  0.5493
16455TIP3    H170856   1.369   3.351  16.339  1.7550 -1.7935 -0.8530
16455TIP3    H270857   1.331   3.307  16.479 -0.7188  0.3588 -0.8215
16456TIP3   OH270858   3.345   5.959  12.511 -0.2033 -0.0514 -0.4747
16456TIP3    H170859   3.278   5.987  12.574  0.3434  0.0261  0.0787
16456TIP3    H270860   3.298   5.904  12.449 -0.7569 -0.1054 -0.0134
16457TIP3   OH270861   2.574   1.092  14.715 -0.1485  0.4996 -0.1760
16457TIP3    H170862   2.550   1.167  14.660  1.4032  1.0462 -0.1240
16457TIP3    H270863   2.553   1.016  14.661  0.9777  1.0253 -1.4002
16458TIP3   OH270864   3.899   5.437   5.171  0.2177 -0.1939  0.1004
16458TIP3    H170865   3.867   5.517   5.130  3.1465  0.9178 -0.1588
16458TIP3    H270866   3.975   5.412   5.118  0.6876 -1.8627  1.5192
16459TIP3   OH270867   3.209   4.526   3.754  0.3345  0.1438 -0.0843
16459TIP3    H170868   3.155   4.499   3.680 -0.1879  0.6727  0.0970
16459TIP3    H270869   3.206   4.452   3.815 -0.0214  0.0907 -0.1666
16460TIP3   OH270870   3.488   3.234   6.250 -0.2371  0.0271 -0.2858
16460TIP3    H170871   3.547   3.192   6.187  0.9026 -2.6162  2.4651
16460TIP3    H270872   3.543   3.299   6.294  0.1401 -1.1525  0.9948
16461TIP3   OH270873   1.147   3.122  16.895 -0.0054 -0.2245 -0.2547
16461TIP3    H170874   1.083   3.129  16.824  0.6669  0.1958 -0.8262
16461TIP3    H270875   1.201   3.047  16.871  0.7981  0.4737 -0.6680
16462TIP3   OH270876   4.166   0.347  12.592 -0.1652  0.2000 -0.1844
16462TIP3    H170877   4.080   0.313  12.617 -0.9868  1.5344 -1.1402
16462TIP3    H270878   4.169   0.435  12.630  0.3789  0.5367 -1.0005
16463TIP3   OH270879   6.572   1.308   4.921 -0.3801 -0.0620 -0.4882
16463TIP3    H170880   6.662   1.282   4.899 -0.1164  0.4879 -0.0704
16463TIP3    H270881   6.518   1.257   4.861  0.2944  0.8857 -1.9383
16464TIP3   OH270882   2.938   6.094   0.586 -0.4282  0.2591 -0.3305
16464TIP3    H170883   2.958   6.048   0.668 -0.9110 -0.1082 -0.4146
16464TIP3    H270884   2.933   6.186   0.611 -1.1319  0.0915  0.1602
16465TIP3   OH270885   3.702   6.658  13.782 -0.3404 -0.7180  0.2787
16465TIP3    H170886   3.789   6.629  13.755 -0.4021  0.8642 -1.8014
16465TIP3    H270887   3.656   6.674  13.699 -0.8058  3.5887  1.2540
16466TIP3   OH270888   3.048   4.500  11.841 -0.1044 -0.3827  0.7059
16466TIP3    H170889   3.036   4.572  11.779  2.2385 -0.8155 -0.3221
16466TIP3    H270890   3.143   4.490  11.847 -0.3593 -1.9207  2.5604
16467TIP3   OH270891   4.361   3.109  14.217  0.5143 -0.0259 -0.2802
16467TIP3    H170892   4.354   3.171  14.289  1.4513 -0.5907  0.3123
16467TIP3    H270893   4.270   3.093  14.190  0.3190  2.5863 -1.3213
16468TIP3   OH270894   1.502   0.958   4.486  0.2778  0.0204 -0.2276
16468TIP3    H170895   1.587   0.982   4.450  0.7405 -2.2610 -0.7393
16468TIP3    H270896   1.446   0.946   4.410 -0.0238 -0.2034  0.0294
16469TIP3   OH270897   2.236   4.100   0.512 -0.1601  0.2139 -0.1962
16469TIP3    H170898   2.218   4.185   0.473 -0.2345 -0.5635 -1.8911
16469TIP3    H270899   2.290   4.054   0.448 -2.0137 -1.8670 -0.3360
16470TIP3   OH270900   1.402   1.095   5.200 -0.3318  0.5271 -0.0032
16470TIP3    H170901   1.390   1.170   5.141  0.1576  0.3913 -0.2867
16470TIP3    H270902   1.457   1.129   5.270 -0.7263  0.6282  0.2580
16471TIP3   OH270903   2.528   3.418   2.840  0.1538 -0.4608  0.6973
16471TIP3    H170904   2.469   3.359   2.793 -0.2554  0.0123  0.6129
16471TIP3    H270905   2.513   3.399   2.933  0.6031 -1.0489  0.6512
16472TIP3   OH270906   6.324   0.645  12.646  0.0878 -0.4242 -0.1652
16472TIP3    H170907   6.307   0.739  12.640 -1.0024 -0.5350  1.0425
16472TIP3    H270908   6.338   0.617  12.555 -2.8799  0.2913 -0.8732
16473TIP3   OH270909   4.692   3.985  11.833 -0.1555 -0.1391  0.3636
16473TIP3    H170910   4.636   3.908  11.844  0.4204 -0.7606 -0.9153
16473TIP3    H270911   4.666   4.044  11.904 -0.5284 -1.5457  1.4071
16474TIP3   OH270912   1.503   6.311   0.866 -0.0477 -0.9092  0.9595
16474TIP3    H170913   1.456   6.262   0.934  0.6085 -0.4551  1.7502
16474TIP3    H270914   1.442   6.313   0.792 -0.5229 -1.9598  1.3035
16475TIP3   OH270915   0.033   4.042  16.545 -0.0284 -0.3268 -0.2558
16475TIP3    H170916   0.084   4.121  16.528  1.0321 -0.6189  1.4312
16475TIP3    H270917  -0.004   4.056  16.632  1.0094 -2.1173  0.4939
16476TIP3   OH270918   3.850   1.259   4.471  0.0992 -0.0712 -0.0718
16476TIP3    H170919   3.776   1.198   4.467 -0.7573  0.9053  0.5550
16476TIP3    H270920   3.851   1.300   4.384  0.6587 -0.9436 -0.4856
16477TIP3   OH270921   5.312   3.930   2.501 -0.0610  0.4408  0.7217
16477TIP3    H170922   5.234   3.954   2.552 -0.0316  1.8927  0.1028
16477TIP3    H270923   5.330   4.007   2.447  1.4089 -0.1371  0.3677
16478TIP3   OH270924   3.331   1.698  13.476 -0.0489 -0.0436 -0.0103
16478TIP3    H170925   3.336   1.676  13.383 -1.1909 -0.2298 -0.0360
16478TIP3    H270926   3.261   1.763  13.481  0.7111  0.7424  0.5836
16479TIP3   OH270927   2.468   0.966  12.853  0.1556 -0.8019  0.3541
16479TIP3    H170928   2.510   0.899  12.799 -1.4589 -0.8880 -0.8332
16479TIP3    H270929   2.452   1.039  12.794  1.1307  0.3268  1.4499
16480TIP3   OH270930   1.577   6.086   3.469 -0.4533 -0.0496  0.2449
16480TIP3    H170931   1.539   6.148   3.531 -1.6766  0.3700 -0.9060
16480TIP3    H270932   1.503   6.058   3.415  0.4888 -0.8811 -0.6281
16481TIP3   OH270933   0.808   3.755  12.043  0.0025  0.0585  0.2831
16481TIP3    H170934   0.865   3.793  11.977  1.7891  0.6698  2.1222
16481TIP3    H270935   0.750   3.826  12.069 -0.1607  0.0443 -0.0454
16482TIP3   OH270936   1.304   4.060  15.144  0.1034  0.8786 -0.1233
16482TIP3    H170937   1.241   4.021  15.083  0.1429 -0.2255  0.5159
16482TIP3    H270938   1.378   4.085  15.090 -0.3069  0.8768 -0.6846
16483TIP3   OH270939   3.015   0.715   0.365  0.4464 -0.2303  0.2211
16483TIP3    H170940   3.088   0.689   0.422 -0.0020 -1.4603  0.2588
16483TIP3    H270941   3.026   0.661   0.287 -0.1867 -0.1350  0.0655
16484TIP3   OH270942   5.693   2.379  16.328 -0.4822  0.2439 -0.1503
16484TIP3    H170943   5.695   2.309  16.263  1.0849 -0.7703  0.9184
16484TIP3    H270944   5.637   2.345  16.398  0.9596 -0.3554  0.7552
16485TIP3   OH270945   3.233   1.353  13.937 -0.0436 -0.0930 -0.4252
16485TIP3    H170946   3.177   1.302  13.996  2.3086 -1.9860  0.2437
16485TIP3    H270947   3.238   1.300  13.857  1.5989 -0.4293 -0.1055
16486TIP3   OH270948   3.104   4.334  13.080  0.0768 -0.8301  0.1372
16486TIP3    H170949   3.050   4.358  13.004  0.8644  0.3988 -0.0526
16486TIP3    H270950   3.120   4.240  13.069 -0.8451 -0.9202 -0.5540
16487TIP3   OH270951   1.071   5.741  11.372 -0.1130 -0.7603 -0.5455
16487TIP3    H170952   0.999   5.782  11.419  0.4846 -0.3023 -0.0197
16487TIP3    H270953   1.030   5.700  11.295 -0.8470 -0.0125 -0.5569
16488TIP3   OH270954   5.048   6.374   5.170  0.8268 -0.0780  0.2308
16488TIP3    H170955   5.026   6.281   5.162  0.1421  0.0563  0.5771
16488TIP3    H270956   4.978   6.411   5.223  1.8067  0.3642  1.2514
16489TIP3   OH270957   5.538   0.728  14.940  0.0381 -0.3475  0.6367
16489TIP3    H170958   5.501   0.813  14.914  1.0287 -0.4586 -1.2654
16489TIP3    H270959   5.601   0.748  15.009 -0.6454  0.3057  1.0760
16490TIP3   OH270960   0.718   2.122  15.975 -0.1003 -0.2499  0.1824
16490TIP3    H170961   0.750   2.163  16.055  0.8282 -0.2288 -0.1846
16490TIP3    H270962   0.650   2.181  15.944 -0.7534 -0.4770  1.1729
16491TIP3   OH270963   0.685   5.099   2.638 -0.6286  0.3413 -0.1108
16491TIP3    H170964   0.775   5.130   2.632 -0.3162 -0.6711 -0.7470
16491TIP3    H270965   0.637   5.149   2.572 -0.2146 -0.2082 -0.8373
16492TIP3   OH270966   4.220   6.140  11.899 -0.0947 -0.1167 -0.1239
16492TIP3    H170967   4.125   6.148  11.904  0.0043  0.5455  0.8728
16492TIP3    H270968   4.238   6.121  11.807 -1.2063 -0.5227 -0.2664
16493TIP3   OH270969   5.903   0.721  16.672  0.2005 -0.0191 -0.3987
16493TIP3    H170970   5.970   0.693  16.734 -0.2386  0.8473  0.4859
16493TIP3    H270971   5.911   0.816  16.669 -0.3509  0.0135 -1.0210
16494TIP3   OH270972   4.811   4.084  12.559  0.0341 -0.6861 -0.0614
16494TIP3    H170973   4.734   4.106  12.612  0.8753  0.9815  0.4995
16494TIP3    H270974   4.876   4.056  12.623  0.3002 -0.9068 -0.4319
16495TIP3   OH270975   3.372   4.768   2.909 -0.6530  0.0525 -0.0118
16495TIP3    H170976   3.420   4.801   2.984 -0.1748  2.5022 -1.3582
16495TIP3    H270977   3.440   4.745   2.845 -1.1811  1.3127 -1.0341
16496TIP3   OH270978   4.063   2.116  12.201  0.1748 -0.3799  0.3107
16496TIP3    H170979   4.138   2.065  12.173  0.3174  0.2591 -0.5269
16496TIP3    H270980   3.987   2.070  12.164  0.2508 -0.3739  0.1468
16497TIP3   OH270981   1.704   1.344  16.367  0.0508 -0.1869 -0.1491
16497TIP3    H170982   1.611   1.356  16.389 -0.0411  0.8375 -1.0338
16497TIP3    H270983   1.710   1.374  16.276  2.0028  3.6141  1.1252
16498TIP3   OH270984   1.877   6.748  13.176 -0.1072  0.1376 -0.4070
16498TIP3    H170985   1.862   6.687  13.248 -0.6922  0.3735 -0.3252
16498TIP3    H270986   1.957   6.716  13.134 -1.6518 -2.0919 -1.7846
16499TIP3   OH270987   1.235   1.346  13.288 -0.7253  0.0257 -0.0630
16499TIP3    H170988   1.281   1.419  13.329 -1.2235  0.1630  0.2468
16499TIP3    H270989   1.180   1.387  13.221 -1.7528  0.0359  0.7767
16500TIP3   OH270990   1.923   2.629  15.685 -0.1418  0.7054 -0.0458
16500TIP3    H170991   1.911   2.587  15.770  1.3710 -1.3385 -0.7985
16500TIP3    H270992   1.937   2.721  15.705 -0.0403  0.2775  1.9147
16501TIP3   OH270993   0.163   6.242   5.374  0.0609  0.3053  0.2563
16501TIP3    H170994   0.171   6.293   5.294  0.0707 -0.3261 -0.1463
16501TIP3    H270995   0.243   6.261   5.423 -0.2672  1.2344  0.4372
16502TIP3   OH270996   1.347   2.387  17.135  0.5304 -0.1750 -0.1764
16502TIP3    H170997   1.388   2.395  17.049  0.3144 -0.6417 -0.3279
16502TIP3    H270998   1.394   2.315  17.177  0.6859  0.1016  0.1237
16503TIP3   OH270999   3.668   1.573   4.868 -0.1000 -0.2885 -0.3294
16503TIP3    H171000   3.669   1.486   4.909 -0.2797  0.1271  0.5610
16503TIP3    H271001   3.669   1.555   4.774 -1.6768 -1.2846 -0.1725
16504TIP3   OH271002   6.029   6.596  14.355  0.5662 -0.0044 -0.0595
16504TIP3    H171003   5.959   6.659  14.372  0.1844 -0.2798 -0.6229
16504TIP3    H271004   6.105   6.651  14.336  0.8199  0.3144  1.7170
16505TIP3   OH271005   6.813   2.556  12.919  0.5522  0.5751  0.4936
16505TIP3    H171006   6.764   2.495  12.864  0.1894  1.6144 -0.3486
16505TIP3    H271007   6.836   2.505  12.997 -2.4987  0.2438  1.2527
16506TIP3   OH271008   1.837   6.208   0.381  0.4601  0.3518  0.1727
16506TIP3    H171009   1.925   6.223   0.347  0.7781  0.5930  1.0698
16506TIP3    H271010   1.825   6.277   0.446 -0.9957  1.2565 -1.0364
16507TIP3   OH271011   5.666   2.408   6.309  0.1202  0.0914  0.5114
16507TIP3    H171012   5.621   2.325   6.292  0.8606 -0.2724  0.3150
16507TIP3    H271013   5.752   2.382   6.344  0.2286  0.7764  0.7534
16508TIP3   OH271014   6.520   3.527   2.661 -0.4661 -0.5239 -0.0021
16508TIP3    H171015   6.588   3.588   2.692 -0.4683  0.1225 -1.2431
16508TIP3    H271016   6.503   3.554   2.571 -3.6906  0.5175  0.8399
16509TIP3   OH271017   6.355   6.558  13.312  0.3248 -0.2613  0.0851
16509TIP3    H171018   6.445   6.584  13.292  0.5998 -0.3404  1.1963
16509TIP3    H271019   6.306   6.579  13.232  1.0006  1.3765  0.0774
16510TIP3   OH271020   3.170   1.612  13.075  0.1494 -0.4874  0.3662
16510TIP3    H171021   3.182   1.588  13.167  0.0667 -0.4926  0.3753
16510TIP3    H271022   3.182   1.531  13.027 -1.6062 -0.8725  0.5186
16511TIP3   OH271023   5.540   6.306   2.638 -0.5606 -0.2030 -0.1289
16511TIP3    H171024   5.549   6.379   2.700 -0.2034 -1.1689  0.9749
16511TIP3    H271025   5.593   6.236   2.676 -0.4529 -0.8610 -1.4694
16512TIP3   OH271026   5.187   6.791  13.340 -0.1494 -0.4796  0.2790
16512TIP3    H171027   5.170   6.881  13.368 -1.6954 -0.3176 -1.1141
16512TIP3    H271028   5.224   6.799  13.252 -1.0628 -1.2257 -0.1857
16513TIP3   OH271029   0.987   6.248   5.029 -0.7259  1.2683 -0.0805
16513TIP3    H171030   1.033   6.273   5.109 -0.2617  0.2005 -0.0025
16513TIP3    H271031   1.056   6.212   4.973 -0.7755  3.3614 -1.5540
16514TIP3   OH271032   6.572   6.724   5.133  0.5638  0.0656 -0.2388
16514TIP3    H171033   6.640   6.742   5.198  0.7143  0.0236 -0.3840
16514TIP3    H271034   6.608   6.759   5.051  0.1916  0.5123 -0.2159
16515TIP3   OH271035   4.226   4.249   4.797 -0.4255  0.5516  0.2683
16515TIP3    H171036   4.152   4.193   4.772 -0.4655  0.6337  0.2011
16515TIP3    H271037   4.213   4.329   4.746 -1.8359  1.6721  2.3462
16516TIP3   OH271038   2.850   0.690  16.722  0.6596 -0.0758  0.3452
16516TIP3    H171039   2.812   0.638  16.650  1.4609  0.7510 -0.6844
16516TIP3    H271040   2.805   0.658  16.800 -1.3698  0.1051 -0.7124
16517TIP3   OH271041   3.465   2.618  13.174  0.4179  0.0920  0.9650
16517TIP3    H171042   3.518   2.601  13.096  1.8550 -0.9480  2.1280
16517TIP3    H271043   3.418   2.700  13.154  0.1596 -0.5673 -1.2689
16518TIP3   OH271044   5.535   2.244   5.941 -0.6680  0.5919 -0.4060
16518TIP3    H171045   5.443   2.266   5.924 -1.5284 -0.7213  2.2488
16518TIP3    H271046   5.541   2.241   6.036  2.3993  1.6001 -0.5314
16519TIP3   OH271047   5.906   5.806   3.364 -0.2645  0.4479  0.0054
16519TIP3    H171048   5.907   5.833   3.273  0.9176  3.3248  0.8154
16519TIP3    H271049   5.822   5.838   3.398  1.6516  4.4532  1.2774
16520TIP3   OH271050   4.941   1.164   1.635 -0.3873 -0.1627  0.0025
16520TIP3    H171051   4.892   1.091   1.673 -0.4625  0.2603  0.7287
16520TIP3    H271052   4.957   1.138   1.545  0.3869 -1.4684  0.5187
16521TIP3   OH271053   0.090   0.450  16.697  0.1062 -0.2201 -0.2286
16521TIP3    H171054   0.001   0.442  16.730 -0.0065  0.4423 -0.3707
16521TIP3    H271055   0.088   0.527  16.640  0.5081 -0.8436 -1.0945
16522TIP3   OH271056   0.674   1.788   3.067  0.1591 -0.2289  0.1294
16522TIP3    H171057   0.694   1.803   2.974  0.8013  0.5198  0.3827
16522TIP3    H271058   0.740   1.726   3.096 -0.1580 -0.6093  0.0406
16523TIP3   OH271059   3.522   2.622  14.381  0.0547  0.0711  0.8961
16523TIP3    H171060   3.612   2.626  14.347  0.3341 -1.0406  1.5017
16523TIP3    H271061   3.487   2.710  14.365  1.0639  0.3505  0.1554
16524TIP3   OH271062   2.175   2.846  11.430 -0.1203 -0.4703 -0.1713
16524TIP3    H171063   2.101   2.787  11.412 -0.1359 -0.3764 -0.4121
16524TIP3    H271064   2.171   2.860  11.524  0.6221 -1.8490  0.0881
16525TIP3   OH271065   1.569   3.280  15.890  0.3304 -0.2105 -0.0775
16525TIP3    H171066   1.641   3.245  15.838  0.9838 -0.6813  1.1224
16525TIP3    H271067   1.594   3.261  15.981 -1.8750 -1.4716  0.2864
16526TIP3   OH271068   3.089   5.830  12.082  0.0919  0.0376 -0.3864
16526TIP3    H171069   3.127   5.789  12.004  1.0537  0.1021  0.0352
16526TIP3    H271070   3.070   5.920  12.056 -0.0376 -0.0783 -0.6912
16527TIP3   OH271071   6.348   1.845   2.289 -0.2261 -0.6562 -0.1429
16527TIP3    H171072   6.291   1.922   2.285  0.7662  0.0628 -1.2007
16527TIP3    H271073   6.362   1.822   2.197  1.8446 -0.2884  0.0472
16528TIP3   OH271074   3.583   6.315   2.869  0.1428  0.1716  0.6514
16528TIP3    H171075   3.657   6.265   2.903 -0.0025 -0.7760 -0.4245
16528TIP3    H271076   3.505   6.266   2.897 -0.0080 -0.0252 -0.0903
16529TIP3   OH271077   3.714   0.689   5.598  0.3001 -0.3355  0.3420
16529TIP3    H171078   3.651   0.635   5.549  0.5608  0.6627 -1.1473
16529TIP3    H271079   3.660   0.744   5.654 -0.0688 -0.7423  0.3908
16530TIP3   OH271080   4.572   0.877   0.439 -0.0056  0.1602  0.2587
16530TIP3    H171081   4.592   0.790   0.404  0.6215 -0.1345  1.3217
16530TIP3    H271082   4.554   0.862   0.531 -0.3270  1.1050  0.3543
16531TIP3   OH271083   3.895   2.438   2.495 -0.4040  0.7477  0.3510
16531TIP3    H171084   3.938   2.353   2.480 -1.3626 -0.0496  1.9741
16531TIP3    H271085   3.937   2.472   2.574 -0.2656  1.6302 -0.1041
16532TIP3   OH271086   5.135   6.727  16.101 -0.3022  0.2290  0.2196
16532TIP3    H171087   5.099   6.801  16.149 -0.1653  0.7231 -0.4350
16532TIP3    H271088   5.070   6.708  16.034  0.3207  0.6900 -0.5341
16533TIP3   OH271089   1.179   5.580   5.028 -0.0523  0.0099 -0.2698
16533TIP3    H171090   1.219   5.664   5.049  0.5069 -0.3137 -0.0239
16533TIP3    H271091   1.126   5.597   4.951 -1.2367  0.9615  0.7417
16534TIP3   OH271092   4.797   1.076  15.150  0.1424 -1.0798  0.2780
16534TIP3    H171093   4.865   1.078  15.218 -0.0437 -0.4550  0.4533
16534TIP3    H271094   4.778   0.983  15.137 -0.0700 -1.1873  1.3236
16535TIP3   OH271095   2.643   1.706  14.319 -0.2968  0.1420 -0.1546
16535TIP3    H171096   2.626   1.656  14.238  0.5509  0.7823 -0.7376
16535TIP3    H271097   2.558   1.742  14.343 -0.7854 -1.0345 -0.1017
16536TIP3   OH271098   5.270   2.919   5.612  0.6188 -0.2177  0.5908
16536TIP3    H171099   5.265   2.996   5.556 -2.2404 -1.6207 -1.2191
16536TIP3    H271100   5.319   2.855   5.561  0.2542 -0.6299  0.7495
16537TIP3   OH271101   2.089   4.938  15.437 -0.3851 -0.4926 -0.1118
16537TIP3    H171102   1.996   4.918  15.452  0.2709 -2.0949  1.9476
16537TIP3    H271103   2.115   4.878  15.367 -0.1224 -2.2371  1.4654
16538TIP3   OH271104   1.233   5.423  14.638  0.1744  0.0986  0.3007
16538TIP3    H171105   1.192   5.484  14.699  0.7196  1.0441 -0.2651
16538TIP3    H271106   1.261   5.350  14.693 -2.1535 -0.5288  0.7160
16539TIP3   OH271107   6.486   5.271  14.743  0.1993  0.3746 -0.5867
16539TIP3    H171108   6.430   5.287  14.819 -2.2446 -1.6993 -1.9097
16539TIP3    H271109   6.554   5.213  14.775 -0.6270 -0.2140  0.1162
16540TIP3   OH271110   1.600   6.563   5.847 -0.1519  0.3304 -0.6749
16540TIP3    H171111   1.523   6.529   5.892  0.0437  0.6220 -0.1041
16540TIP3    H271112   1.654   6.486   5.829  0.1763  0.2960  0.3928
16541TIP3   OH271113   0.548   4.937   0.721 -0.2177  0.5506 -0.0983
16541TIP3    H171114   0.527   4.997   0.649 -1.6170  0.5662  0.3054
16541TIP3    H271115   0.462   4.908   0.753  0.3973  0.4792  1.5067
16542TIP3   OH271116   4.943   2.893   3.315 -0.2384 -0.5564  0.6015
16542TIP3    H171117   4.884   2.832   3.270  0.9873 -1.6385  0.4219
16542TIP3    H271118   4.943   2.972   3.261 -0.5919 -0.9876 -0.0324
16543TIP3   OH271119   2.921   2.676  12.035 -0.3694  0.1594 -0.3856
16543TIP3    H171120   2.849   2.705  11.980 -0.9043 -0.2798  0.0759
16543TIP3    H271121   2.975   2.754  12.047  0.8240 -0.1760 -3.1434
16544TIP3   OH271122   2.550   4.435  17.287 -0.4520 -0.3286  0.4401
16544TIP3    H171123   2.585   4.452  17.375 -1.6854 -1.0630  1.0949
16544TIP3    H271124   2.622   4.457  17.228  0.6868 -0.5984  1.6812
16545TIP3   OH271125   6.530   3.835  16.752  0.2065  0.3962 -0.3069
16545TIP3    H171126   6.525   3.781  16.673 -0.6156 -1.0360  0.6984
16545TIP3    H271127   6.449   3.816  16.799  0.6816  1.2433  0.8882
16546TIP3   OH271128   2.582   0.401   3.608 -0.2348  0.9550  1.0256
16546TIP3    H171129   2.493   0.370   3.624 -0.5357  0.3363 -1.5857
16546TIP3    H271130   2.629   0.381   3.688 -1.9395 -0.6405  1.6678
16547TIP3   OH271131   4.052   1.240   3.352 -0.0775 -0.3158  0.0257
16547TIP3    H171132   4.126   1.218   3.408 -0.3134  1.4210  1.0674
16547TIP3    H271133   4.000   1.302   3.403 -1.0471  0.2363 -1.5685
16548TIP3   OH271134   2.525   1.620  13.838  0.4760  0.0311  0.3337
16548TIP3    H171135   2.613   1.658  13.835  0.9044 -1.0300 -1.2566
16548TIP3    H271136   2.540   1.526  13.828 -0.9587  0.0285 -1.9462
16549TIP3   OH271137   2.540   3.510  13.437  0.2203  0.1092 -0.0906
16549TIP3    H171138   2.477   3.441  13.458 -1.1985  1.1872 -0.7374
16549TIP3    H271139   2.502   3.555  13.362  1.5835  1.0117 -0.2461
16550TIP3   OH271140   0.809   0.617   1.804  0.7966 -0.1843  0.3530
16550TIP3    H171141   0.727   0.613   1.754  0.5909  0.5800  0.6109
16550TIP3    H271142   0.865   0.677   1.754  1.6267 -1.5959 -0.4211
16551TIP3   OH271143   1.650   2.179  16.195 -0.6201 -0.0885  0.2169
16551TIP3    H171144   1.567   2.214  16.229 -0.3335 -0.4286  1.2809
16551TIP3    H271145   1.704   2.257  16.179  0.3388 -0.0267  3.4060
16552TIP3   OH271146   2.644   0.996   5.147  0.1681 -0.0718  0.3009
16552TIP3    H171147   2.598   0.947   5.215  0.9564 -2.4832 -0.8125
16552TIP3    H271148   2.730   1.014   5.185  0.1418 -0.2487  0.4466
16553TIP3   OH271149   5.806   3.623   3.797  0.0430 -0.1923  0.6486
16553TIP3    H171150   5.728   3.657   3.841 -0.2843 -1.3331  0.9543
16553TIP3    H271151   5.845   3.700   3.756 -3.7516 -0.1968 -3.4294
16554TIP3   OH271152   2.105   5.819   1.037 -0.1119 -0.0546 -0.2848
16554TIP3    H171153   2.121   5.902   1.083  1.2984 -0.2500 -0.4028
16554TIP3    H271154   2.120   5.751   1.102 -1.2357 -0.2258 -0.1980
16555TIP3   OH271155   5.441   0.857   2.798 -0.5963  0.9586  0.0608
16555TIP3    H171156   5.433   0.800   2.875 -0.4179  0.7436 -0.0792
16555TIP3    H271157   5.514   0.915   2.819  0.3019  0.0450 -0.4847
16556TIP3   OH271158   3.605   6.570  16.178 -0.1213 -0.1750  0.1454
16556TIP3    H171159   3.620   6.538  16.089 -2.7445 -0.6484 -0.1567
16556TIP3    H271160   3.661   6.647  16.186 -0.8082  0.6153 -2.3512
16557TIP3   OH271161   1.952   3.019   3.962 -0.5807 -0.4324 -0.0161
16557TIP3    H171162   1.939   2.960   4.036 -0.0478  0.3291  0.7019
16557TIP3    H271163   1.865   3.027   3.922 -0.7201 -1.4137  0.0934
16558TIP3   OH271164   2.607   4.932   3.043 -0.3507 -0.4121  0.2925
16558TIP3    H171165   2.545   4.927   2.970 -1.7276  1.4290  1.2944
16558TIP3    H271166   2.556   4.908   3.120  0.3699  0.3632  1.0250
16559TIP3   OH271167   0.271   5.003   6.531  0.4060  0.2431 -0.4242
16559TIP3    H171168   0.183   4.968   6.514  0.0845  1.4761 -1.3817
16559TIP3    H271169   0.266   5.094   6.503  1.9441  0.3844 -0.2725
16560TIP3   OH271170   6.364   4.866  13.901 -0.0086  0.3840  0.5982
16560TIP3    H171171   6.394   4.866  13.992  1.1937 -0.6325  0.2233
16560TIP3    H271172   6.432   4.913  13.853  1.1847 -2.1207 -0.2931
16561TIP3   OH271173   5.994   1.514   5.556  0.3011 -0.3306  0.0571
16561TIP3    H171174   5.899   1.499   5.558  0.1305  0.7634  1.5599
16561TIP3    H271175   6.018   1.523   5.648  1.5471  1.2600 -0.4059
16562TIP3   OH271176   1.902   0.418   3.260 -0.0671  0.1766  0.2633
16562TIP3    H171177   1.972   0.405   3.325 -0.9289  0.0412  1.1777
16562TIP3    H271178   1.944   0.399   3.176  0.4823 -1.9112  0.9780
16563TIP3   OH271179   4.758   5.790   5.827  0.5748 -0.3345  0.1706
16563TIP3    H171180   4.803   5.752   5.752 -2.5517 -2.0093 -0.9122
16563TIP3    H271181   4.728   5.715   5.878 -2.3148  0.6818  0.0542
16564TIP3   OH271182   1.196   3.282   5.773 -0.0384 -0.1052  0.6879
16564TIP3    H171183   1.241   3.279   5.689 -1.3686  0.6315 -0.0766
16564TIP3    H271184   1.208   3.371   5.805  1.3342 -0.6622  1.7962
16565TIP3   OH271185   4.390   6.148  11.142  0.2856  0.2169 -0.1259
16565TIP3    H171186   4.434   6.185  11.065  1.1436 -0.4892  0.0228
16565TIP3    H271187   4.357   6.063  11.112  2.1218 -0.8382  0.7519
16566TIP3   OH271188   1.428   4.118   2.272 -0.4106 -0.8379 -0.5246
16566TIP3    H171189   1.500   4.118   2.209 -0.4243 -0.3515 -0.5438
16566TIP3    H271190   1.356   4.160   2.225 -0.1291  0.4147  0.1435
16567TIP3   OH271191   2.851   0.907  14.910  0.1763 -0.2500 -0.0464
16567TIP3    H171192   2.896   0.991  14.904  0.7593 -0.4927  0.9497
16567TIP3    H271193   2.852   0.873  14.820  1.8763 -0.1946 -0.0648
16568TIP3   OH271194   5.497   5.113   4.260 -0.4273 -0.7712 -0.0311
16568TIP3    H171195   5.554   5.170   4.208 -0.3541 -0.1162  0.7489
16568TIP3    H271196   5.408   5.139   4.235 -0.4136 -2.2293 -1.7185
16569TIP3   OH271197   0.326   0.057   3.377  0.5070  0.3977  0.0474
16569TIP3    H171198   0.318   0.104   3.460 -0.0326 -0.1858  0.3330
16569TIP3    H271199   0.326  -0.035   3.402 -1.5008  0.1610 -0.7460
16570TIP3   OH271200   0.868   5.351  16.364  0.2695 -0.4098 -0.1342
16570TIP3    H171201   0.849   5.311  16.449  0.2046  0.7198  0.3909
16570TIP3    H271202   0.856   5.445  16.379  0.9601 -0.1470 -1.2111
16571TIP3   OH271203   6.233   6.576  13.548  0.0852 -0.2765  0.0477
16571TIP3    H171204   6.189   6.660  13.541  0.5123 -0.0962 -0.5712
16571TIP3    H271205   6.276   6.564  13.462  0.8611 -0.6416  0.4782
16572TIP3   OH271206   5.371   4.025   0.776  0.1517  0.0821 -0.2444
16572TIP3    H171207   5.423   3.947   0.795  0.5263  0.2631 -0.5309
16572TIP3    H271208   5.292   3.991   0.732 -0.4153 -0.2787  1.0312
16573TIP3   OH271209   4.082   6.510   5.620 -0.1335 -0.1747 -0.4592
16573TIP3    H171210   3.998   6.554   5.631  0.7544  1.7972 -1.2700
16573TIP3    H271211   4.088   6.451   5.695 -3.0003 -1.6688 -1.3134
16574TIP3   OH271212   2.801   3.482   3.947  0.1317 -0.1783  0.0283
16574TIP3    H171213   2.718   3.479   3.995  1.4920  1.3774  2.5909
16574TIP3    H271214   2.862   3.431   4.000  1.8117  2.0611  0.3597
16575TIP3   OH271215   4.508   6.247  11.358 -0.1766 -0.3347  0.0971
16575TIP3    H171216   4.601   6.225  11.358 -0.1192 -0.1223 -0.5730
16575TIP3    H271217   4.469   6.188  11.294 -0.9630 -2.2085  2.2687
16576TIP3   OH271218   1.038   4.889  16.273 -0.4547 -0.0323 -0.1344
16576TIP3    H171219   1.032   4.895  16.368 -1.0007  1.7835 -0.2645
16576TIP3    H271220   1.015   4.798  16.253  1.3881 -0.8955  1.5748
16577TIP3   OH271221   0.172   6.435  12.402  0.3535  0.1577 -0.4821
16577TIP3    H171222   0.124   6.517  12.409  0.5748  0.2263  0.3538
16577TIP3    H271223   0.171   6.414  12.309  0.2655  1.0895 -0.6963
16578TIP3   OH271224   4.654   4.018   6.308  0.3388 -0.6926  0.9365
16578TIP3    H171225   4.661   4.113   6.316  0.3072 -0.5998 -0.0293
16578TIP3    H271226   4.742   3.989   6.286  0.7939 -1.1178  3.2267
16579TIP3   OH271227   1.348   3.304   1.123 -0.3079  0.6949 -0.0836
16579TIP3    H171228   1.406   3.379   1.135  1.2674 -0.2909 -1.3521
16579TIP3    H271229   1.381   3.237   1.183  0.2972 -0.0991 -1.2858
16580TIP3   OH271230   6.557   2.689  16.849  0.0777 -0.2887 -0.2630
16580TIP3    H171231   6.534   2.658  16.762 -0.9880  0.6970 -0.3467
16580TIP3    H271232   6.560   2.610  16.903 -0.0397 -0.8121 -1.0163
16581TIP3   OH271233   6.621   1.322  15.029 -0.2443  0.0268 -0.7208
16581TIP3    H171234   6.633   1.228  15.024  1.4974  0.1877  0.0383
16581TIP3    H271235   6.554   1.342  14.963 -0.4719 -1.6956 -1.0170
16582TIP3   OH271236   0.577   0.672   0.860  0.0195  0.3039 -0.2226
16582TIP3    H171237   0.575   0.712   0.772  0.3890 -0.1063 -0.4168
16582TIP3    H271238   0.608   0.583   0.845 -2.3464 -0.6054  0.0069
16583TIP3   OH271239   2.134   5.184   2.651 -0.0191 -0.2735 -0.3722
16583TIP3    H171240   2.101   5.189   2.741 -0.8740 -1.3511 -0.6231
16583TIP3    H271241   2.190   5.106   2.650  2.1855  1.2397 -0.0839
16584TIP3   OH271242   6.309   3.884   1.037 -0.4181  0.6090 -0.5703
16584TIP3    H171243   6.361   3.820   0.989 -0.6922 -0.2109  0.2167
16584TIP3    H271244   6.353   3.967   1.021  0.3369  0.1280 -1.0385
16585TIP3   OH271245   0.583   4.220  17.016 -0.0464 -0.7638 -0.0599
16585TIP3    H171246   0.616   4.195  17.102  0.8579 -1.4640 -0.6052
16585TIP3    H271247   0.488   4.211  17.024  0.0956 -1.8378  0.5519
16586TIP3   OH271248   2.581   5.093  12.224  0.4746 -0.4165 -0.3758
16586TIP3    H171249   2.574   5.177  12.271 -1.6450 -0.5152 -0.4446
16586TIP3    H271250   2.593   5.028  12.293 -1.4172 -0.4245 -0.0298
16587TIP3   OH271251   5.428   6.732  12.546  0.0004  0.0091  0.2769
16587TIP3    H171252   5.499   6.789  12.518  0.1818  0.4692  1.6208
16587TIP3    H271253   5.349   6.784  12.537 -0.0557 -0.1788 -0.3145
16588TIP3   OH271254   6.603   3.058  13.349 -0.4134  0.1058 -0.1726
16588TIP3    H171255   6.533   3.107  13.306  0.4214  0.5076 -1.0868
16588TIP3    H271256   6.662   3.126  13.383 -0.0347 -0.2451 -0.1318
16589TIP3   OH271257   5.082   3.940   5.762  0.8863  0.0804  0.3457
16589TIP3    H171258   5.133   4.009   5.804  0.5930  0.0560  0.7347
16589TIP3    H271259   5.146   3.872   5.742  0.9591 -0.0687  1.0853
16590TIP3   OH271260   1.149   3.902   0.137 -0.3180 -1.0354  0.2996
16590TIP3    H171261   1.069   3.865   0.174 -1.1245  0.8857  0.5534
16590TIP3    H271262   1.192   3.945   0.211  0.7481 -1.6798  0.0700
16591TIP3   OH271263   5.246   6.762   2.959  0.2386  0.4255 -0.1487
16591TIP3    H171264   5.239   6.785   2.867  0.4373  2.0115  0.2249
16591TIP3    H271265   5.170   6.707   2.976 -0.2179  0.7759 -1.0629
16592TIP3   OH271266   6.726   2.282   1.651  0.0022 -0.6531  0.1739
16592TIP3    H171267   6.764   2.208   1.699 -0.1135 -1.1932 -0.5666
16592TIP3    H271268   6.702   2.246   1.566  1.9437  0.7601 -1.0066
16593TIP3   OH271269   6.387   4.327   0.149  0.1859  0.1954  0.4362
16593TIP3    H171270   6.378   4.238   0.182 -2.9168  0.3294  0.0499
16593TIP3    H271271   6.459   4.364   0.200  1.4704 -2.4683  0.6652
16594TIP3   OH271272   4.336   1.590  15.386  0.0179 -0.5714  0.0582
16594TIP3    H171273   4.328   1.672  15.434 -0.7702 -0.2492 -0.6265
16594TIP3    H271274   4.271   1.532  15.425  1.8841 -1.5268  1.8500
16595TIP3   OH271275   4.674   2.289  14.646  0.4217  0.2728 -0.6177
16595TIP3    H171276   4.747   2.333  14.603  1.1468  0.2517  0.5927
16595TIP3    H271277   4.660   2.338  14.727  0.4952 -1.0058  0.1838
16596TIP3   OH271278   1.868   5.741   1.400 -0.3519  0.2427  0.0535
16596TIP3    H171279   1.886   5.810   1.337 -0.2308 -1.6709 -2.0483
16596TIP3    H271280   1.804   5.780   1.460  0.8103  2.6537 -0.2046
16597TIP3   OH271281   6.545   1.572   4.871  0.0517  0.8299  0.8406
16597TIP3    H171282   6.547   1.478   4.890 -0.2977  0.7025  0.2315
16597TIP3    H271283   6.579   1.580   4.782  1.0428  1.3765  1.2580
16598TIP3   OH271284   0.629   5.612  13.929 -0.3141  0.4783  0.1217
16598TIP3    H171285   0.711   5.661  13.936  0.9838 -1.5730 -0.6325
16598TIP3    H271286   0.644   5.549  13.859 -1.5771 -1.7426  1.8005
16599TIP3   OH271287   1.754   3.409   5.597  0.2356  0.2407  0.0624
16599TIP3    H171288   1.728   3.466   5.524  1.9319  1.2031  0.1863
16599TIP3    H271289   1.719   3.453   5.675  0.3439  0.3858  0.0300
16600TIP3   OH271290   4.692   3.003  14.425 -0.3228  0.3965 -0.0509
16600TIP3    H171291   4.654   2.941  14.362 -0.6552  0.7770 -0.2230
16600TIP3    H271292   4.783   2.974  14.434 -0.4078  0.0384 -0.3321
16601TIP3   OH271293   4.719   3.194  13.564 -0.9103 -0.4702  0.8317
16601TIP3    H171294   4.641   3.174  13.616 -2.0503  1.2606 -0.1304
16601TIP3    H271295   4.684   3.225  13.480  0.7934  1.0219  0.6398
16602TIP3   OH271296   5.398   0.140  12.754 -0.5919 -0.2741 -0.0320
16602TIP3    H171297   5.452   0.072  12.793 -0.1740  0.2387  0.2830
16602TIP3    H271298   5.407   0.215  12.812  0.2206  0.5712 -1.2241
16603TIP3   OH271299   1.828   4.696   3.336 -0.0557 -0.2280  0.0078
16603TIP3    H171300   1.869   4.683   3.422  0.9063 -0.3962 -0.4613
16603TIP3    H271301   1.808   4.789   3.333  1.5523  0.1218 -0.2850
16604TIP3   OH271302   1.749   4.448  15.867  0.3807  0.1881  0.5942
16604TIP3    H171303   1.835   4.424  15.902  0.8520  1.0811  0.0747
16604TIP3    H271304   1.686   4.407  15.926  1.1600 -2.1330 -0.1323
16605TIP3   OH271305   4.230   0.523   2.350 -0.3615  0.2092 -0.6372
16605TIP3    H171306   4.185   0.572   2.282 -1.5882 -0.2737 -0.1772
16605TIP3    H271307   4.214   0.573   2.430  0.2985  0.2758 -0.5395
16606TIP3   OH271308   0.345   4.457   1.611 -0.0268  0.6419  0.5788
16606TIP3    H171309   0.328   4.477   1.519 -2.6552 -0.3968  0.7872
16606TIP3    H271310   0.385   4.370   1.610 -0.7590  0.2963  0.4303
16607TIP3   OH271311   1.666   6.451  13.329  0.1165  0.3566  0.0629
16607TIP3    H171312   1.702   6.501  13.403  1.3041  0.4242 -0.5532
16607TIP3    H271313   1.640   6.367  13.367  0.1761  0.6066  0.6684
16608TIP3   OH271314   5.087   5.596  12.143 -0.4983  0.0943 -0.3053
16608TIP3    H171315   5.028   5.624  12.073  0.6452  1.3929 -0.7650
16608TIP3    H271316   5.079   5.663  12.210  0.0931  0.0278 -0.1635
16609TIP3   OH271317   3.729   6.506  13.458  0.4809 -0.3283  0.1162
16609TIP3    H171318   3.779   6.476  13.382 -0.0084 -1.3573  0.1891
16609TIP3    H271319   3.792   6.554  13.511  1.0164 -0.2851 -0.5544
16610TIP3   OH271320   5.658   6.223  14.640  0.1893  0.2151 -0.0555
16610TIP3    H171321   5.666   6.174  14.722 -2.0310 -0.1834 -0.0474
16610TIP3    H271322   5.657   6.315  14.666  1.1432  0.1520  0.2121
16611TIP3   OH271323   5.246   0.513  12.782 -0.1898 -0.5310  0.2641
16611TIP3    H171324   5.234   0.507  12.687  1.2136  0.8648 -0.0246
16611TIP3    H271325   5.336   0.484  12.797  0.5396  1.8578  0.8213
16612TIP3   OH271326   5.657   4.136   4.129 -0.4315  0.2039  0.0068
16612TIP3    H171327   5.563   4.149   4.140 -0.2972  0.2795  1.0600
16612TIP3    H271328   5.687   4.099   4.211  0.4171 -0.0944 -0.4264
16613TIP3   OH271329   2.564   3.741  15.122  0.0369  0.1197  1.3157
16613TIP3    H171330   2.489   3.763  15.177 -0.3520  0.7576  0.5259
16613TIP3    H271331   2.588   3.823  15.079 -1.7726 -1.0568 -2.0890
16614TIP3   OH271332   4.027   5.785  17.237  0.4740 -0.1287  0.5013
16614TIP3    H171333   4.002   5.873  17.207 -1.1932 -0.6106  0.4059
16614TIP3    H271334   3.984   5.777  17.323 -0.5239 -1.3587 -0.0990
16615TIP3   OH271335   2.485   1.684  16.669  0.1836 -0.4089  0.4823
16615TIP3    H171336   2.488   1.751  16.601 -0.8642  0.1117  0.9281
16615TIP3    H271337   2.481   1.734  16.751 -0.0874 -1.0194  0.8398
16616TIP3   OH271338   6.228   1.255   4.285 -0.7300  0.0596  0.1645
16616TIP3    H171339   6.313   1.296   4.303 -0.3065 -1.2008  1.1375
16616TIP3    H271340   6.196   1.299   4.207  1.0671  0.1872 -0.5156
16617TIP3   OH271341   2.488   5.888  16.099  0.4278  0.4540  0.5864
16617TIP3    H171342   2.513   5.976  16.128  0.5965  0.1235  1.4822
16617TIP3    H271343   2.562   5.833  16.124 -0.8039 -0.3994  2.5307
16618TIP3   OH271344   0.274   4.522  12.918  0.3782  0.7637 -0.7562
16618TIP3    H171345   0.304   4.434  12.944 -0.0230  0.4984 -1.1819
16618TIP3    H271346   0.354   4.574  12.915  0.5323  0.5886  0.1769
16619TIP3   OH271347   0.396   0.413  11.314 -0.2409  0.4665  0.5472
16619TIP3    H171348   0.473   0.365  11.283  0.0832  1.3587 -0.0620
16619TIP3    H271349   0.322   0.360  11.287  0.1422 -0.2000  0.7851
16620TIP3   OH271350   1.973   1.319  17.267  0.1535  0.1532  0.3312
16620TIP3    H171351   2.068   1.327  17.271  0.3101 -1.0417 -0.5755
16620TIP3    H271352   1.954   1.237  17.313 -0.5612  1.1068  1.7433
16621TIP3   OH271353   5.452   4.584  10.687  0.4889 -0.2522  0.0647
16621TIP3    H171354   5.497   4.668  10.694  1.1329 -0.6580  0.8829
16621TIP3    H271355   5.494   4.528  10.753  2.0786 -2.1627 -2.5161
16622TIP3   OH271356   0.079   4.431   2.121 -0.2387  0.1307  0.2989
16622TIP3    H171357   0.061   4.484   2.198  1.1737  1.8762 -0.5435
16622TIP3    H271358   0.137   4.362   2.152 -0.7676  0.0141  1.0579
16623TIP3   OH271359   5.139   1.031   4.455 -0.2757  0.5802 -0.3479
16623TIP3    H171360   5.221   0.986   4.472 -0.7692  0.3066  1.4137
16623TIP3    H271361   5.142   1.109   4.511 -1.5836  0.1088  0.4129
16624TIP3   OH271362   0.474   3.684  15.750  0.1880  0.2181  0.3332
16624TIP3    H171363   0.539   3.627  15.790 -0.3297 -1.3965 -1.0628
16624TIP3    H271364   0.524   3.757  15.714  1.1198 -0.5661  0.0394
16625TIP3   OH271365   0.367   2.711   0.009 -0.6342 -0.2592  0.0946
16625TIP3    H171366   0.394   2.799   0.032  0.1127 -0.0457 -1.4813
16625TIP3    H271367   0.325   2.677   0.087  1.6753  0.4480  1.7052
16626TIP3   OH271368   0.844   5.116   0.021  0.2453  0.0883  0.0761
16626TIP3    H171369   0.805   5.127   0.108  0.1972 -1.0341  0.2086
16626TIP3    H271370   0.806   5.187  -0.032 -1.4386 -0.5464  0.3963
16627TIP3   OH271371   0.430   5.172  12.344  0.9564 -0.4520  0.6703
16627TIP3    H171372   0.394   5.084  12.359 -1.5446  0.4003 -0.0246
16627TIP3    H271373   0.516   5.170  12.385  0.3873 -2.8184  1.8485
16628TIP3   OH271374   5.660   5.413   5.227  0.3503  0.4891  0.1731
16628TIP3    H171375   5.637   5.468   5.302 -0.0364 -1.8494  1.8271
16628TIP3    H271376   5.580   5.408   5.175 -0.8703 -1.8158  2.1861
16629TIP3   OH271377   3.793   4.415   1.760  0.2357 -0.4253 -0.3988
16629TIP3    H171378   3.703   4.399   1.788  0.4623  0.7950  1.0427
16629TIP3    H271379   3.791   4.400   1.665 -1.7581  0.8092 -0.5781
16630TIP3   OH271380   4.072   3.435   3.339 -0.6674  0.3856 -0.4279
16630TIP3    H171381   4.145   3.373   3.346  0.4127  1.7870  1.2255
16630TIP3    H271382   4.114   3.516   3.309 -1.5037  1.2751  0.7922
16631TIP3   OH271383   5.628   4.582  12.840  0.4342 -0.7593  0.4778
16631TIP3    H171384   5.580   4.530  12.905 -1.0140 -1.4559 -1.1138
16631TIP3    H271385   5.613   4.672  12.867 -0.8355 -1.0110  0.6553
16632TIP3   OH271386   3.359   4.589   0.375 -0.4709  0.9369 -0.2494
16632TIP3    H171387   3.341   4.546   0.459 -0.5765  2.2025  0.3990
16632TIP3    H271388   3.434   4.542   0.339 -0.1507  0.6517  0.7712
16633TIP3   OH271389   1.233   4.530  11.377  0.1699  0.4099  0.7676
16633TIP3    H171390   1.278   4.614  11.368 -2.1344  1.5006 -1.1917
16633TIP3    H271391   1.283   4.471  11.320  0.9092  0.8127  0.9847
16634TIP3   OH271392   2.198   1.813  12.575  0.3658  0.2666 -0.1319
16634TIP3    H171393   2.115   1.771  12.599  0.5407  0.4373  0.8020
16634TIP3    H271394   2.194   1.899  12.616  0.4384  0.7887 -1.2086
16635TIP3   OH271395   4.967   1.110  11.325 -0.0508  0.7820 -0.0790
16635TIP3    H171396   4.899   1.046  11.346  1.0397 -1.0574 -1.9739
16635TIP3    H271397   4.928   1.195  11.348 -2.4982 -0.3329  0.0572
16636TIP3   OH271398   0.491   2.104  16.968 -0.3593  0.4092  0.2664
16636TIP3    H171399   0.503   2.195  16.942  1.4269  0.6999  2.0630
16636TIP3    H271400   0.487   2.056  16.885  2.6041  1.6476 -0.6500
16637TIP3   OH271401   5.862   3.729   2.878 -1.0746  0.0355 -0.2516
16637TIP3    H171402   5.809   3.748   2.800 -0.0699  1.3436 -0.6500
16637TIP3    H271403   5.911   3.810   2.893  0.2921 -0.9150  0.5068
16638TIP3   OH271404   4.553   5.454  11.865 -0.2017 -0.4667 -0.2489
16638TIP3    H171405   4.480   5.393  11.872  0.0628 -0.9134 -1.2623
16638TIP3    H271406   4.534   5.505  11.786  0.0761  0.1001  0.0451
16639TIP3   OH271407   3.821   2.823   6.572 -0.2706  0.0223  0.1581
16639TIP3    H171408   3.798   2.734   6.598  0.7346 -0.5563 -0.8705
16639TIP3    H271409   3.741   2.874   6.586 -2.0202 -1.7960 -2.7987
16640TIP3   OH271410   4.938   5.580  16.407 -0.1932  0.3432 -0.1789
16640TIP3    H171411   4.984   5.610  16.329  1.1835  0.2082  0.5601
16640TIP3    H271412   4.915   5.489  16.389  2.3946 -0.5079  0.5338
16641TIP3   OH271413   5.635   1.382   3.369  0.1295  0.7532 -0.3109
16641TIP3    H171414   5.712   1.414   3.415  0.9047 -1.8894  0.2800
16641TIP3    H271415   5.661   1.380   3.277 -0.0687  2.1713 -0.4088
16642TIP3   OH271416   5.933   2.760  12.714  0.3966  0.0939 -0.0632
16642TIP3    H171417   5.838   2.757  12.721  0.6519 -0.8448  3.6707
16642TIP3    H271418   5.955   2.854  12.716 -0.4555  0.3652 -2.0358
16643TIP3   OH271419   1.607   5.260   1.961  0.0237  0.8506 -0.2449
16643TIP3    H171420   1.656   5.342   1.975  1.4171 -0.1647  1.0754
16643TIP3    H271421   1.672   5.201   1.922  0.3923 -1.0700  3.1488
16644TIP3   OH271422   6.762   6.287  14.197 -0.0517  0.2597 -0.0028
16644TIP3    H171423   6.806   6.371  14.185 -1.0943  1.0536  1.5914
16644TIP3    H271424   6.833   6.223  14.200  1.0010  1.4560  2.0067
16645TIP3   OH271425   1.310   1.849  14.115 -0.1976 -0.4558 -0.3603
16645TIP3    H171426   1.355   1.843  14.199 -1.4054  1.1087  0.4446
16645TIP3    H271427   1.364   1.908  14.063 -1.5193  1.8986  0.8131
16646TIP3   OH271428   0.434   1.196   6.008 -0.7352 -0.9586  0.5800
16646TIP3    H171429   0.454   1.288   5.993  2.4725 -1.9050 -1.3145
16646TIP3    H271430   0.428   1.189   6.104  0.2249  0.9563  0.8059
16647TIP3   OH271431   3.915   0.678   0.746 -0.3614  0.2787 -0.5922
16647TIP3    H171432   3.979   0.737   0.707 -0.9508 -0.6462 -3.1014
16647TIP3    H271433   3.966   0.602   0.774 -0.1263  0.2988 -0.9633
16648TIP3   OH271434   2.654   1.675   0.033 -0.7224 -0.6372 -0.9639
16648TIP3    H171435   2.580   1.689  -0.027 -1.8566 -1.4047  0.2254
16648TIP3    H271436   2.613   1.667   0.120  0.6539 -2.2090 -0.4400
16649TIP3   OH271437   1.615   3.261  16.188 -0.4171 -0.2451 -0.5390
16649TIP3    H171438   1.650   3.172  16.194  1.0988  0.2899 -1.1812
16649TIP3    H271439   1.549   3.265  16.258 -0.8581 -2.0091 -0.8127
16650TIP3   OH271440   1.103   3.292  11.925  0.4425  0.5267  0.4224
16650TIP3    H171441   1.047   3.367  11.946 -1.8278 -1.5942  2.3271
16650TIP3    H271442   1.191   3.319  11.950 -0.6130  1.9233  2.7644
16651TIP3   OH271443   4.639   2.480   0.281 -0.5406  0.0882 -0.3706
16651TIP3    H171444   4.629   2.570   0.313  0.9331 -0.0084  0.4053
16651TIP3    H271445   4.733   2.471   0.265 -0.7287 -1.2208 -0.7502
16652TIP3   OH271446   5.597   1.137  12.595  0.0717 -0.0358  0.2252
16652TIP3    H171447   5.571   1.077  12.526  0.9530  0.4458 -0.5318
16652TIP3    H271448   5.692   1.147  12.585  0.2241 -0.0312  1.5574
16653TIP3   OH271449   4.342   0.966   2.937 -0.1763 -0.2224  0.4085
16653TIP3    H171450   4.432   0.983   2.908  0.5393 -0.1783  2.5265
16653TIP3    H271451   4.291   0.959   2.856  2.1629 -2.6208 -0.9320
16654TIP3   OH271452   5.022   3.756  16.080 -0.7536 -0.0386 -0.7391
16654TIP3    H171453   4.962   3.818  16.038  1.2038  0.9170 -2.2148
16654TIP3    H271454   5.069   3.808  16.146  0.2256 -0.1468 -1.3333
16655TIP3   OH271455   0.396   6.751  13.500  0.2026  0.0262  0.0850
16655TIP3    H171456   0.453   6.696  13.554  0.2493  0.3752  0.4003
16655TIP3    H271457   0.332   6.786  13.562 -0.5802 -0.6499 -0.3288
16656TIP3   OH271458   5.271   2.639  14.635 -0.5110  0.0353  0.2016
16656TIP3    H171459   5.209   2.710  14.652 -0.4494  0.0431  0.4074
16656TIP3    H271460   5.334   2.646  14.707  1.8528  2.3412 -1.9596
16657TIP3   OH271461   3.621   6.627   4.669  0.4037 -0.3670 -0.4634
16657TIP3    H171462   3.581   6.662   4.589  1.2347  0.9929 -0.3088
16657TIP3    H271463   3.692   6.688   4.688 -0.8312  0.3103  2.2635
16658TIP3   OH271464   6.776   0.696  14.693  0.3759 -0.5857  0.4095
16658TIP3    H171465   6.719   0.754  14.744  0.0119 -0.9481  0.4192
16658TIP3    H271466   6.837   0.755  14.648  2.2665 -0.3813  3.1150
16659TIP3   OH271467   2.294   3.042   1.285  0.2102 -0.2136 -0.2499
16659TIP3    H171468   2.375   3.062   1.238 -0.4539 -1.8920 -2.1845
16659TIP3    H271469   2.229   3.099   1.245  0.3048  0.7393  0.9316
16660TIP3   OH271470   1.892   5.238  15.557 -0.3379 -0.7784 -0.3875
16660TIP3    H171471   1.874   5.312  15.615 -0.1620 -0.9248 -0.1408
16660TIP3    H271472   1.807   5.197  15.541 -0.3190 -1.0479  0.1940
16661TIP3   OH271473   5.689   6.295  12.844  0.0502  0.2242  0.0410
16661TIP3    H171474   5.727   6.218  12.886  0.3811 -0.6071 -1.7278
16661TIP3    H271475   5.697   6.277  12.750 -0.4836  2.1176 -0.3833
16662TIP3   OH271476   0.215   4.982   2.351  0.3524  0.5099 -0.8742
16662TIP3    H171477   0.213   4.930   2.431 -2.2022  1.2658 -0.4255
16662TIP3    H271478   0.300   5.027   2.354  0.4608  0.1963  1.1739
16663TIP3   OH271479   2.691   5.541  16.909 -0.5356 -0.1487 -0.3799
16663TIP3    H171480   2.625   5.522  16.842 -0.8215  2.1938 -0.7824
16663TIP3    H271481   2.772   5.553  16.861 -0.8448  2.0735 -0.4059
16664TIP3   OH271482   5.283   1.732  15.841  0.0475  0.4958  0.0680
16664TIP3    H171483   5.205   1.686  15.813 -0.3218  1.5562 -0.6708
16664TIP3    H271484   5.349   1.712  15.774 -0.3890  1.7863 -0.7669
16665TIP3   OH271485   3.193   6.721   5.609  0.5251  0.0658  0.1678
16665TIP3    H171486   3.117   6.663   5.612  1.1557 -0.7414  0.4775
16665TIP3    H271487   3.177   6.777   5.533 -1.4178  1.3276  1.4475
16666TIP3   OH271488   2.919   2.639  11.661  0.3385 -0.1594 -0.0218
16666TIP3    H171489   2.837   2.608  11.699 -1.0326  1.5225 -1.5272
16666TIP3    H271490   2.951   2.705  11.723 -0.1356  0.1237 -0.0716
16667TIP3   OH271491   0.832   4.264  13.702 -0.1692  0.4293 -0.6500
16667TIP3    H171492   0.927   4.255  13.710 -0.0921  1.3093 -0.6161
16667TIP3    H271493   0.815   4.255  13.608 -0.1238 -0.3799 -0.5860
16668TIP3   OH271494   1.332   4.137   1.117 -0.0441  0.3957  0.0381
16668TIP3    H171495   1.330   4.226   1.081 -0.5603 -0.6619 -2.6698
16668TIP3    H271496   1.380   4.086   1.053  0.4987 -1.2547  1.7132
16669TIP3   OH271497   6.706   4.698  16.638 -0.8605 -0.5083 -0.0378
16669TIP3    H171498   6.753   4.615  16.623  0.3929  0.3369 -0.8518
16669TIP3    H271499   6.639   4.700  16.569 -2.4754 -1.9661  1.4422
16670TIP3   OH271500   5.153   5.944   3.212  0.5178  0.2715  0.4371
16670TIP3    H171501   5.151   5.991   3.296 -0.8292 -0.4460  0.8263
16670TIP3    H271502   5.209   5.869   3.228  0.4862  0.2861  0.6169
16671TIP3   OH271503   4.177   6.661  14.145 -0.3873  0.3363 -0.0268
16671TIP3    H171504   4.175   6.746  14.189 -2.6393 -0.1247  0.8162
16671TIP3    H271505   4.122   6.673  14.067  0.5258  0.0662 -0.7303
16672TIP3   OH271506   5.308   2.745   1.860 -1.1612 -0.7017  0.1149
16672TIP3    H171507   5.390   2.702   1.837  0.2006  1.2979  1.0373
16672TIP3    H271508   5.268   2.766   1.775  1.1927  1.7303 -0.4935
16673TIP3   OH271509   3.332   5.712  10.973  0.2527  0.0247  0.2820
16673TIP3    H171510   3.251   5.761  10.960  0.7487  1.0371  0.9573
16673TIP3    H271511   3.303   5.623  10.994 -0.6828  0.4746  0.9058
16674TIP3   OH271512   3.505   0.823  17.148  0.5160 -0.7256  0.2260
16674TIP3    H171513   3.493   0.869  17.065 -1.3677 -0.6552  0.5181
16674TIP3    H271514   3.566   0.878  17.198  0.7812 -0.2084 -0.6590
16675TIP3   OH271515   4.324   6.016  17.051  0.3156  0.9670 -0.1591
16675TIP3    H171516   4.303   5.993  16.960  0.7598  0.5449 -0.1605
16675TIP3    H271517   4.419   6.003  17.057  0.0717 -0.5664  0.7930
16676TIP3   OH271518   6.338   1.577  11.317 -0.8738  0.6123  0.0910
16676TIP3    H171519   6.322   1.555  11.225  1.3491  2.5703 -0.8224
16676TIP3    H271520   6.432   1.590  11.323 -0.8977 -0.1097  2.8176
16677TIP3   OH271521   5.848   1.869   2.890  0.3033 -0.1465  0.1557
16677TIP3    H171522   5.917   1.860   2.824  0.3027 -0.4982  0.2012
16677TIP3    H271523   5.772   1.900   2.840  0.6279  0.6927  0.1881
16678TIP3   OH271524   3.753   4.575   2.146 -0.4389 -0.3463  0.1888
16678TIP3    H171525   3.775   4.616   2.062  0.1836 -2.2281 -0.5938
16678TIP3    H271526   3.663   4.545   2.135 -0.5936  0.0235  0.4480
16679TIP3   OH271527   2.393   0.131  13.638 -0.0547 -0.2369  0.9580
16679TIP3    H171528   2.399   0.082  13.720  0.1859  0.0383  1.1054
16679TIP3    H271529   2.395   0.064  13.570 -0.6388 -0.4910  1.1911
16680TIP3   OH271530   2.984   5.968  14.689 -0.0740 -0.5414  0.3579
16680TIP3    H171531   3.013   5.956  14.779 -0.5969  0.9440  0.7299
16680TIP3    H271532   2.990   6.062  14.674  3.3093 -1.0776 -2.2594
16681TIP3   OH271533   3.169   1.324   2.369 -0.0233 -0.1098 -0.2723
16681TIP3    H171534   3.179   1.400   2.312  0.3389  1.5571  1.9812
16681TIP3    H271535   3.135   1.359   2.451  0.3987 -2.3522  0.9018
16682TIP3   OH271536   3.427   0.940  15.157 -0.2763 -0.5023 -0.0106
16682TIP3    H171537   3.373   0.967  15.231  1.1283 -0.7583  1.1295
16682TIP3    H271538   3.503   0.997  15.160 -0.4652 -0.1546 -1.5961
16683TIP3   OH271539   5.840   6.598   3.811  0.5589 -0.3170 -0.4713
16683TIP3    H171540   5.899   6.548   3.867  0.6228 -0.2203 -0.4518
16683TIP3    H271541   5.765   6.540   3.797  1.9794 -1.6359 -2.9456
16684TIP3   OH271542   3.928   5.471   2.830 -0.0872 -0.1747 -0.6544
16684TIP3    H171543   3.917   5.546   2.889 -1.1229 -0.4464 -0.4985
16684TIP3    H271544   3.939   5.396   2.888  0.6355 -0.1931 -0.8116
16685TIP3   OH271545   3.007   5.694   4.504  0.1033  0.2101 -0.2094
16685TIP3    H171546   3.063   5.752   4.452 -0.6898  0.1364 -1.1594
16685TIP3    H271547   2.960   5.642   4.439 -1.0793  0.2822  0.5756
16686TIP3   OH271548   4.467   5.241  11.652  0.0114 -0.6550  0.4109
16686TIP3    H171549   4.410   5.164  11.645 -0.5249 -0.3046  0.8030
16686TIP3    H271550   4.501   5.254  11.564 -1.6155 -0.0515 -0.1563
16687TIP3   OH271551   2.139   3.390   6.278 -0.1210 -0.7753  0.4542
16687TIP3    H171552   2.107   3.367   6.191  0.2386  0.1061  0.0851
16687TIP3    H271553   2.226   3.349   6.283 -0.6885 -1.9496  0.9114
16688TIP3   OH271554   4.528   1.963  11.808 -1.1634  0.1925 -0.5230
16688TIP3    H171555   4.505   1.890  11.866  1.4269 -1.3633 -1.3906
16688TIP3    H271556   4.621   1.979  11.826 -1.6951  3.3698 -0.2906
16689TIP3   OH271557   4.272   1.116   0.893 -0.8835 -0.1604 -0.6646
16689TIP3    H171558   4.197   1.057   0.892  0.4778 -1.9533 -0.0207
16689TIP3    H271559   4.344   1.064   0.857  0.4475  0.9749  0.3110
16690TIP3   OH271560   0.512   3.363   3.823  0.1396 -0.3435 -0.4735
16690TIP3    H171561   0.435   3.323   3.863 -0.1873 -0.1420 -0.8954
16690TIP3    H271562   0.539   3.301   3.755  1.4063 -1.2545  0.8384
16691TIP3   OH271563   4.497   3.948  13.640 -0.5917  0.3717 -0.3486
16691TIP3    H171564   4.427   3.899  13.596 -0.1592 -0.6297  0.0657
16691TIP3    H271565   4.562   3.882  13.663 -1.2591  0.6853  2.6572
16692TIP3   OH271566   2.583   0.945   6.397  0.2726 -0.1040 -0.6204
16692TIP3    H171567   2.625   1.006   6.336  1.3056  0.2248  0.4021
16692TIP3    H271568   2.608   0.977   6.484  0.0651 -1.4540 -0.0515
16693TIP3   OH271569   0.967   6.685  16.489  0.1828  0.1230  0.4005
16693TIP3    H171570   1.029   6.755  16.467  1.8025 -1.5033 -0.3940
16693TIP3    H271571   1.023   6.614  16.519 -1.4687 -0.7096  1.5296
16694TIP3   OH271572   6.520   4.533   2.479  0.3241  0.1765  0.2657
16694TIP3    H171573   6.569   4.484   2.413 -3.0411  0.0128 -2.2560
16694TIP3    H271574   6.485   4.608   2.432 -0.7919  0.9639  2.2845
16695TIP3   OH271575   5.506   5.866  16.626 -0.3490 -0.2655 -0.4094
16695TIP3    H171576   5.436   5.801  16.623 -0.2554 -0.6033  2.8814
16695TIP3    H271577   5.466   5.947  16.593 -2.3056 -0.4613  1.4102
16696TIP3   OH271578   1.465   4.627  16.652 -0.0110  0.4127  0.1330
16696TIP3    H171579   1.507   4.579  16.723 -0.7052  1.0545  0.9846
16696TIP3    H271580   1.499   4.587  16.572 -0.0926 -1.0665  0.8303
16697TIP3   OH271581   6.427   0.681   2.089  0.1650  0.1005 -0.0940
16697TIP3    H171582   6.469   0.766   2.104 -1.3376  0.7971  0.1717
16697TIP3    H271583   6.371   0.695   2.013 -0.6820 -0.4331  0.4225
16698TIP3   OH271584   5.721   6.081   1.317  0.1034 -0.0006 -0.0123
16698TIP3    H171585   5.698   6.010   1.375  0.4424 -0.5014 -0.4864
16698TIP3    H271586   5.643   6.138   1.316 -1.0220 -1.5318 -1.3896
16699TIP3   OH271587   0.774   5.559  15.794  0.3609 -0.1010  0.5986
16699TIP3    H171588   0.774   5.647  15.758  0.8798 -0.0614  0.6902
16699TIP3    H271589   0.758   5.572  15.888  0.1698 -0.1238  0.5706
16700TIP3   OH271590   2.007   2.273  15.219 -0.2044  0.2030 -1.1052
16700TIP3    H171591   2.036   2.339  15.155  0.2159  0.1442 -0.9744
16700TIP3    H271592   2.075   2.205  15.216  0.9401  1.2163  0.9666
16701TIP3   OH271593   4.743   0.726  17.031 -0.1516  0.6361 -0.5647
16701TIP3    H171594   4.791   0.702  17.111 -1.0886 -3.7895 -1.1610
16701TIP3    H271595   4.811   0.732  16.964  0.1160 -1.3137 -0.5203
16702TIP3   OH271596   2.982   1.682   0.416 -0.7253 -0.2331 -0.1400
16702TIP3    H171597   3.039   1.605   0.421 -1.4995 -0.8676 -0.8947
16702TIP3    H271598   2.978   1.715   0.506  2.0059  0.6997 -0.3269
16703TIP3   OH271599   3.253   5.210  16.422  0.5840 -0.5947  0.0824
16703TIP3    H171600   3.284   5.274  16.358  0.1548  0.2037  0.6661
16703TIP3    H271601   3.329   5.153  16.437  0.4123 -1.3502 -1.8031
16704TIP3   OH271602   5.607   4.805  16.745  0.0517  0.6121 -0.4978
16704TIP3    H171603   5.597   4.715  16.777 -1.6610  0.7459 -0.6308
16704TIP3    H271604   5.702   4.819  16.742  0.2930 -0.5839  1.2003
16705TIP3   OH271605   2.046   6.644  12.265 -0.2809  0.6966  0.3817
16705TIP3    H171606   1.974   6.601  12.219  1.2135 -0.9255 -0.5351
16705TIP3    H271607   2.039   6.613  12.355 -0.2512 -0.1161  0.1094
16706TIP3   OH271608   6.160   0.352  15.684 -0.6268  0.3317  0.1492
16706TIP3    H171609   6.248   0.313  15.684 -1.3579 -1.3818 -1.1715
16706TIP3    H271610   6.170   0.435  15.638  0.3066  0.1611  0.0427
16707TIP3   OH271611   5.161   4.623   1.347  0.2254 -0.0284 -0.0735
16707TIP3    H171612   5.100   4.666   1.407  0.8835  1.3684 -0.3684
16707TIP3    H271613   5.247   4.658   1.370  0.5244  0.3208 -1.6255
16708TIP3   OH271614   3.336   6.163  16.504 -0.5330  0.1995  0.8788
16708TIP3    H171615   3.370   6.252  16.505 -2.4728  0.9737  4.3453
16708TIP3    H271616   3.251   6.170  16.462 -0.4025 -0.1646  0.5451
16709TIP3   OH271617   5.733   4.506  13.877 -0.4419 -0.4582  0.5831
16709TIP3    H171618   5.680   4.579  13.908 -3.0557 -1.1378 -2.0586
16709TIP3    H271619   5.725   4.440  13.945 -2.5936 -0.3434  0.4644
16710TIP3   OH271620   1.601   2.477  12.547 -0.5269 -0.3619  0.2336
16710TIP3    H171621   1.513   2.469  12.583 -1.3103  0.1008 -1.5621
16710TIP3    H271622   1.588   2.489  12.453  1.5580 -2.6968 -0.3823
16711TIP3   OH271623   6.165   0.749  16.101 -0.4071 -0.3067 -0.5150
16711TIP3    H171624   6.094   0.689  16.081  0.9369 -2.1790  0.2256
16711TIP3    H271625   6.237   0.723  16.044  0.3027  0.4012  0.0333
16712TIP3   OH271626   0.864   0.490   3.660  0.4231  0.7509 -0.5744
16712TIP3    H171627   0.883   0.397   3.648 -0.7618  0.2731  1.0879
16712TIP3    H271628   0.823   0.518   3.579 -1.8655 -0.8975 -0.0131
16713TIP3   OH271629   5.427   4.168  15.016 -0.5224  0.4003  0.3360
16713TIP3    H171630   5.425   4.072  15.019  0.3772  0.3809  0.5986
16713TIP3    H271631   5.501   4.191  15.072 -0.5923  1.2401  0.0771
16714TIP3   OH271632   3.274   2.091  14.060 -0.1121 -0.0778  0.0838
16714TIP3    H171633   3.260   2.057  14.149 -0.2774 -0.1952  0.0124
16714TIP3    H271634   3.367   2.075  14.043  0.0266  0.3599  0.4126
16715TIP3   OH271635   0.860   2.255  15.404  1.1018 -0.9589 -0.3313
16715TIP3    H171636   0.857   2.207  15.322 -0.3757 -0.2974 -0.6778
16715TIP3    H271637   0.946   2.297  15.404  0.5211  0.2887 -2.2755
16716TIP3   OH271638   4.501   2.267   5.578 -0.0787 -0.0706 -0.0428
16716TIP3    H171639   4.451   2.198   5.535  0.0833 -1.2976  1.6899
16716TIP3    H271640   4.446   2.345   5.569 -0.8047 -0.6784 -0.9848
16717TIP3   OH271641   3.248   2.801  10.513  0.1089 -0.1317  0.1406
16717TIP3    H171642   3.288   2.719  10.484  0.1477  0.0552 -0.3375
16717TIP3    H271643   3.182   2.821  10.446  0.1789  0.2882  0.1941
16718TIP3   OH271644   4.745   5.554  12.465 -0.5272  0.3202 -0.7834
16718TIP3    H171645   4.753   5.646  12.491 -1.1619 -0.2440  1.5064
16718TIP3    H271646   4.810   5.544  12.395  0.8978  2.0485  0.2345
16719TIP3   OH271647   1.257   3.190  13.050  0.1354 -0.2915  0.1610
16719TIP3    H171648   1.347   3.208  13.077  0.7341 -2.8052 -0.0181
16719TIP3    H271649   1.223   3.275  13.022  2.2441  0.8096  0.8159
16720TIP3   OH271650   2.436   1.634   5.054  0.4794 -0.1347 -0.3282
16720TIP3    H171651   2.406   1.725   5.046 -0.4590 -0.1681  2.2740
16720TIP3    H271652   2.530   1.638   5.037  1.0448  1.8763  2.7170
16721TIP3   OH271653   1.239   6.379  13.691  0.3128  0.6513 -0.0631
16721TIP3    H171654   1.258   6.288  13.669  0.3423  0.5742  0.2797
16721TIP3    H271655   1.220   6.377  13.785 -1.3275  0.7276 -0.3723
16722TIP3   OH271656   1.258   5.683  12.056 -0.5925  0.1327  0.2218
16722TIP3    H171657   1.322   5.742  12.097  0.9122 -0.6659 -0.9131
16722TIP3    H271658   1.196   5.742  12.013 -1.4116  0.9469  2.4172
16723TIP3   OH271659   6.151   2.933  14.425 -0.0991  0.3325  0.0331
16723TIP3    H171660   6.201   2.964  14.350 -0.7293  0.1918 -0.4438
16723TIP3    H271661   6.184   2.985  14.499 -0.0141  1.0009 -0.4749
16724TIP3   OH271662   1.247   1.749  12.391  0.2304  0.0665 -0.4524
16724TIP3    H171663   1.277   1.671  12.438 -0.4901  0.6036  0.9179
16724TIP3    H271664   1.152   1.742  12.392  0.1807  0.6464 -0.8782
16725TIP3   OH271665   0.289   1.871  14.552  0.3574 -0.2207  0.2615
16725TIP3    H171666   0.257   1.802  14.610  2.3231 -0.9778  0.4840
16725TIP3    H271667   0.356   1.917  14.603 -0.6204  1.5870 -0.0402
16726TIP3   OH271668   2.269   1.866   0.646 -0.5990  0.2276 -0.7646
16726TIP3    H171669   2.321   1.829   0.575  0.8785  1.2292 -0.2279
16726TIP3    H271670   2.318   1.844   0.725 -1.8608 -0.2504 -0.1029
16727TIP3   OH271671   0.596   0.946   3.011  0.1564  0.2355 -1.1136
16727TIP3    H171672   0.511   0.903   3.023  0.4439 -0.6167 -2.0753
16727TIP3    H271673   0.643   0.931   3.093 -0.1778 -0.3118 -1.0235
16728TIP3   OH271674   4.656   1.005   4.015  1.3242 -0.5091 -0.3487
16728TIP3    H171675   4.708   0.990   3.936  1.1590 -0.6839 -0.4257
16728TIP3    H271676   4.644   1.100   4.018 -0.5985 -0.6664 -1.7919
16729TIP3   OH271677   3.800   2.215  11.900  0.3187 -0.5299  0.4686
16729TIP3    H171678   3.803   2.307  11.926  4.0368 -0.4980  0.1177
16729TIP3    H271679   3.743   2.174  11.965 -1.3708  1.9759  0.6422
16730TIP3   OH271680   6.679   4.803   4.331 -0.1443 -0.4856 -0.6418
16730TIP3    H171681   6.688   4.821   4.424 -1.8084 -0.8836 -0.3858
16730TIP3    H271682   6.767   4.813   4.296  0.3828  0.2725  0.8647
16731TIP3   OH271683   2.772   6.623  11.367 -0.4976 -0.3943 -0.3461
16731TIP3    H171684   2.801   6.630  11.276 -0.6631  1.1245 -0.2905
16731TIP3    H271685   2.777   6.529  11.386  1.5703 -0.4967 -1.2500
16732TIP3   OH271686   2.916   4.517   5.735  0.0263 -0.3284  0.5050
16732TIP3    H171687   2.833   4.470   5.730 -0.3609  0.4372 -0.6611
16732TIP3    H271688   2.896   4.595   5.788 -0.5518  0.9024 -1.4557
16733TIP3   OH271689   0.683   3.096  15.311  0.1721 -0.3226 -0.1434
16733TIP3    H171690   0.751   3.158  15.335 -0.2371  0.5379 -1.1832
16733TIP3    H271691   0.605   3.150  15.299 -0.0531 -0.9745 -1.5947
16734TIP3   OH271692   6.065   0.289  16.875  0.1824  0.0837  0.4657
16734TIP3    H171693   6.099   0.203  16.902 -0.1473  0.0126  0.6513
16734TIP3    H271694   6.104   0.351  16.937 -0.3230 -0.0427  0.9165
16735TIP3   OH271695   1.391   5.893  12.142  0.5577  0.2127 -0.2026
16735TIP3    H171696   1.410   5.986  12.128 -2.0904  0.6883 -0.8991
16735TIP3    H271697   1.353   5.890  12.230  0.8375 -0.2539 -0.0975
16736TIP3   OH271698   2.461   1.641  15.143  0.3668 -0.1883 -0.2753
16736TIP3    H171699   2.527   1.611  15.206  0.4186  0.4391 -0.0255
16736TIP3    H271700   2.468   1.736  15.145 -0.9025 -0.0985  0.1319
16737TIP3   OH271701   2.158   6.188   3.771 -0.4002 -0.1904  0.2735
16737TIP3    H171702   2.113   6.271   3.758 -1.4432 -0.8725 -0.5957
16737TIP3    H271703   2.087   6.124   3.785  0.3828 -0.9415  0.9018
16738TIP3   OH271704   3.256   2.541  13.382  0.4117 -0.1046 -0.2154
16738TIP3    H171705   3.326   2.558  13.319  0.6780 -1.3650 -0.2775
16738TIP3    H271706   3.182   2.511  13.328 -0.1935  1.2080 -0.1491
16739TIP3   OH271707   4.180   3.882   1.948  0.0363 -0.2808  0.4438
16739TIP3    H171708   4.148   3.965   1.983  0.3726 -0.1444  0.4303
16739TIP3    H271709   4.222   3.839   2.023 -0.4076 -0.5779  0.5271
16740TIP3   OH271710   5.224   5.325  16.815  0.1353  1.2004 -0.3541
16740TIP3    H171711   5.285   5.387  16.854  0.8820  0.1599  0.1463
16740TIP3    H271712   5.168   5.298  16.887  0.7335  0.2068 -0.2492
16741TIP3   OH271713   3.958   5.419  13.902  0.1353 -0.2935  0.2124
16741TIP3    H171714   3.976   5.416  13.808  0.6648 -1.6201  0.3354
16741TIP3    H271715   4.044   5.411  13.943  0.0422  1.5415  0.8273
16742TIP3   OH271716   3.400   4.367   0.154  0.3888 -0.2546 -0.1802
16742TIP3    H171717   3.375   4.410   0.072 -1.0965  1.4116  1.1043
16742TIP3    H271718   3.320   4.367   0.206  0.6106 -3.7392  0.2464
16743TIP3   OH271719   2.970   3.739  11.143  0.2575  0.1199  0.7323
16743TIP3    H171720   3.057   3.779  11.149 -1.0981  3.1937  0.8875
16743TIP3    H271721   2.971   3.690  11.061  2.6704 -1.3759  1.5799
16744TIP3   OH271722   4.762   2.232  15.894 -0.0252  0.8768 -0.3914
16744TIP3    H171723   4.830   2.285  15.933 -0.6398  1.8275 -0.5975
16744TIP3    H271724   4.688   2.239  15.954 -0.3164  0.7671 -0.7307
16745TIP3   OH271725   3.320   5.130   5.778 -0.4438  0.2942  0.5431
16745TIP3    H171726   3.314   5.046   5.822  1.6629  0.0233  0.3466
16745TIP3    H271727   3.335   5.108   5.686 -2.1916  0.8777  0.0957
16746TIP3   OH271728   0.810   3.450  10.254  0.1380 -0.1470  0.1844
16746TIP3    H171729   0.735   3.510  10.253  0.3889  0.1546 -0.6084
16746TIP3    H271730   0.881   3.501  10.293 -0.9119 -1.4717  4.0546
16747TIP3   OH271731   4.181   5.470   2.673 -0.2332 -0.4345  0.3168
16747TIP3    H171732   4.231   5.475   2.755 -0.7233  0.8606  0.5518
16747TIP3    H271733   4.090   5.468   2.700 -0.3780 -0.7298 -0.1824
16748TIP3   OH271734   0.139   0.759   6.386 -0.3393  0.8365 -0.0266
16748TIP3    H171735   0.130   0.673   6.426  2.0960  0.9431  0.8565
16748TIP3    H271736   0.148   0.819   6.460  1.4640  1.3887 -0.6629
16749TIP3   OH271737   2.997   4.118  15.616 -0.0052 -0.8178  0.9180
16749TIP3    H171738   3.012   4.196  15.669 -0.4630 -0.1597  0.0796
16749TIP3    H271739   2.903   4.116  15.600  0.1879 -0.7314 -0.2985
16750TIP3   OH271740   1.827   3.267   2.492 -0.1850 -0.7797 -0.5202
16750TIP3    H171741   1.737   3.291   2.470 -0.4958 -3.0549 -1.9043
16750TIP3    H271742   1.878   3.297   2.417  0.0975 -0.3125 -0.1452
16751TIP3   OH271743   3.342   4.102  13.556  0.5446 -0.8497  0.2105
16751TIP3    H171744   3.431   4.129  13.578  0.6991  0.5973 -2.0611
16751TIP3    H271745   3.349   4.010  13.532  1.3741 -0.8121  0.3210
16752TIP3   OH271746   5.086   6.252   2.377 -0.6047 -0.1180 -0.4199
16752TIP3    H171747   4.993   6.271   2.382 -1.0942 -1.2827 -3.5591
16752TIP3    H271748   5.090   6.162   2.344  1.6441 -0.9521  1.9239
16753TIP3   OH271749   2.882   1.245  15.164 -0.0619  0.1607  0.0039
16753TIP3    H171750   2.951   1.296  15.206 -1.1666  1.6942  0.0090
16753TIP3    H271751   2.919   1.217  15.081  0.4496  1.2775 -0.1537
16754TIP3   OH271752   2.520   4.117   2.791  0.5786 -0.1424 -0.0264
16754TIP3    H171753   2.469   4.167   2.854 -0.4422  0.8467 -1.6285
16754TIP3    H271754   2.489   4.146   2.705  1.6659 -1.7612 -0.9973
16755TIP3   OH271755   0.853   4.287  10.989 -0.8080  0.1750  0.0279
16755TIP3    H171756   0.769   4.313  11.025  0.5343  2.1419  1.8657
16755TIP3    H271757   0.910   4.362  11.003  0.8408 -0.4737 -2.7227
16756TIP3   OH271758   2.666   0.599   0.398  0.2144 -0.6949 -0.5858
16756TIP3    H171759   2.580   0.573   0.433  0.7628 -1.0370  0.5229
16756TIP3    H271760   2.713   0.632   0.474  1.9639 -2.8289 -0.7145
16757TIP3   OH271761   4.545   6.145  12.640 -0.0908  0.2169 -0.2563
16757TIP3    H171762   4.575   6.236  12.640 -0.9144  0.4862 -0.0607
16757TIP3    H271763   4.604   6.101  12.578  0.8472  0.6982  0.2744
16758TIP3   OH271764   2.054   5.418  15.846  0.7886  0.2491  0.5018
16758TIP3    H171765   1.985   5.480  15.869  0.7207  0.8227 -1.1295
16758TIP3    H271766   2.052   5.352  15.915  0.4255  1.7153  1.9160
16759TIP3   OH271767   4.738   0.492  13.889  0.7905 -0.2255  0.0074
16759TIP3    H171768   4.740   0.420  13.826  0.7693 -0.8304  0.6808
16759TIP3    H271769   4.828   0.497  13.923  0.4156 -1.0540  1.1801
16760TIP3   OH271770   3.932   1.107   1.105 -0.5933  0.1231  0.0135
16760TIP3    H171771   3.959   1.196   1.085  0.5715 -0.1486  0.3340
16760TIP3    H271772   3.912   1.107   1.198  3.0273 -0.7983  0.8698
16761TIP3   OH271773   5.411   4.398  13.956 -0.5321 -0.4462 -0.3900
16761TIP3    H171774   5.472   4.342  14.004  0.5143  0.7484 -0.2798
16761TIP3    H271775   5.327   4.388  14.002  0.4608  0.7071  1.7473
16762TIP3   OH271776   4.358   6.377  16.756  0.6743 -0.1333 -0.2259
16762TIP3    H171777   4.284   6.319  16.773  0.7834  0.1801  1.4083
16762TIP3    H271778   4.434   6.319  16.755  0.8513  0.0022  1.9608
16763TIP3   OH271779   2.093   3.912   2.097 -0.1949  0.1976 -0.2002
16763TIP3    H171780   1.998   3.920   2.087 -0.4903 -1.8269  0.7569
16763TIP3    H271781   2.122   3.866   2.019 -0.1921 -0.4188  0.1625
16764TIP3   OH271782   0.203   6.448   5.165  0.4360  0.0789  0.1707
16764TIP3    H171783   0.232   6.489   5.246  0.6403 -1.0443  0.6722
16764TIP3    H271784   0.282   6.444   5.111  0.2150  1.1832 -0.2410
16765TIP3   OH271785   1.868   4.535  17.095  0.5073 -0.7789 -0.1048
16765TIP3    H171786   1.826   4.618  17.118 -0.8381 -1.1166 -1.3074
16765TIP3    H271787   1.962   4.554  17.101  0.2091  0.3853  1.1571
16766TIP3   OH271788   0.851   4.310  17.284  0.0352 -0.2543  0.4018
16766TIP3    H171789   0.905   4.388  17.296 -0.5257  0.0236  1.2409
16766TIP3    H271790   0.913   4.240  17.268  0.4651  0.6931 -2.3686
16767TIP3   OH271791   5.043   3.560  12.251 -0.6446 -0.1297 -0.0467
16767TIP3    H171792   5.125   3.572  12.298 -0.9968 -1.7552  1.0169
16767TIP3    H271793   4.975   3.588  12.312 -1.0625 -1.5826  0.1571
16768TIP3   OH271794   3.596   1.984   0.847 -0.1384  0.0167 -0.3754
16768TIP3    H171795   3.603   1.908   0.790  2.3442  0.5911 -0.9111
16768TIP3    H271796   3.563   2.054   0.791 -0.9283 -0.2708 -0.2689
16769TIP3   OH271797   4.260   0.823   2.446 -0.1041 -0.1606 -0.2621
16769TIP3    H171798   4.209   0.790   2.520  0.8529 -0.1368  0.4185
16769TIP3    H271799   4.335   0.866   2.487  0.0407  0.5134 -1.2301
16770TIP3   OH271800   3.600   3.954   0.894 -0.0736 -0.3336 -0.2601
16770TIP3    H171801   3.626   3.873   0.851 -0.3614 -0.3384 -0.4245
16770TIP3    H271802   3.579   3.928   0.984  0.5353 -0.3212 -0.1143
16771TIP3   OH271803   4.359   5.865  14.733 -0.6090 -0.1880  0.3468
16771TIP3    H171804   4.283   5.919  14.754 -0.1231  0.4547  0.4385
16771TIP3    H271805   4.434   5.921  14.751 -0.0855 -1.1260  1.1661
16772TIP3   OH271806   1.227   4.979  14.390  0.2896 -0.0060 -0.1521
16772TIP3    H171807   1.153   4.927  14.360 -0.3621  0.9449 -0.1953
16772TIP3    H271808   1.279   4.994  14.311 -1.1169  1.9916 -0.7474
16773TIP3   OH271809   2.773   1.450  11.305  0.7741 -0.2467 -0.2738
16773TIP3    H171810   2.743   1.537  11.277 -1.4194 -1.2195 -1.0532
16773TIP3    H271811   2.775   1.398  11.225  2.3195 -0.8736  0.1479
16774TIP3   OH271812   3.195   4.662  15.235  0.5198  0.1865  0.1048
16774TIP3    H171813   3.126   4.704  15.287  0.4678 -1.7865  1.6616
16774TIP3    H271814   3.275   4.675  15.285  0.4229 -1.9735  0.8762
16775TIP3   OH271815   5.893   1.477   4.115  0.4154 -0.4511 -0.0506
16775TIP3    H171816   5.877   1.463   4.021  0.0031  2.9847 -0.5503
16775TIP3    H271817   5.820   1.432   4.158 -1.1209  0.5191 -1.5520
16776TIP3   OH271818   1.643   0.684   5.446  0.1005 -0.3718  0.3255
16776TIP3    H171819   1.549   0.703   5.450  0.1176  0.1458 -1.3447
16776TIP3    H271820   1.679   0.729   5.523 -0.7672  1.0213 -0.0566
16777TIP3   OH271821   4.898   0.115  11.916  0.4141 -0.0862  0.3044
16777TIP3    H171822   4.872   0.157  11.835 -0.1874  0.6749  0.8861
16777TIP3    H271823   4.828   0.052  11.934  1.3355 -1.3874 -0.5874
16778TIP3   OH271824   6.065   2.141  12.570 -0.4787  0.4821  0.2667
16778TIP3    H171825   6.058   2.177  12.658 -0.2685  0.6155  0.2305
16778TIP3    H271826   6.086   2.217  12.515  0.6339  0.2077  0.2914
16779TIP3   OH271827   0.451   0.526  14.332  0.0638  0.3955 -0.3855
16779TIP3    H171828   0.473   0.464  14.262  0.4545  1.9440 -1.6643
16779TIP3    H271829   0.429   0.607  14.286  0.8718  1.6070  1.3219
16780TIP3   OH271830   1.652   2.356  12.149 -0.1811  0.6028 -0.1742
16780TIP3    H171831   1.615   2.296  12.085 -1.2983  0.6376  0.4319
16780TIP3    H271832   1.704   2.301  12.207  0.7803  0.5622 -1.0574
16781TIP3   OH271833   1.177   3.409   1.507 -0.0051 -0.1879  0.2025
16781TIP3    H171834   1.167   3.499   1.537  0.9951  0.0461 -0.1221
16781TIP3    H271835   1.127   3.357   1.569 -1.4190  0.6862 -0.1844
16782TIP3   OH271836   6.551   5.900   5.444  0.5344  0.5063  0.3629
16782TIP3    H171837   6.645   5.920   5.446  0.6015  0.6210 -2.3673
16782TIP3    H271838   6.543   5.817   5.490  2.0038  0.4350  0.5162
16783TIP3   OH271839   1.801   6.794   0.546 -0.2599  0.0516  0.9151
16783TIP3    H171840   1.830   6.879   0.579  0.1552  0.2472  0.0745
16783TIP3    H271841   1.706   6.803   0.538 -0.2832  0.2341  1.3974
16784TIP3   OH271842   5.712   4.117   2.138  0.3272 -0.3382 -0.1052
16784TIP3    H171843   5.750   4.030   2.141 -1.0913 -0.9826 -0.4079
16784TIP3    H271844   5.775   4.173   2.184  0.9232 -1.6341  0.6631
16785TIP3   OH271845   6.338   5.695   0.133  0.0030  0.0663  0.8110
16785TIP3    H171846   6.399   5.663   0.200  0.4818 -1.0204 -0.1238
16785TIP3    H271847   6.272   5.744   0.182  0.3325 -0.7408  2.0870
16786TIP3   OH271848   3.376   0.904   2.006  0.0640 -0.2457  1.1400
16786TIP3    H171849   3.289   0.925   2.040  0.1103  3.2146 -0.6594
16786TIP3    H271850   3.437   0.939   2.071  0.1641 -1.1531  1.5544
16787TIP3   OH271851   4.587   6.252   2.412  0.1162  0.6034 -0.1452
16787TIP3    H171852   4.492   6.253   2.397  0.0306 -0.2482  0.2806
16787TIP3    H271853   4.619   6.186   2.350  0.3419  0.3792  0.2147
16788TIP3   OH271854   6.587   5.742   4.166  0.0042  0.3640 -0.0586
16788TIP3    H171855   6.589   5.834   4.141  0.6337 -0.0387 -1.5404
16788TIP3    H271856   6.612   5.695   4.087 -1.4620 -1.1579  0.3576
16789TIP3   OH271857   3.582   5.491   4.158 -0.0445  0.2776  0.2913
16789TIP3    H171858   3.535   5.544   4.093 -1.3981 -0.1867  0.8745
16789TIP3    H271859   3.627   5.555   4.213 -1.0974  0.8053  0.5567
16790TIP3   OH271860   4.410   6.538   3.130 -0.2996  0.4582 -0.1198
16790TIP3    H171861   4.328   6.556   3.176  1.5605  0.8266  3.2252
16790TIP3    H271862   4.427   6.617   3.079 -0.5750  1.5405  1.4508
16791TIP3   OH271863   1.931   3.209  15.829  0.1196  0.1321  0.2627
16791TIP3    H171864   1.998   3.157  15.873 -1.3207  0.0309  2.4655
16791TIP3    H271865   1.848   3.176  15.865 -1.0396  1.1428 -1.3930
16792TIP3   OH271866   6.249   2.654   2.914  0.2292 -0.3214 -0.0787
16792TIP3    H171867   6.278   2.732   2.867 -2.1620  0.0593 -0.9760
16792TIP3    H271868   6.330   2.615   2.946  1.6857  1.0525 -1.9170
16793TIP3   OH271869   4.676   3.206   2.983  0.0516 -0.3551 -0.1437
16793TIP3    H171870   4.714   3.227   2.897 -1.2349  1.5680 -0.2768
16793TIP3    H271871   4.695   3.283   3.037 -0.2249 -1.0376  0.9323
16794TIP3   OH271872   2.452   3.553   5.944  0.6684 -1.0492 -0.1142
16794TIP3    H171873   2.369   3.589   5.978  1.2239 -0.1025  0.2595
16794TIP3    H271874   2.452   3.576   5.851 -0.3657 -2.7240 -0.5566
16795TIP3   OH271875   2.751   6.379   2.889 -0.2391  0.1308 -0.2386
16795TIP3    H171876   2.807   6.345   2.819  1.6390 -0.9349  1.7150
16795TIP3    H271877   2.662   6.367   2.857  0.5285 -2.0817 -1.6707
16796TIP3   OH271878   2.263   4.475   2.727 -0.0865 -0.1570  0.6895
16796TIP3    H171879   2.208   4.545   2.691 -0.5906 -0.2595  1.2632
16796TIP3    H271880   2.206   4.398   2.726 -0.2524 -0.0575  2.1433
16797TIP3   OH271881   0.697   6.695  16.523 -0.4460 -0.2755  0.1299
16797TIP3    H171882   0.667   6.664  16.609  0.9104  0.3426  0.8438
16797TIP3    H271883   0.793   6.693  16.529 -0.3400 -0.3202 -1.4098
16798TIP3   OH271884   1.674   2.678   4.596 -0.4456 -0.5367 -0.1399
16798TIP3    H171885   1.731   2.660   4.521 -0.6612  0.8091 -0.6431
16798TIP3    H271886   1.734   2.699   4.667 -0.1788 -3.2988  0.5102
16799TIP3   OH271887   4.300   3.939  14.256  0.1916 -0.7675 -0.0472
16799TIP3    H171888   4.288   3.850  14.222  0.1551  0.2942 -2.9619
16799TIP3    H271889   4.391   3.959  14.239  0.8089 -1.0135  2.6725
16800TIP3   OH271890   1.928   4.043   1.371 -0.5106 -0.0433 -0.0192
16800TIP3    H171891   1.954   3.956   1.342 -0.9424 -0.1633 -0.0593
16800TIP3    H271892   2.005   4.079   1.416 -0.8186 -1.0320  1.3249
16801TIP3   OH271893   5.700   2.253   5.711 -1.0811  0.1063 -0.2268
16801TIP3    H171894   5.717   2.347   5.705 -0.0015 -0.0348  0.4944
16801TIP3    H271895   5.656   2.242   5.795 -0.1722 -0.1669  0.2252
16802TIP3   OH271896   0.680   6.684   1.487  0.3304  0.0273 -0.5453
16802TIP3    H171897   0.664   6.778   1.474  2.0201  0.4598  0.3445
16802TIP3    H271898   0.752   6.664   1.426  0.9473 -0.3565  0.3013
16803TIP3   OH271899   5.008   1.528   0.122  0.2010 -0.1602 -0.4311
16803TIP3    H171900   4.954   1.607   0.124 -1.5335 -1.3256  0.4495
16803TIP3    H271901   5.034   1.518   0.030 -0.3087  0.9267 -0.6948
16804TIP3   OH271902   0.528   0.219  13.586  0.0971 -0.4295 -0.2879
16804TIP3    H171903   0.535   0.295  13.528 -0.6805  1.3339  1.8717
16804TIP3    H271904   0.465   0.161  13.542 -0.6775  0.9972 -1.0816
16805TIP3   OH271905   4.465   1.456   4.349 -0.5645  0.0939 -0.6188
16805TIP3    H171906   4.412   1.533   4.327 -0.2824 -0.0464 -1.8166
16805TIP3    H271907   4.414   1.410   4.416 -0.5880  1.4857  0.3560
16806TIP3   OH271908   5.907   1.235   4.988 -0.8303  0.6129 -0.0002
16806TIP3    H171909   5.971   1.175   4.949 -3.0710 -0.2688 -2.5123
16806TIP3    H271910   5.913   1.219   5.082  1.8929 -0.1789 -0.2748
16807TIP3   OH271911   5.410   4.282   4.010  0.0347  0.0482 -0.7769
16807TIP3    H171912   5.315   4.276   4.024  0.1654 -0.9993 -0.3287
16807TIP3    H271913   5.425   4.375   3.992 -1.1520  0.1353 -1.4271
16808TIP3   OH271914   4.093   4.173  14.598 -0.3320 -0.8365 -0.2110
16808TIP3    H171915   4.150   4.174  14.521  1.0079  0.5365  0.7637
16808TIP3    H271916   4.025   4.237  14.577 -0.3648 -0.9683 -0.5251
16809TIP3   OH271917   3.005   0.761   0.765  0.4493  0.7786 -0.4243
16809TIP3    H171918   2.984   0.852   0.786  0.6389  0.9403 -0.9335
16809TIP3    H271919   3.060   0.732   0.838 -1.2617  0.4505  0.7490
16810TIP3   OH271920   6.689   3.329  12.492  0.4498 -0.5048 -0.2656
16810TIP3    H171921   6.766   3.303  12.542  0.6434 -0.4071 -0.5147
16810TIP3    H271922   6.723   3.378  12.418  0.1009  0.2242  0.0484
16811TIP3   OH271923   2.600   6.020  12.530 -0.3289  0.7025 -0.4412
16811TIP3    H171924   2.633   6.008  12.441  1.3266  1.3040  0.0612
16811TIP3    H271925   2.545   6.098  12.525 -1.3386 -0.0519 -1.2118
16812TIP3   OH271926   3.773   5.219   5.057  0.0666 -0.0807  0.2243
16812TIP3    H171927   3.796   5.301   5.100  1.2994  0.4461 -1.3994
16812TIP3    H271928   3.700   5.241   4.999  0.5080 -0.0770 -0.3396
16813TIP3   OH271929   0.290   1.250   1.016 -0.4904  0.4668 -0.0826
16813TIP3    H171930   0.298   1.323   1.078 -0.4226 -0.4262  0.9857
16813TIP3    H271931   0.375   1.248   0.972  0.4112 -0.4855  1.6335
16814TIP3   OH271932   5.416   1.955  16.792 -0.3734  0.2809 -0.7202
16814TIP3    H171933   5.451   2.026  16.845  1.0989 -0.3289 -0.8642
16814TIP3    H271934   5.392   1.996  16.709  0.5627  0.5923 -0.8343
16815TIP3   OH271935   5.860   1.983   2.534 -0.2285 -0.4466 -0.0978
16815TIP3    H171936   5.841   2.070   2.500 -0.7212 -1.1477 -1.6992
16815TIP3    H271937   5.814   1.978   2.617 -2.8541 -0.2950 -1.4979
16816TIP3   OH271938   5.189   3.430   1.029 -0.0584  0.0502  0.0949
16816TIP3    H171939   5.266   3.487   1.030 -1.9981  2.7891  0.3357
16816TIP3    H271940   5.140   3.455   1.107 -1.9558 -0.5559 -0.8776
16817TIP3   OH271941   2.681   0.783  17.080 -0.2606  0.1365  0.0325
16817TIP3    H171942   2.746   0.720  17.109  1.0217  2.6074  2.8472
16817TIP3    H271943   2.652   0.751  16.995  1.8885 -3.0352  0.4185
16818TIP3   OH271944   3.125   2.649  16.878 -0.2324  0.4582  0.4523
16818TIP3    H171945   3.165   2.732  16.906 -1.9899  1.0350  1.2980
16818TIP3    H271946   3.114   2.600  16.959 -0.8912  0.1496  0.1716
16819TIP3   OH271947   0.815   1.988   3.515 -0.3649 -0.0191 -0.1287
16819TIP3    H171948   0.828   2.013   3.606 -0.9101  0.8521 -0.2819
16819TIP3    H271949   0.759   1.910   3.519  1.7401 -1.5610  0.3667
16820TIP3   OH271950   5.294   5.977   5.234  0.4755  0.4906 -0.0071
16820TIP3    H171951   5.318   5.972   5.327  2.0470  0.1264 -0.4071
16820TIP3    H271952   5.378   5.992   5.189  0.6576 -4.9950 -1.8525
16821TIP3   OH271953   4.949   0.822   3.594  0.4769 -0.0479  0.0088
16821TIP3    H171954   4.946   0.730   3.569  1.8207  0.0425 -0.5270
16821TIP3    H271955   5.041   0.838   3.615  0.3577  1.3193 -0.4551
16822TIP3   OH271956   5.202   4.751  12.809  0.0365  0.8438 -0.2587
16822TIP3    H171957   5.258   4.711  12.742  0.0110  1.2123 -0.4991
16822TIP3    H271958   5.124   4.694  12.811  0.1139  0.7316 -0.4194
16823TIP3   OH271959   0.150   2.336   5.501 -0.3289  0.1501  0.4132
16823TIP3    H171960   0.162   2.300   5.414 -0.4508  2.2644 -0.5073
16823TIP3    H271961   0.056   2.351   5.509 -0.1690  1.2186  0.3753
16824TIP3   OH271962   3.462   2.142   0.654  0.0939 -0.2437  0.6167
16824TIP3    H171963   3.381   2.191   0.664  0.3083  0.1861  0.2808
16824TIP3    H271964   3.459   2.108   0.565 -0.6760 -1.9879  1.2720
16825TIP3   OH271965   4.641   5.251  14.791 -0.0798 -0.6092  0.0324
16825TIP3    H171966   4.732   5.234  14.816  0.1640  1.3441  0.5750
16825TIP3    H271967   4.646   5.295  14.707 -0.6249 -1.9423 -0.7159
16826TIP3   OH271968   3.613   3.128  16.326  0.3964 -0.2064 -0.6110
16826TIP3    H171969   3.523   3.096  16.336 -0.0224  0.2921 -2.5166
16826TIP3    H271970   3.663   3.081  16.393 -0.6570 -3.0294 -1.7131
16827TIP3   OH271971   2.405   0.137   4.222  0.2752 -0.0850  0.5194
16827TIP3    H171972   2.330   0.089   4.258  0.6908 -0.7544  0.5187
16827TIP3    H271973   2.441   0.184   4.297  0.3572 -0.4328  0.7005
16828TIP3   OH271974   2.264   3.051  16.872  0.1014 -0.1232  0.5046
16828TIP3    H171975   2.288   2.972  16.920  1.3771 -0.0821 -0.0289
16828TIP3    H271976   2.262   3.024  16.780  1.2848  0.6107  0.2466
16829TIP3   OH271977   0.326   5.584   4.580  0.3734 -0.0910 -0.5449
16829TIP3    H171978   0.288   5.660   4.535 -0.3213 -0.8695 -1.2772
16829TIP3    H271979   0.395   5.553   4.521  1.0970  0.3685  0.0595
16830TIP3   OH271980   1.546   2.172   1.094 -0.0324  0.7601 -0.3558
16830TIP3    H171981   1.509   2.208   1.175 -0.6872  0.0717 -0.3420
16830TIP3    H271982   1.476   2.180   1.030  0.8943  2.4335 -1.1980
16831TIP3   OH271983   0.480   0.222   4.229 -0.6618  0.2196  0.3495
16831TIP3    H171984   0.575   0.230   4.221 -0.9711  2.5936 -1.5201
16831TIP3    H271985   0.466   0.192   4.319  1.8307  0.0524  0.7102
16832TIP3   OH271986   4.557   5.461  14.954 -0.5749  0.4772 -0.6891
16832TIP3    H171987   4.608   5.412  14.890  1.0396  1.0295  0.1360
16832TIP3    H271988   4.490   5.506  14.902 -1.1828 -1.4328 -1.6123
16833TIP3   OH271989   0.798   1.177   1.497 -0.5690 -0.3393  0.0964
16833TIP3    H171990   0.716   1.127   1.493 -0.7265  0.0806 -2.9449
16833TIP3    H271991   0.865   1.116   1.466 -0.4442  0.6917 -1.6970
16834TIP3   OH271992   4.810   3.926  12.841  0.3193  0.5869 -0.0889
16834TIP3    H171993   4.872   3.993  12.870  0.4070  1.1885 -1.5885
16834TIP3    H271994   4.760   3.903  12.919  1.6225  0.9761  0.8705
16835TIP3   OH271995   1.213   0.857  17.252  0.0807 -0.3893 -0.3426
16835TIP3    H171996   1.182   0.908  17.327  1.5272  0.2652 -0.1906
16835TIP3    H271997   1.221   0.767  17.286 -0.7672 -0.4051 -0.1496
16836TIP3   OH271998   3.527   3.902   0.575  0.4613 -0.0474  0.2843
16836TIP3    H171999   3.544   3.817   0.614 -0.4872 -0.6292 -0.5601
16836TIP3    H272000   3.607   3.922   0.525  0.6784 -0.4424  0.4758
16837TIP3   OH272001   5.845   4.102   5.846  0.2378 -0.5723  0.4450
16837TIP3    H172002   5.822   4.096   5.753 -0.8322  1.1847  0.5795
16837TIP3    H272003   5.808   4.022   5.884  1.4901 -1.7699 -0.7802
16838TIP3   OH272004   0.561   4.535  14.773 -0.5966 -0.1803 -0.0562
16838TIP3    H172005   0.630   4.590  14.812 -0.1476 -0.5496 -0.3166
16838TIP3    H272006   0.588   4.524  14.682 -1.6410  0.6705 -0.4714
16839TIP3   OH272007   1.836   1.436   4.062 -0.0583  0.1566 -0.1935
16839TIP3    H172008   1.888   1.443   4.142  1.0256 -0.1154 -0.8699
16839TIP3    H272009   1.804   1.525   4.047 -0.7278  0.1067  0.8360
16840TIP3   OH272010   4.923   6.289  10.112 -0.4088  0.1902  0.2426
16840TIP3    H172011   4.947   6.238  10.189 -0.5926 -0.0351  0.1517
16840TIP3    H272012   4.836   6.324  10.132  0.7899  2.6278  1.3924
16841TIP3   OH272013   3.276   0.069   0.852 -0.6140  0.3954 -0.2564
16841TIP3    H172014   3.332   0.138   0.887 -1.3655  0.2691  1.2128
16841TIP3    H272015   3.332  -0.009   0.852  0.2595  0.9940 -1.9925
16842TIP3   OH272016   3.435   0.457   3.538  0.1299 -0.4036  0.2232
16842TIP3    H172017   3.447   0.387   3.475  2.0707 -0.5565  0.7526
16842TIP3    H272018   3.466   0.536   3.493 -1.5395  0.0452 -0.1758
16843TIP3   OH272019   4.800   5.374   4.602  0.2769  0.2761  0.0286
16843TIP3    H172020   4.726   5.425   4.570  0.8473 -0.0809 -1.9371
16843TIP3    H272021   4.828   5.420   4.681  0.9079  3.1588 -1.7902
16844TIP3   OH272022   2.534   6.383  16.042  0.4352  0.4857  0.7764
16844TIP3    H172023   2.569   6.471  16.028 -0.4465  0.6908 -0.1600
16844TIP3    H272024   2.575   6.329  15.975  1.1190  0.1259  1.4666
16845TIP3   OH272025   6.419   2.348  13.367  0.0439 -0.5319 -0.0236
16845TIP3    H172026   6.477   2.381  13.436 -1.4626  0.4915  0.7937
16845TIP3    H272027   6.478   2.306  13.304  1.5428 -0.6430  1.3994
16846TIP3   OH272028   4.668   3.092   1.485  0.1168  0.3500  0.0244
16846TIP3    H172029   4.601   3.126   1.426 -0.4987 -0.1299  0.4377
16846TIP3    H272030   4.702   3.015   1.439  0.7097  0.8545 -0.3917
16847TIP3   OH272031   0.834   3.873   1.298  0.5543 -1.0953  0.7345
16847TIP3    H172032   0.797   3.882   1.386  1.1912  1.2089  0.8100
16847TIP3    H272033   0.890   3.795   1.304 -1.0905 -2.2213  1.7425
16848TIP3   OH272034   1.476   3.077   5.576  0.5412  0.1285 -0.5280
16848TIP3    H172035   1.562   3.067   5.536 -0.0190 -1.1858 -1.4286
16848TIP3    H272036   1.451   2.989   5.604 -0.6671  0.4186 -0.6347
16849TIP3   OH272037   0.940   4.117  15.414 -0.7895 -0.1922 -0.5441
16849TIP3    H172038   0.923   4.206  15.384 -0.4846 -0.6582 -2.1449
16849TIP3    H272039   0.871   4.099  15.478  0.8182  2.1961  1.9513
16850TIP3   OH272040   2.017   1.161   4.331 -0.0016  0.2374 -0.4357
16850TIP3    H172041   2.062   1.236   4.293 -0.3563  0.3713 -0.5942
16850TIP3    H272042   2.030   1.090   4.269 -0.6926  0.4903 -0.8745
16851TIP3   OH272043   1.095   4.263  13.744  0.5605 -0.2306 -0.2864
16851TIP3    H172044   1.081   4.325  13.815 -1.4505  0.2147 -1.0273
16851TIP3    H272045   1.164   4.302  13.690  0.4685  0.5367  0.1530
16852TIP3   OH272046   2.875   4.345  16.978 -0.1442 -0.2875 -0.0884
16852TIP3    H172047   2.970   4.357  16.986 -0.0476 -0.8568 -0.3513
16852TIP3    H272048   2.859   4.257  17.012 -0.8135  0.4765  1.6238
16853TIP3   OH272049   5.185   4.464  11.897  0.4353 -0.2402  0.4403
16853TIP3    H172050   5.175   4.502  11.810  1.4565 -0.6810  0.1301
16853TIP3    H272051   5.105   4.489  11.943  1.0681  2.2562  0.2257
16854TIP3   OH272052   4.266   3.894   2.763 -0.8015  0.1715  0.5098
16854TIP3    H172053   4.210   3.882   2.686 -0.8268  1.1194  0.3787
16854TIP3    H272054   4.336   3.952   2.733  0.1023 -0.7844  0.7531
16855TIP3   OH272055   4.623   0.338   6.522 -0.7487 -0.1586  0.1884
16855TIP3    H172056   4.612   0.418   6.470 -0.8107 -0.5035 -0.3264
16855TIP3    H272057   4.551   0.341   6.586 -0.8570  0.1024  0.0572
16856TIP3   OH272058   0.991   2.118  16.155 -1.1947  0.2056  0.1226
16856TIP3    H172059   1.038   2.034  16.161 -1.2041  0.1287 -0.8059
16856TIP3    H272060   1.006   2.147  16.065 -1.1720  1.2168  0.4531
16857TIP3   OH272061   6.618   0.000   3.643  0.7334 -0.2720 -0.1927
16857TIP3    H172062   6.669   0.059   3.588  1.3537  0.3462  1.0167
16857TIP3    H272063   6.532   0.041   3.648  0.2586 -1.0334 -1.7899
16858TIP3   OH272064   1.621   0.298   1.100  0.7234 -0.6386 -0.0394
16858TIP3    H172065   1.526   0.301   1.105  0.6599 -1.3261 -0.8391
16858TIP3    H272066   1.647   0.228   1.160  0.4746 -3.0758 -2.6691
16859TIP3   OH272067   0.489   5.438  12.751  0.1619  0.2946  0.1705
16859TIP3    H172068   0.445   5.486  12.682 -1.6082 -1.3588  0.0966
16859TIP3    H272069   0.461   5.481  12.832 -0.2839  0.2705  0.0282
16860TIP3   OH272070   1.435   2.162  17.280  0.4650  0.0896 -0.1188
16860TIP3    H172071   1.477   2.160  17.366  1.5161 -2.4576 -0.6360
16860TIP3    H272072   1.385   2.080  17.276 -2.1778  1.6921 -0.6955
16861TIP3   OH272073   1.991   0.531  12.333  0.1091 -0.0547  0.0856
16861TIP3    H172074   2.052   0.605  12.329  0.0181 -0.0016 -0.3284
16861TIP3    H272075   2.030   0.464  12.276 -1.3267  0.8074 -1.9948
16862TIP3   OH272076   2.444   3.077  15.535 -0.1733  0.2703  0.0472
16862TIP3    H172077   2.468   3.011  15.600  1.4935 -0.6485 -1.4632
16862TIP3    H272078   2.496   3.154  15.558 -0.8394  0.5063  0.7870
16863TIP3   OH272079   0.317   1.197   5.530  0.6297 -0.4636  0.0936
16863TIP3    H172080   0.302   1.181   5.437  0.8628  1.1353 -0.2288
16863TIP3    H272081   0.254   1.264   5.553 -0.2135 -1.6737  1.3812
16864TIP3   OH272082   2.310   4.775   6.866  0.2519  0.2020  0.2761
16864TIP3    H172083   2.348   4.834   6.931  4.2430 -0.4690 -1.3130
16864TIP3    H272084   2.309   4.826   6.785  0.4169 -0.7291 -0.3141
16865TIP3   OH272085   2.523   5.201   3.735 -0.6226  0.0686 -0.0559
16865TIP3    H172086   2.564   5.285   3.714 -0.2386 -0.2637 -0.6417
16865TIP3    H272087   2.430   5.222   3.748 -0.2448  0.8718  1.5385
16866TIP3   OH272088   6.158   3.356   4.543 -0.4128 -0.4644  0.0150
16866TIP3    H172089   6.233   3.394   4.498 -0.3235 -0.7250 -0.0557
16866TIP3    H272090   6.141   3.415   4.617 -0.7825  0.1636 -0.5595
16867TIP3   OH272091   2.549   1.638  14.861 -0.4836 -0.1057 -0.2653
16867TIP3    H172092   2.466   1.661  14.904 -0.2209 -0.1405  0.2652
16867TIP3    H272093   2.610   1.705  14.891 -0.0919 -0.6102  0.0735
16868TIP3   OH272094   4.009   6.347  13.242  0.1753 -0.2460  0.1034
16868TIP3    H172095   3.929   6.318  13.198  0.5653 -1.4548  0.1676
16868TIP3    H272096   4.008   6.442  13.234 -1.8606 -0.1610  1.1261
16869TIP3   OH272097   4.289   0.944  15.505 -0.4388 -0.4191  0.3227
16869TIP3    H172098   4.267   1.037  15.502  0.2700 -0.2362  0.6740
16869TIP3    H272099   4.205   0.900  15.515 -1.0288  0.0495 -2.1465
16870TIP3   OH272100   3.852   4.203   2.281  0.0224  0.3855  0.2815
16870TIP3    H172101   3.813   4.245   2.205  0.8213 -0.5767 -0.6716
16870TIP3    H272102   3.778   4.162   2.327 -0.2518 -0.4321 -0.8768
16871TIP3   OH272103   2.741   3.954  12.044 -0.8041  0.8434  0.4176
16871TIP3    H172104   2.793   3.898  12.101 -0.8678  1.2493  0.8785
16871TIP3    H272105   2.782   3.946  11.958 -0.9665 -0.1138  0.4162
16872TIP3   OH272106   0.847   0.586   5.809  0.3248  0.1700 -0.7278
16872TIP3    H172107   0.891   0.515   5.856  0.7074  0.5060 -0.5769
16872TIP3    H272108   0.911   0.657   5.808 -0.6401  1.0626  0.4899
16873TIP3   OH272109   1.279   1.021  16.363 -0.1530 -0.5800  0.1160
16873TIP3    H172110   1.190   0.987  16.362 -0.5922  0.5360 -0.7081
16873TIP3    H272111   1.300   1.035  16.270  0.3261  0.5168  0.3768
16874TIP3   OH272112   3.101   1.550  12.534  0.6460 -0.6271  0.6236
16874TIP3    H172113   3.197   1.546  12.537  0.6771 -0.2966  0.1284
16874TIP3    H272114   3.073   1.482  12.595  1.1973 -2.2017 -0.8121
16875TIP3   OH272115   2.845   2.130  12.432  0.3172  0.2199  0.2498
16875TIP3    H172116   2.809   2.153  12.518  0.4523 -0.3255  0.4558
16875TIP3    H272117   2.938   2.114  12.448  0.4689  0.7362 -0.1144
16876TIP3   OH272118   0.930   6.620  15.647  0.0955  0.3927 -0.3691
16876TIP3    H172119   0.901   6.532  15.669  1.4711 -0.1186 -0.5850
16876TIP3    H272120   0.996   6.608  15.579  0.8515  1.5397  0.1374
16877TIP3   OH272121   1.100   0.617  15.146  0.6431  0.2850 -0.3367
16877TIP3    H172122   1.193   0.639  15.142  1.1617 -1.6793 -0.0376
16877TIP3    H272123   1.063   0.677  15.210  2.0258  0.1215  0.6402
16878TIP3   OH272124   4.192   2.351   4.594 -0.6451  0.1842 -0.2906
16878TIP3    H172125   4.267   2.343   4.535  1.3605  1.5496  2.0077
16878TIP3    H272126   4.178   2.446   4.601 -1.4004  0.0015  0.7459
16879TIP3   OH272127   3.027   0.549  13.413  0.3765 -0.1939 -0.9752
16879TIP3    H172128   2.968   0.517  13.345  0.1068  1.7042 -1.6599
16879TIP3    H272129   3.114   0.522  13.383 -0.0771 -2.6920 -0.1392
16880TIP3   OH272130   0.714   4.238  15.289  0.0132 -0.7291  0.1773
16880TIP3    H172131   0.760   4.280  15.217  1.6475 -0.5160  1.3351
16880TIP3    H272132   0.635   4.201  15.248  1.1287 -1.0038 -1.7875
16881TIP3   OH272133   1.615   2.118   6.571  0.2067  0.1756  0.4461
16881TIP3    H172134   1.566   2.069   6.505 -1.5539  1.2645  0.9046
16881TIP3    H272135   1.706   2.088   6.561 -0.3202 -0.9092 -1.3140
16882TIP3   OH272136   3.994   4.108  13.236 -0.6470 -0.1834  0.0508
16882TIP3    H172137   3.979   4.201  13.222 -2.6047 -0.4159  0.5908
16882TIP3    H272138   4.010   4.100  13.330 -0.7054 -0.4195  0.0413
16883TIP3   OH272139   4.953   0.933  14.407  0.3287 -0.5327 -0.4852
16883TIP3    H172140   5.024   0.905  14.349  0.2826  0.0093 -0.8063
16883TIP3    H272141   4.932   1.022  14.378  0.0705 -0.3901  0.1405
16884TIP3   OH272142   2.102   0.963  12.142 -0.2439  0.4717  0.0212
16884TIP3    H172143   2.114   0.878  12.100  2.5106  0.4572  0.7282
16884TIP3    H272144   2.112   0.945  12.236 -1.2648  1.3145  0.3012
16885TIP3   OH272145   3.412   6.392   3.940  0.0137 -0.4551  0.0017
16885TIP3    H172146   3.362   6.376   3.859  0.0888 -0.4286 -0.0502
16885TIP3    H272147   3.424   6.486   3.943  0.3125 -0.4854 -0.1393
16886TIP3   OH272148   1.520   6.375  14.934  0.0141  0.8140 -0.7519
16886TIP3    H172149   1.591   6.438  14.921  1.3696 -0.4570  0.2586
16886TIP3    H272150   1.440   6.423  14.912  0.6942  3.8772  2.8820
16887TIP3   OH272151   1.737   1.849   2.521 -0.0132 -0.1753 -0.0278
16887TIP3    H172152   1.774   1.853   2.609  0.8904  1.4259 -0.4495
16887TIP3    H272153   1.643   1.843   2.535  0.0314  1.3620  1.0612
16888TIP3   OH272154   1.768   6.001  11.639  0.2692 -0.0730  0.3503
16888TIP3    H172155   1.791   5.976  11.549  0.5513 -1.2646  0.7439
16888TIP3    H272156   1.675   6.024  11.634 -0.1953 -1.8514  0.0777
16889TIP3   OH272157   1.516   5.395  10.882  0.4724 -0.0768  0.3312
16889TIP3    H172158   1.432   5.440  10.873 -0.5102 -1.8715  0.1917
16889TIP3    H272159   1.554   5.432  10.962  0.9137  2.8377 -1.1786
16890TIP3   OH272160   2.436   6.710   5.608 -0.3395 -0.0057  0.3949
16890TIP3    H172161   2.474   6.785   5.655 -0.9850  0.1159  0.7332
16890TIP3    H272162   2.345   6.736   5.592 -0.5869 -0.7509  0.5786
16891TIP3   OH272163   4.982   3.738  14.031 -0.0134  0.0474 -0.5402
16891TIP3    H172164   5.065   3.784  14.037  0.3644 -0.6583 -0.3207
16891TIP3    H272165   4.918   3.806  14.012  0.3334  0.8696  1.0987
16892TIP3   OH272166   4.416   3.999  16.921  0.1360  0.0295 -0.9470
16892TIP3    H172167   4.482   3.978  16.855  2.0078 -0.9962  1.1338
16892TIP3    H272168   4.352   3.928  16.915  1.0226 -0.7999 -0.7940
16893TIP3   OH272169   1.065   1.483  13.106  0.3461 -0.1263 -0.1605
16893TIP3    H172170   0.986   1.447  13.064  0.7051  0.9564 -1.8307
16893TIP3    H272171   1.039   1.572  13.132 -0.3509 -1.3282  3.3724
16894TIP3   OH272172   6.648   2.253   3.060 -0.8295  0.1040 -0.1149
16894TIP3    H172173   6.705   2.321   3.024  0.6336  0.2381  2.3873
16894TIP3    H272174   6.616   2.289   3.143 -3.6543 -0.4544 -0.9036
16895TIP3   OH272175   3.482   4.195   0.811 -0.2408 -0.1532 -0.1303
16895TIP3    H172176   3.517   4.255   0.877  1.0054  1.9430 -2.6255
16895TIP3    H272177   3.519   4.110   0.835  2.0253  0.9895  0.5466
16896TIP3   OH272178   4.993   2.699  16.420  0.3669 -0.1308 -0.6939
16896TIP3    H172179   4.943   2.627  16.459  1.1180 -0.5656 -0.5456
16896TIP3    H272180   4.978   2.773  16.480  1.4527 -0.7715  0.3829
16897TIP3   OH272181   1.385   3.744  11.700 -0.6710  0.3579  0.0936
16897TIP3    H172182   1.379   3.673  11.636  0.6063  0.3681 -0.0434
16897TIP3    H272183   1.347   3.707  11.780  3.1851 -1.7174  1.0432
16898TIP3   OH272184   1.915   6.300  14.702 -0.1648  0.0855 -0.2677
16898TIP3    H172185   1.900   6.237  14.632 -1.5253 -0.9541  0.9528
16898TIP3    H272186   1.962   6.372  14.659 -0.3466 -0.8531 -2.0842
16899TIP3   OH272187   5.301   3.444   4.977  0.4176 -0.4833 -0.2738
16899TIP3    H172188   5.370   3.466   5.039 -0.4882 -0.4620  0.7425
16899TIP3    H272189   5.316   3.353   4.954  1.6374 -0.0638 -1.1755
16900TIP3   OH272190   4.338   6.785  14.914 -0.0987  0.4140 -0.1585
16900TIP3    H172191   4.372   6.813  14.999 -1.6285  1.6995  0.0578
16900TIP3    H272192   4.362   6.855  14.854 -1.2596  0.7380 -0.2550
16901TIP3   OH272193   6.366   1.154  11.810  0.4137  0.2099 -0.2494
16901TIP3    H172194   6.382   1.248  11.811  0.3106  0.2270  1.4763
16901TIP3    H272195   6.341   1.133  11.900  0.0992 -1.4097 -0.6971
16902TIP3   OH272196   6.196   3.987  14.180  0.1109 -0.3981 -0.0218
16902TIP3    H172197   6.202   4.052  14.109  0.2809  0.0031  0.3555
16902TIP3    H272198   6.279   3.996  14.227 -0.5433  0.2473  1.0072
16903TIP3   OH272199   0.860   4.108  14.818  0.1978  0.0994  0.4262
16903TIP3    H172200   0.810   4.145  14.745  2.3980 -0.9269 -1.6480
16903TIP3    H272201   0.800   4.046  14.859 -0.3625 -0.8919 -1.8445
16904TIP3   OH272202   0.102   0.711  16.572  0.4147  0.4589  0.4821
16904TIP3    H172203   0.193   0.742  16.566  0.9334 -1.3418 -1.6646
16904TIP3    H272204   0.068   0.721  16.483 -1.1267  0.0469  1.0236
16905TIP3   OH272205   6.698   5.449  12.681  0.0048  0.2528  0.0901
16905TIP3    H172206   6.768   5.462  12.617 -0.2406  1.1724  0.0020
16905TIP3    H272207   6.736   5.476  12.764 -0.2206  0.6810  0.0551
16906TIP3   OH272208   5.155   5.270   0.674  0.3311  0.4578 -0.3893
16906TIP3    H172209   5.248   5.292   0.674  0.3681  0.2982 -1.1637
16906TIP3    H272210   5.110   5.354   0.686  0.5891  0.4386  0.8477
16907TIP3   OH272211   6.726   4.705  13.282 -0.4991 -0.1178  0.0998
16907TIP3    H172212   6.639   4.665  13.281 -0.3610 -0.4521  0.8742
16907TIP3    H272213   6.780   4.643  13.330  0.2109  0.0121 -0.5193
16908TIP3   OH272214   2.228   6.661   5.258 -0.0748  0.0217  0.1305
16908TIP3    H172215   2.258   6.677   5.347  0.8391 -0.0334 -0.1657
16908TIP3    H272216   2.143   6.618   5.269 -0.1829  0.4377  0.9644
16909TIP3   OH272217   0.393   4.025   0.962  0.0423 -0.2529 -0.0844
16909TIP3    H172218   0.449   4.096   0.995 -1.5472  0.6957  0.6237
16909TIP3    H272219   0.328   4.013   1.031 -0.3283 -1.7023 -0.6784
16910TIP3   OH272220   1.923   4.088  16.631 -0.1023 -0.1758  0.2380
16910TIP3    H172221   1.944   4.057  16.543 -0.4284 -1.0293  0.4562
16910TIP3    H272222   2.004   4.076  16.680  0.1588  0.5482 -0.0054
16911TIP3   OH272223   1.631   0.953  16.892  0.3382  0.4822 -0.2300
16911TIP3    H172224   1.597   0.901  16.965 -1.8342 -1.2822 -2.4279
16911TIP3    H272225   1.559   1.013  16.871  0.3392 -0.1012 -1.9193
16912TIP3   OH272226   3.847   1.522   0.126 -0.0523 -0.4543  0.1102
16912TIP3    H172227   3.929   1.496   0.084 -1.3095 -1.7767 -1.5542
16912TIP3    H272228   3.875   1.569   0.205  2.3021 -0.0757 -0.9210
16913TIP3   OH272229   0.874   5.881  14.885  0.0379  0.0854 -0.5478
16913TIP3    H172230   0.928   5.956  14.911 -1.6316  1.7661 -1.8414
16913TIP3    H272231   0.850   5.899  14.794 -1.0636 -1.6403 -0.6205
16914TIP3   OH272232   2.296   2.015  14.535 -0.0983 -0.1976 -0.2165
16914TIP3    H172233   2.304   2.016  14.631 -0.5439 -3.2877 -0.1022
16914TIP3    H272234   2.292   2.108  14.511  2.9577  0.7459  2.4952
16915TIP3   OH272235   5.294   0.998   4.193 -0.2492 -0.6599 -0.1758
16915TIP3    H172236   5.285   1.037   4.106  1.0148 -0.4911 -0.2408
16915TIP3    H272237   5.219   1.030   4.242 -1.4544 -1.4605 -1.4603
16916TIP3   OH272238   2.592   6.516   4.658  0.2162 -0.4284  0.0610
16916TIP3    H172239   2.599   6.425   4.629  0.6619 -0.1395 -0.7608
16916TIP3    H272240   2.498   6.536   4.653  0.2678 -0.4302 -1.0756
16917TIP3   OH272241   3.228   0.173   6.061 -0.5478  0.1260  0.3031
16917TIP3    H172242   3.267   0.086   6.068 -0.0902  0.1851 -1.2685
16917TIP3    H272243   3.158   0.174   6.127  2.4119  0.1886  3.6277
16918TIP3   OH272244   3.445   0.495  14.883 -0.2559  0.5911  0.1751
16918TIP3    H172245   3.471   0.528  14.796 -2.1310  1.4094 -0.0908
16918TIP3    H272246   3.443   0.400  14.872 -1.3101  0.7329 -0.9207
16919TIP3   OH272247   2.578   1.420   3.583  0.3145 -0.0201 -0.0193
16919TIP3    H172248   2.503   1.367   3.610 -0.1594  0.1084 -1.0560
16919TIP3    H272249   2.655   1.367   3.607  0.0078  0.9028  3.3020
16920TIP3   OH272250   1.681   2.931   3.415  0.6568 -0.3309 -0.1101
16920TIP3    H172251   1.713   2.900   3.330  0.3958 -0.9747  0.0246
16920TIP3    H272252   1.709   3.023   3.419 -0.8259  0.2170 -1.6327
16921TIP3   OH272253   1.236   2.109   0.780 -1.4449 -0.0255  0.5484
16921TIP3    H172254   1.258   2.193   0.820 -0.5154  0.9326 -1.8940
16921TIP3    H272255   1.293   2.045   0.824  0.6315  1.2373 -0.2223
16922TIP3   OH272256   4.553   5.904   4.732  0.2150 -0.0655 -0.0693
16922TIP3    H172257   4.491   5.908   4.805 -0.8963 -0.4839 -0.9749
16922TIP3    H272258   4.605   5.984   4.741 -2.1637  1.6255 -0.7613
16923TIP3   OH272259   6.082   6.392   3.247  0.5550 -0.1473  0.1299
16923TIP3    H172260   6.101   6.312   3.200  0.2934  0.0891 -0.3818
16923TIP3    H272261   6.002   6.373   3.296  0.7391 -0.3407  0.3566
16924TIP3   OH272262   6.663   3.468   4.326  0.4838 -0.2154 -0.0850
16924TIP3    H172263   6.650   3.375   4.345  0.3437 -0.6962 -2.3313
16924TIP3    H272264   6.650   3.475   4.231  2.5562  1.7370 -0.2770
16925TIP3   OH272265   6.407   5.545  15.149 -0.3790 -0.6847 -0.1429
16925TIP3    H172266   6.387   5.628  15.105 -0.5889  0.0513  1.3172
16925TIP3    H272267   6.492   5.560  15.191  0.0988 -1.5794 -0.7767
16926TIP3   OH272268   3.853   0.268  13.430  0.3482  0.3457  0.6311
16926TIP3    H172269   3.768   0.272  13.475 -0.0547  0.7731 -0.1646
16926TIP3    H272270   3.843   0.327  13.355  0.7248 -1.0640 -0.5269
16927TIP3   OH272271   3.572   0.476   1.063  0.2393 -0.0160  0.3538
16927TIP3    H172272   3.558   0.522   0.980  2.4419  0.1113  0.0203
16927TIP3    H272273   3.529   0.391   1.052 -0.2031  0.3251 -0.5823
16928TIP3   OH272274   5.712   1.555   6.268 -0.6964  0.9253 -0.2425
16928TIP3    H172275   5.743   1.476   6.313 -0.2084  0.2476 -1.7319
16928TIP3    H272276   5.783   1.577   6.207 -2.2381  0.5622 -2.2105
16929TIP3   OH272277   5.821   4.785   1.725  0.7769  0.2870  0.4598
16929TIP3    H172278   5.891   4.832   1.770 -1.2633  2.3570  1.6205
16929TIP3    H272279   5.782   4.729   1.793  0.2194  0.4265  0.2609
16930TIP3   OH272280   0.418   3.896  13.625  0.0526 -0.2254 -0.4685
16930TIP3    H172281   0.497   3.843  13.634 -0.0285 -0.4329 -0.9623
16930TIP3    H272282   0.449   3.986  13.635  0.3832 -0.2950 -0.8468
16931TIP3   OH272283   6.509   0.408   0.770 -0.6021  0.2795  0.1898
16931TIP3    H172284   6.464   0.341   0.822 -0.4328  0.5017  0.6295
16931TIP3    H272285   6.591   0.422   0.817 -1.5368  2.3082  1.2909
16932TIP3   OH272286   0.277   3.037   1.947 -0.1127  0.0832  0.2223
16932TIP3    H172287   0.344   2.970   1.957 -1.9879 -2.0508 -0.9530
16932TIP3    H272288   0.239   3.046   2.034 -0.9689 -1.6490  0.0544
16933TIP3   OH272289   5.182   0.262   0.692 -0.7276  0.4567 -0.7297
16933TIP3    H172290   5.235   0.199   0.741 -0.7365  0.0166 -1.2927
16933TIP3    H272291   5.103   0.273   0.745  0.0021  1.2861  0.2362
16934TIP3   OH272292   5.680   5.783   0.503 -0.0231 -0.0189  0.1244
16934TIP3    H172293   5.748   5.814   0.443 -1.2756  0.4617 -1.0979
16934TIP3    H272294   5.659   5.695   0.472  1.8963 -1.2164  2.1537
16935TIP3   OH272295   2.950   5.306   6.602  0.2127 -0.2565  0.3403
16935TIP3    H172296   2.884   5.296   6.671 -0.3899 -0.5244 -0.2667
16935TIP3    H272297   2.906   5.356   6.534  1.2473  1.2340  0.7244
16936TIP3   OH272298   4.453   2.054   6.100 -0.1117  0.8758  0.0242
16936TIP3    H172299   4.499   2.115   6.158  0.0967  0.4419  0.3144
16936TIP3    H272300   4.463   1.969   6.142 -0.0903  0.5853 -0.5761
16937TIP3   OH272301   3.408   1.811   2.622  0.0104  0.4270 -0.6812
16937TIP3    H172302   3.395   1.873   2.694 -0.9251 -1.1892  0.5740
16937TIP3    H272303   3.323   1.768   2.611  1.2439 -2.3512  0.1105
16938TIP3   OH272304   1.401   5.414   2.440  0.0245 -0.5340  0.4153
16938TIP3    H172305   1.461   5.411   2.365 -1.3455 -1.3474 -0.6702
16938TIP3    H272306   1.414   5.331   2.485  0.9446  0.0094  1.1921
16939TIP3   OH272307   0.796   0.157   0.864 -0.1510 -0.0859 -0.8563
16939TIP3    H172308   0.790   0.203   0.947  1.1331 -1.0989 -0.1930
16939TIP3    H272309   0.881   0.182   0.828  0.1940 -1.2621 -0.8794
16940TIP3   OH272310   5.948   1.654   6.134 -0.5500 -0.6085  0.1540
16940TIP3    H172311   6.029   1.604   6.126  0.0059  0.5308 -1.6007
16940TIP3    H272312   5.976   1.741   6.164 -1.0944 -0.1850 -0.5451
16941TIP3   OH272313   4.284   1.516   5.684 -0.0329 -0.1185  0.0814
16941TIP3    H172314   4.276   1.422   5.670 -1.2552 -0.3112  1.9240
16941TIP3    H272315   4.234   1.556   5.612  1.5168 -0.8128 -1.4267
16942TIP3   OH272316   5.258   2.792   3.546 -0.6088  0.5301 -0.7446
16942TIP3    H172317   5.289   2.801   3.636  0.9596 -0.8448 -1.1306
16942TIP3    H272318   5.164   2.772   3.554  0.0685 -2.3168  0.7022
16943TIP3   OH272319   5.539   4.743  11.263  0.2477 -0.0261 -0.1976
16943TIP3    H172320   5.595   4.756  11.186  0.8871  1.9028  0.5600
16943TIP3    H272321   5.468   4.806  11.251 -1.1842 -1.6700 -0.5815
16944TIP3   OH272322   2.655   4.397  15.807 -0.2055 -0.0197 -0.3075
16944TIP3    H172323   2.567   4.418  15.839 -0.0603  2.7120 -1.5574
16944TIP3    H272324   2.708   4.472  15.831  0.4663  1.0123 -4.5532
16945TIP3   OH272325   4.756   2.707   2.113 -0.1099  0.1669 -0.0488
16945TIP3    H172326   4.784   2.796   2.091  1.0652 -0.8433 -2.8841
16945TIP3    H272327   4.687   2.719   2.179  0.3658  3.1262 -0.0226
16946TIP3   OH272328   1.143   0.071  17.171 -0.2103 -0.2320  0.6929
16946TIP3    H172329   1.079   0.120  17.223 -0.1006  0.8414 -0.1699
16946TIP3    H272330   1.157   0.124  17.093 -0.8115 -2.1191 -0.7382
16947TIP3   OH272331   5.577   5.224  17.006  0.3507  0.0234 -0.3658
16947TIP3    H172332   5.583   5.128  17.004 -0.1569 -0.1178  2.3796
16947TIP3    H272333   5.661   5.254  16.971 -0.4714 -1.3589 -3.6977
16948TIP3   OH272334   5.596   2.507  11.964 -0.7050  0.4528  0.2741
16948TIP3    H172335   5.661   2.461  12.017 -0.9451  0.2385  0.3861
16948TIP3    H272336   5.586   2.592  12.007 -0.0680  0.7032 -0.0837
16949TIP3   OH272337   0.365   3.601  11.471  0.1604  0.6266 -0.0354
16949TIP3    H172338   0.379   3.520  11.422 -1.4928  0.9993 -1.1875
16949TIP3    H272339   0.410   3.588  11.554  1.1445 -0.8902 -0.7988
16950TIP3   OH272340   0.292   0.441   1.514 -0.3787  0.4165  0.1189
16950TIP3    H172341   0.363   0.455   1.452 -1.7117 -2.9536 -2.3642
16950TIP3    H272342   0.216   0.484   1.474 -0.2685  2.0399  1.6221
16951TIP3   OH272343   1.014   3.520  12.058 -0.0662 -0.1602 -0.0818
16951TIP3    H172344   0.976   3.572  11.988 -1.0067  0.7165  1.0581
16951TIP3    H272345   1.028   3.581  12.130 -0.2048 -1.2601  0.9095
16952TIP3   OH272346   0.059   4.315  11.182  0.0652  0.3957  0.3276
16952TIP3    H172347  -0.031   4.346  11.193  0.0974  0.6457 -0.1172
16952TIP3    H272348   0.112   4.379  11.229 -0.0321 -0.0539  1.0634
16953TIP3   OH272349   2.667   2.566  14.735  0.6017  0.0217  0.3995
16953TIP3    H172350   2.678   2.660  14.745 -0.0092  0.1010  0.3844
16953TIP3    H272351   2.708   2.546  14.651 -1.1588  0.6394 -0.6507
16954TIP3   OH272352   4.797   6.238   2.176  0.1105 -0.5954  0.1712
16954TIP3    H172353   4.808   6.285   2.259  1.6478 -0.2693 -0.2046
16954TIP3    H272354   4.848   6.288   2.113 -1.0970 -0.8188 -0.9946
16955TIP3   OH272355   6.088   6.359  12.292 -0.0560 -0.2485 -0.6924
16955TIP3    H172356   6.172   6.332  12.254 -0.1561 -1.6410  0.0316
16955TIP3    H272357   6.112   6.407  12.371  0.0560 -0.5275 -0.5567
16956TIP3   OH272358   4.353   0.828  11.614  0.0607 -0.2289 -0.6806
16956TIP3    H172359   4.308   0.775  11.680  1.5045 -0.1031  0.4498
16956TIP3    H272360   4.324   0.917  11.631  0.5997 -0.1686 -0.0632
16957TIP3   OH272361   4.975   3.515  11.195 -0.1945 -0.4215 -0.1838
16957TIP3    H172362   5.016   3.584  11.142 -1.5987  0.5196 -0.0767
16957TIP3    H272363   4.883   3.539  11.197 -0.2925 -0.9235  1.9910
16958TIP3   OH272364   1.359   0.707   2.059  0.2077  0.1435  0.3866
16958TIP3    H172365   1.358   0.774   2.127  1.0798 -0.4503  0.9983
16958TIP3    H272366   1.329   0.627   2.103  0.7693 -0.2385  0.0840
16959TIP3   OH272367   1.296   2.139  15.547  0.3470 -0.3773 -0.0167
16959TIP3    H172368   1.327   2.162  15.460  2.2075 -1.5637  0.2940
16959TIP3    H272369   1.304   2.220  15.598  0.8828 -0.1270 -0.5023
16960TIP3   OH272370   4.180   1.607   0.993  0.0446  0.3932 -0.4419
16960TIP3    H172371   4.202   1.700   0.996 -0.7293  0.5673 -0.0448
16960TIP3    H272372   4.187   1.577   1.084 -1.7915  0.5663 -0.2199
16961TIP3   OH272373   2.671   6.427  17.179  0.3994  0.0002 -0.3280
16961TIP3    H172374   2.646   6.360  17.242 -0.1538 -0.7113 -1.3077
16961TIP3    H272375   2.596   6.437  17.121  0.8555  0.7379 -0.8124
16962TIP3   OH272376   1.700   1.384   2.713 -0.1457  0.1836 -0.1303
16962TIP3    H172377   1.696   1.424   2.626 -1.6330 -0.5796 -0.4297
16962TIP3    H272378   1.675   1.293   2.698 -2.7155  0.6002  1.4282
16963TIP3   OH272379   0.862   0.659   0.417 -0.1372 -0.3966  0.6025
16963TIP3    H172380   0.846   0.583   0.362  0.7721 -0.8231  0.9321
16963TIP3    H272381   0.955   0.678   0.407 -0.1640  0.1122  1.2431
16964TIP3   OH272382   4.267   6.417  14.073  0.2952 -0.2900 -0.1693
16964TIP3    H172383   4.173   6.416  14.055 -0.0124  0.7985  1.2777
16964TIP3    H272384   4.290   6.509  14.079  0.7416 -0.5355  2.8930
16965TIP3   OH272385   3.818   5.858   4.774 -0.8154 -0.2343  0.3921
16965TIP3    H172386   3.899   5.850   4.724 -1.1166  0.1308 -0.1636
16965TIP3    H272387   3.819   5.948   4.806 -0.4814 -0.5563  1.2941
16966TIP3   OH272388   2.977   2.108   3.383 -0.6986 -0.0295 -0.2076
16966TIP3    H172389   2.969   2.016   3.406  1.3726 -0.4632 -1.0975
16966TIP3    H272390   2.953   2.155   3.463 -0.2320 -1.3741  0.7273
16967TIP3   OH272391   1.311   0.758   4.310 -0.5953  0.3474 -0.2209
16967TIP3    H172392   1.260   0.813   4.370  1.9725  2.0808  0.4386
16967TIP3    H272393   1.357   0.820   4.253  0.3756 -1.1802 -1.1566
16968TIP3   OH272394   1.109   0.965   3.813 -0.3986 -0.3448 -0.1135
16968TIP3    H172395   1.181   0.921   3.858 -1.2075  0.9178  2.5201
16968TIP3    H272396   1.132   1.058   3.817 -2.1400  0.0702  0.7270
16969TIP3   OH272397   2.600   0.239  16.453  0.3611  0.2686 -0.0113
16969TIP3    H172398   2.673   0.280  16.408  0.2109 -0.4598 -0.9347
16969TIP3    H272399   2.634   0.222  16.541  1.4506 -0.4138 -0.5372
16970TIP3   OH272400   0.959   4.106  13.023  0.1789  0.2506  0.1676
16970TIP3    H172401   0.868   4.084  13.003  0.1346 -0.7555  1.3945
16970TIP3    H272402   1.009   4.071  12.949 -0.4013  0.4582 -0.3231
16971TIP3   OH272403   0.357   1.444   0.164 -0.8592 -0.4442 -0.8215
16971TIP3    H172404   0.448   1.425   0.186 -0.0408  0.3841 -3.3233
16971TIP3    H272405   0.310   1.363   0.187  0.4016 -0.7150  0.9177
16972TIP3   OH272406   0.277   0.057   0.126 -0.0501  0.7294  0.0158
16972TIP3    H172407   0.363   0.019   0.144 -1.2814 -1.9786  0.4735
16972TIP3    H272408   0.270   0.058   0.031  0.3297  0.5670 -0.0137
16973TIP3   OH272409   3.074   5.387   6.139 -0.0048 -0.1674 -0.0647
16973TIP3    H172410   3.063   5.457   6.203  0.9980  0.4502 -0.5638
16973TIP3    H272411   3.039   5.423   6.057 -1.0298 -0.8545  0.0518
16974TIP3   OH272412   3.473   1.994   3.984  0.0320  0.8874  0.5211
16974TIP3    H172413   3.501   2.084   3.998  0.0568  0.9318  0.2021
16974TIP3    H272414   3.387   2.002   3.943  0.4906  0.7848 -0.4862
16975TIP3   OH272415   6.114   4.452  14.171  0.8532  0.3208 -0.4892
16975TIP3    H172416   6.113   4.436  14.265 -0.8976  1.2855 -0.3357
16975TIP3    H272417   6.177   4.388  14.137 -0.2442 -1.6364  1.0384
16976TIP3   OH272418   1.853   6.538  15.756  0.2905 -0.4059 -0.4485
16976TIP3    H172419   1.911   6.521  15.681 -0.5669 -1.1990 -0.9431
16976TIP3    H272420   1.886   6.480  15.824  0.8686  0.0738 -0.3187
16977TIP3   OH272421   3.537   5.308   0.855 -0.1826 -0.0505 -0.1359
16977TIP3    H172422   3.474   5.248   0.815  1.4803 -2.6313  1.0670
16977TIP3    H272423   3.489   5.348   0.928 -1.1264 -0.2575 -0.6332
16978TIP3   OH272424   1.798   1.143   3.463  0.2051  0.4296  0.6114
16978TIP3    H172425   1.746   1.064   3.451  0.4087  0.3919 -0.0256
16978TIP3    H272426   1.888   1.111   3.470  0.2108  0.5460  1.0830
16979TIP3   OH272427   0.079   5.505   0.319 -0.7789 -0.0278  0.6533
16979TIP3    H172428   0.036   5.460   0.392 -1.2958  0.1358  0.4522
16979TIP3    H272429   0.014   5.567   0.288  0.4715  1.9782  1.9411
16980TIP3   OH272430   4.579   4.583   4.683  0.3874 -0.0163  0.2478
16980TIP3    H172431   4.519   4.558   4.754 -1.2237  2.5395 -0.1377
16980TIP3    H272432   4.645   4.639   4.726 -1.1081  2.2901 -0.3403
16981TIP3   OH272433   6.705   3.310   1.238 -0.5758 -0.1848  0.0581
16981TIP3    H172434   6.648   3.251   1.286  0.4019 -1.7179 -0.6369
16981TIP3    H272435   6.767   3.342   1.303 -2.5352  1.9558  0.9506
16982TIP3   OH272436   0.447   2.560   2.503  0.1693 -0.0229 -0.6433
16982TIP3    H172437   0.397   2.525   2.429  0.8594 -1.9698 -0.2243
16982TIP3    H272438   0.388   2.552   2.578  0.7468 -1.4550 -0.3230
16983TIP3   OH272439   3.931   5.358  15.990  0.2297  0.4576 -0.4678
16983TIP3    H172440   3.864   5.306  16.034 -0.6661  0.8547 -1.3513
16983TIP3    H272441   3.993   5.294  15.955  0.8594  0.1285  1.2055
16984TIP3   OH272442   3.021   3.275  11.806  0.1625  0.7612 -0.0297
16984TIP3    H172443   2.981   3.259  11.720 -0.2109  1.6468 -0.0211
16984TIP3    H272444   3.115   3.266  11.790  0.0149 -0.6112 -0.2006
16985TIP3   OH272445   2.186   2.890   6.297  0.5310  0.0434 -0.6074
16985TIP3    H172446   2.109   2.893   6.353 -0.5498 -1.9012 -1.9428
16985TIP3    H272447   2.246   2.831   6.342  0.3708 -0.1397 -0.6334
16986TIP3   OH272448   2.180   3.654  15.243 -0.8465  0.1736 -0.4200
16986TIP3    H172449   2.201   3.743  15.216 -0.6239  0.5042  0.8001
16986TIP3    H272450   2.225   3.643  15.326 -1.0969 -0.9862 -0.4314
16987TIP3   OH272451   5.462   1.169   4.735 -0.3891 -0.8028  0.2379
16987TIP3    H172452   5.443   1.080   4.706  1.3808 -0.7476 -1.1460
16987TIP3    H272453   5.543   1.162   4.785  0.1704  0.1240 -0.5151
16988TIP3   OH272454   5.675   1.243   4.868 -0.3413 -0.1498  1.0153
16988TIP3    H172455   5.768   1.252   4.888 -0.3101 -2.0276  1.9113
16988TIP3    H272456   5.646   1.331   4.845  1.9527  0.2349 -0.5890
16989TIP3   OH272457   2.929   0.386   1.465 -0.0085  0.1562 -0.6268
16989TIP3    H172458   2.994   0.456   1.468  0.0485  0.0416  1.9545
16989TIP3    H272459   2.854   0.420   1.515 -0.8808 -0.7321 -1.3119
16990TIP3   OH272460   3.965   1.625   5.778 -0.2548  0.1795 -0.2581
16990TIP3    H172461   3.928   1.537   5.789  1.2320 -0.4457 -0.0836
16990TIP3    H272462   3.957   1.666   5.864  1.1034 -0.6119  0.2532
16991TIP3   OH272463   3.290   3.086   7.154  0.4203 -0.6266  0.2589
16991TIP3    H172464   3.323   3.004   7.116 -0.2095  0.1509 -2.0671
16991TIP3    H272465   3.302   3.151   7.084  0.4299  1.1634  1.8884
16992TIP3   OH272466   1.187   0.574  17.252  0.0959 -0.3935 -0.0112
16992TIP3    H172467   1.139   0.522  17.188 -2.6108  0.9728  0.8233
16992TIP3    H272468   1.177   0.527  17.334 -0.2498  0.1595  0.2668
16993TIP3   OH272469   2.987   4.075  17.175  0.6857  0.8439  0.0296
16993TIP3    H172470   2.894   4.082  17.198  0.8943  1.8158  0.6145
16993TIP3    H272471   3.021   4.007  17.234  0.0368 -0.6139 -1.2310
16994TIP3   OH272472   6.704   0.752   4.603  0.1105  0.3870  0.5245
16994TIP3    H172473   6.730   0.687   4.668 -3.3610  1.2452  2.8905
16994TIP3    H272474   6.693   0.833   4.654  0.3904  1.8604 -1.6916
16995TIP3   OH272475   3.285   6.713   2.465  0.4900  0.4296  0.1677
16995TIP3    H172476   3.379   6.725   2.449  0.8641 -2.9262 -0.6359
16995TIP3    H272477   3.259   6.647   2.401 -2.4990  1.4684  0.2588
16996TIP3   OH272478   0.772   0.491  12.171 -0.9540 -0.1775  0.3619
16996TIP3    H172479   0.839   0.443  12.219  0.1518  2.5358  1.5981
16996TIP3    H272480   0.816   0.520  12.090 -1.2402 -0.1771  0.2031
16997TIP3   OH272481   0.641   2.721   6.896  0.3314 -0.7747  0.6208
16997TIP3    H172482   0.565   2.673   6.927 -0.2151 -1.5253 -1.7746
16997TIP3    H272483   0.708   2.654   6.882  0.9597 -0.3023  1.3069
16998TIP3   OH272484   5.864   2.318  15.487 -0.3903 -0.0438  0.1538
16998TIP3    H172485   5.913   2.400  15.483  0.5354 -0.6236 -0.7355
16998TIP3    H272486   5.846   2.297  15.395 -1.3145 -0.4339  0.4178
16999TIP3   OH272487   5.991   4.201  16.902 -0.6878  0.4535  0.2794
16999TIP3    H172488   6.033   4.229  16.984  0.7019 -2.0066  0.4567
16999TIP3    H272489   5.901   4.180  16.928 -1.5341  3.7886  0.2920
17000TIP3   OH272490   0.814   0.218  14.804 -0.4615  0.1421 -0.4817
17000TIP3    H172491   0.894   0.218  14.752 -1.1334  1.1515 -1.5353
17000TIP3    H272492   0.746   0.191  14.742 -0.9065 -0.9010  0.4533
17001TIP3   OH272493   1.267   6.606  16.481  0.4705  0.0363  0.1364
17001TIP3    H172494   1.262   6.699  16.460 -1.7182  0.4196  2.1459
17001TIP3    H272495   1.344   6.598  16.537  0.0735  0.8407  0.8128
17002TIP3   OH272496   5.629   3.374  14.881 -0.3964  0.0811  0.0737
17002TIP3    H172497   5.657   3.290  14.845 -0.4726 -0.4529  1.2557
17002TIP3    H272498   5.630   3.362  14.976  0.0595  1.5573  0.2799
17003TIP3   OH272499   5.881   1.035  13.969  0.2007 -0.4701 -0.7298
17003TIP3    H172500   5.912   1.122  13.944  2.2945 -0.9223  0.1589
17003TIP3    H272501   5.942   0.975  13.925 -0.0942 -1.4173  0.1433
17004TIP3   OH272502   0.260   3.916   2.332 -0.1150  0.0690  0.6785
17004TIP3    H172503   0.235   3.900   2.241 -1.0571  0.7753  0.8075
17004TIP3    H272504   0.352   3.892   2.336  0.2693  1.2180 -0.7718
17005TIP3   OH272505   5.595   0.260   3.754  0.3647 -0.1837  0.0535
17005TIP3    H172506   5.563   0.298   3.836 -0.3011  0.3626 -0.4495
17005TIP3    H272507   5.568   0.169   3.757 -0.2244 -0.0092  0.1557
17006TIP3   OH272508   6.292   5.678   5.793 -0.6361 -0.6649 -0.2746
17006TIP3    H172509   6.223   5.655   5.730 -1.0138  0.0314 -0.1216
17006TIP3    H272510   6.259   5.645   5.877 -0.2631 -1.3343 -0.3835
17007TIP3   OH272511   4.750   1.156  13.431 -0.1887  0.4210 -0.5106
17007TIP3    H172512   4.747   1.077  13.484  1.0743  0.6408 -0.0927
17007TIP3    H272513   4.717   1.225  13.488 -0.7138  0.3012 -0.6717
17008TIP3   OH272514   2.531   6.180   3.029 -0.5416  0.4950  0.6783
17008TIP3    H172515   2.496   6.266   3.050 -1.2884 -0.0359  1.6489
17008TIP3    H272516   2.472   6.119   3.073  0.8643 -0.4640  1.2604
17009TIP3   OH272517   6.084   3.030  13.318 -0.1052 -0.5848 -0.2365
17009TIP3    H172518   6.012   2.973  13.347 -0.2295 -0.1310  0.3488
17009TIP3    H272519   6.122   2.984  13.243  0.5335 -2.0126  0.9392
17010TIP3   OH272520   4.331   3.912   1.714  0.6829  0.3066 -0.4247
17010TIP3    H172521   4.283   3.914   1.797 -0.1610  0.5914 -0.9049
17010TIP3    H272522   4.417   3.877   1.736  0.4792  0.4215  0.5765
17011TIP3   OH272523   0.842   2.762  14.061  0.9939 -0.5672 -0.3146
17011TIP3    H172524   0.900   2.817  14.009  0.1243 -0.3676 -1.0693
17011TIP3    H272525   0.766   2.817  14.079  1.2809 -0.6318  1.1708
17012TIP3   OH272526   2.999   0.135   0.946  0.3588  0.3079  0.4444
17012TIP3    H172527   3.073   0.103   0.895  0.5149 -1.3929  1.6962
17012TIP3    H272528   3.038   0.196   1.009 -0.0476  3.8114 -2.5164
17013TIP3   OH272529   0.201   4.725   4.092 -0.3153 -0.3396  0.3292
17013TIP3    H172530   0.274   4.785   4.103 -1.5294  0.7298  2.9251
17013TIP3    H272531   0.141   4.770   4.034  0.9972 -1.1797 -1.7331
17014TIP3   OH272532   4.828   6.591   0.026  0.7755  0.2595 -0.3217
17014TIP3    H172533   4.735   6.569   0.023  0.6813  0.7130 -0.8819
17014TIP3    H272534   4.832   6.672   0.077  0.7336  0.8762 -1.2848
17015TIP3   OH272535   0.098   2.214   2.199  0.1406 -0.0318  0.0684
17015TIP3    H172536   0.081   2.298   2.157  1.1503  0.8327  1.3289
17015TIP3    H272537   0.184   2.188   2.165  1.8246  1.5728  2.9078
17016TIP3   OH272538   6.361   6.452   5.056 -0.1139 -0.5044 -0.2653
17016TIP3    H172539   6.453   6.433   5.075 -0.1454  0.2395  0.7107
17016TIP3    H272540   6.341   6.527   5.112 -1.1607 -0.3168 -0.8854
17017TIP3   OH272541   3.362   4.577   4.568 -0.0331 -0.7347  0.1149
17017TIP3    H172542   3.396   4.488   4.576  0.3821 -0.5591  0.3455
17017TIP3    H272543   3.411   4.614   4.494  0.9031 -0.2012  0.9908
17018TIP3   OH272544   2.932   2.744   4.091  0.0375 -0.4977 -0.1176
17018TIP3    H172545   2.878   2.716   4.165 -0.0118 -0.3831 -0.1109
17018TIP3    H272546   3.000   2.677   4.085  0.1199 -0.4350  0.1165
17019TIP3   OH272547   0.841   0.023  15.761 -0.1452 -0.2291  0.0964
17019TIP3    H172548   0.872  -0.055  15.716 -1.6385 -1.1835  0.7016
17019TIP3    H272549   0.747   0.026  15.745 -0.0977  1.5093 -0.0027
17020TIP3   OH272550   2.694   4.017  15.362 -0.1932 -0.1365 -0.4981
17020TIP3    H172551   2.621   3.982  15.414  0.2360  0.8792  0.7920
17020TIP3    H272552   2.653   4.045  15.280 -1.1444 -0.2231 -0.0608
17021TIP3   OH272553   2.517   4.054  15.923  0.5164 -0.2326 -0.0397
17021TIP3    H172554   2.423   4.034  15.925  0.5281 -0.4929 -1.3824
17021TIP3    H272555   2.526   4.122  15.857  1.7781 -3.2533 -3.1269
17022TIP3   OH272556   1.020   0.241  12.817 -0.0146 -0.1459  0.3511
17022TIP3    H172557   1.036   0.287  12.900  1.9500  0.4035 -0.3053
17022TIP3    H272558   1.104   0.200  12.796 -0.4197 -0.0819 -1.4796
17023TIP3   OH272559   4.930   5.876   5.339 -0.4558 -0.5675  0.2442
17023TIP3    H172560   4.876   5.892   5.417 -0.9416 -0.8019 -0.0437
17023TIP3    H272561   4.954   5.784   5.345  0.6408 -0.2580  0.8249
17024TIP3   OH272562   1.787   0.188   5.975 -0.0531  0.3960  0.0623
17024TIP3    H172563   1.840   0.131   5.919 -1.6555 -1.5503  0.4826
17024TIP3    H272564   1.851   0.229   6.034  1.5465  1.8080 -2.5601
17025TIP3   OH272565   5.697   4.937  11.726  0.0971 -0.0612  0.6333
17025TIP3    H172566   5.655   4.901  11.648 -1.8297 -1.9456  2.4736
17025TIP3    H272567   5.700   5.031  11.711 -3.2012 -0.0587 -0.3093
17026TIP3   OH272568   2.686   6.217   5.276  0.2544  0.3581  0.3135
17026TIP3    H172569   2.684   6.268   5.195  1.7253 -0.9698 -0.5830
17026TIP3    H272570   2.778   6.219   5.303 -0.2249  0.7935  1.9792
17027TIP3   OH272571   4.371   5.827   3.332  0.5160  0.0448  0.1828
17027TIP3    H172572   4.380   5.915   3.294  0.4132 -0.6310 -1.4295
17027TIP3    H272573   4.396   5.768   3.262 -1.4527 -1.3115  0.5686
17028TIP3   OH272574   4.842   3.950  15.931 -0.0404 -0.2116 -0.2038
17028TIP3    H172575   4.869   3.950  15.839 -1.7874 -1.2182 -0.7511
17028TIP3    H272576   4.781   3.877  15.937 -0.9215  0.6454  1.4780
17029TIP3   OH272577   5.174   5.836   0.025 -0.2962 -0.3042  0.1531
17029TIP3    H172578   5.188   5.909  -0.035 -0.1158 -0.8149 -0.4359
17029TIP3    H272579   5.231   5.854   0.099 -0.6778  0.4427  0.2758
17030TIP3   OH272580   5.888   0.854   4.717 -0.4823  0.0400 -0.0260
17030TIP3    H172581   5.885   0.912   4.641 -0.7905  0.9231  0.6642
17030TIP3    H272582   5.946   0.897   4.779  1.3450 -1.6311 -0.5248
17031TIP3   OH272583   4.382   0.935  11.985 -0.0108 -0.7638 -0.8001
17031TIP3    H172584   4.469   0.954  11.950  0.5675 -1.9643 -0.0344
17031TIP3    H272585   4.322   0.953  11.912  0.7574  1.1405 -1.0082
17032TIP3   OH272586   1.492   5.900  16.951  0.2840 -0.2600 -0.6494
17032TIP3    H172587   1.562   5.838  16.976 -0.3597 -0.8175 -0.2046
17032TIP3    H272588   1.505   5.914  16.858  0.8338 -0.5644 -0.6222
17033TIP3   OH272589   0.864   4.911  14.010  0.6498 -0.6702  0.1835
17033TIP3    H172590   0.931   4.979  14.009  0.3857 -0.4121 -0.7298
17033TIP3    H272591   0.809   4.930  13.934 -0.6321 -0.6996  1.0762
17034TIP3   OH272592   0.629   0.968  15.713  0.7496  0.1418  0.3938
17034TIP3    H172593   0.656   0.979  15.804  0.3370 -0.7097  0.6382
17034TIP3    H272594   0.648   0.876  15.694  1.5225  0.5070 -0.6238
17035TIP3   OH272595   5.615   6.581   4.583 -0.1987  0.1424 -0.3574
17035TIP3    H172596   5.546   6.624   4.635 -1.0377 -0.4493 -0.9775
17035TIP3    H272597   5.689   6.574   4.643  0.1709  2.9852 -0.3962
17036TIP3   OH272598   1.817   3.549  10.327  0.0853 -0.2868  0.2488
17036TIP3    H172599   1.846   3.497  10.403  1.2631  0.3226  0.2343
17036TIP3    H272600   1.850   3.637  10.346  0.2462 -0.0997 -0.8952
17037TIP3   OH272601   4.222   3.604  13.898  0.3298  0.1749 -0.1965
17037TIP3    H172602   4.132   3.584  13.920  0.7468 -0.6648  0.7915
17037TIP3    H272603   4.217   3.657  13.818 -1.0905  1.3325  0.6582
17038TIP3   OH272604   1.722   2.231  12.436 -0.0010 -0.1942  0.3980
17038TIP3    H172605   1.806   2.195  12.465  0.5820 -0.7606 -1.8546
17038TIP3    H272606   1.710   2.309  12.489  1.1111 -1.0415  1.9474
17039TIP3   OH272607   1.682   5.289  13.244  0.1203  0.4094  0.3865
17039TIP3    H172608   1.665   5.207  13.290 -1.5154  2.4139  3.5792
17039TIP3    H272609   1.609   5.299  13.183  0.0992 -0.2922  0.2938
17040TIP3   OH272610   4.849   1.051   4.942 -0.8410 -0.1369  0.0984
17040TIP3    H172611   4.897   1.129   4.970  0.5108 -0.8978 -0.0743
17040TIP3    H272612   4.882   1.032   4.855 -0.2917 -1.5916  0.6068
17041TIP3   OH272613   3.679   3.291  15.825  0.1772 -0.2319 -0.1017
17041TIP3    H172614   3.663   3.223  15.892  1.8922  1.1510  1.7495
17041TIP3    H272615   3.593   3.303  15.784 -1.7543  1.1537  4.0392
17042TIP3   OH272616   2.994   3.377  16.852  0.2000  0.2085 -0.3317
17042TIP3    H172617   2.994   3.291  16.809 -1.3133  0.0453 -0.0456
17042TIP3    H272618   3.035   3.436  16.789  1.3486 -0.7368 -0.4914
17043TIP3   OH272619   6.021   6.222  11.903  0.1056 -0.0697  0.1995
17043TIP3    H172620   6.006   6.313  11.930  0.3078  0.2549 -0.7794
17043TIP3    H272621   6.062   6.229  11.817 -0.3584 -1.1059 -0.1061
17044TIP3   OH272622   1.596   1.687   1.654 -0.2803  0.1423  0.1675
17044TIP3    H172623   1.638   1.607   1.621 -1.9719 -1.0621  0.8309
17044TIP3    H272624   1.570   1.735   1.575 -0.0096 -0.3860 -0.2458
17045TIP3   OH272625   3.693   4.429  13.270  0.6222 -0.4231 -0.2200
17045TIP3    H172626   3.629   4.365  13.238  0.5869 -0.4686 -0.0615
17045TIP3    H272627   3.659   4.456  13.355 -1.0698  2.2401 -1.6705
17046TIP3   OH272628   0.413   0.546  13.569 -0.2726 -0.2316 -0.2999
17046TIP3    H172629   0.348   0.495  13.520 -0.6144 -0.1842  0.0959
17046TIP3    H272630   0.497   0.520  13.532 -0.5186 -0.3189 -0.7975
17047TIP3   OH272631   2.475   4.339   0.713  0.4165 -0.3393 -0.1162
17047TIP3    H172632   2.509   4.307   0.797  2.4207  2.1703  0.0756
17047TIP3    H272633   2.419   4.413   0.736 -1.7944 -1.7681 -0.7716
17048TIP3   OH272634   3.662   6.380  11.919  0.5539 -0.5879 -0.3519
17048TIP3    H172635   3.652   6.324  11.842 -0.4498 -0.2571 -0.4705
17048TIP3    H272636   3.725   6.334  11.974 -0.5042 -2.0154 -0.3009
17049TIP3   OH272637   6.629   5.069  17.183  0.3246 -0.2535  0.3023
17049TIP3    H172638   6.635   5.143  17.122 -0.2730 -1.5368 -1.3373
17049TIP3    H272639   6.536   5.065  17.206  0.7517  1.0595  2.3835
17050TIP3   OH272640   6.064   1.071   4.819  0.8126 -0.5233  0.1137
17050TIP3    H172641   6.107   1.144   4.774  0.5314  0.3050  1.1937
17050TIP3    H272642   6.133   1.005   4.828  1.0533 -0.4276 -0.9235
17051TIP3   OH272643   6.272   2.386   5.449  0.1479  0.3427 -0.0870
17051TIP3    H172644   6.232   2.390   5.362 -1.4930  0.1120  0.6530
17051TIP3    H272645   6.206   2.422   5.508  0.7111 -0.8290  1.2728
17052TIP3   OH272646   6.403   6.475  12.634 -0.4255  0.2784  0.1815
17052TIP3    H172647   6.349   6.539  12.681 -0.3916  1.0592 -0.8196
17052TIP3    H272648   6.484   6.522  12.613  0.2860 -0.6194  0.9110
17053TIP3   OH272649   3.489   6.385  16.417 -0.2645 -0.0755  0.3498
17053TIP3    H172650   3.543   6.457  16.385 -1.2407  0.3473 -0.3994
17053TIP3    H272651   3.485   6.324  16.344 -2.7149  1.0101 -0.4796
17054TIP3   OH272652   4.532   3.160   5.770 -0.0804  0.0848 -0.2294
17054TIP3    H172653   4.465   3.094   5.782 -0.1037  0.4455  1.7148
17054TIP3    H272654   4.589   3.152   5.847  1.1896  0.8436 -1.0552
17055TIP3   OH272655   0.481   3.560   2.255 -0.1495 -0.5457 -0.0588
17055TIP3    H172656   0.503   3.485   2.198  0.2955 -1.2886  1.0831
17055TIP3    H272657   0.540   3.551   2.330 -0.7185  0.4506  0.5073
17056TIP3   OH272658   0.005   3.341   4.812 -0.9492 -0.2466 -0.3564
17056TIP3    H172659  -0.034   3.409   4.757  1.1232  1.2529 -0.0328
17056TIP3    H272660   0.026   3.270   4.752 -0.6839  0.4997 -1.1531
17057TIP3   OH272661   3.808   5.226   3.852  0.6239  0.9682  0.5800
17057TIP3    H172662   3.802   5.298   3.789  0.9728  0.5044  0.0120
17057TIP3    H272663   3.902   5.211   3.861  0.5182 -0.8192 -0.9197
17058TIP3   OH272664   2.189   3.333  12.488  0.1812  0.2178  0.1575
17058TIP3    H172665   2.233   3.287  12.560  1.6390  2.0976  0.5012
17058TIP3    H272666   2.195   3.273  12.414  2.0991 -0.1257  0.5797
17059TIP3   OH272667   6.238   6.325   1.896 -0.8464  0.5607  0.0667
17059TIP3    H172668   6.266   6.313   1.805  0.3640  2.7666  0.1057
17059TIP3    H272669   6.144   6.311   1.895 -0.6502 -0.7266 -1.2826
17060TIP3   OH272670   3.134   0.592   1.796  0.5019 -0.0508  0.0959
17060TIP3    H172671   3.209   0.649   1.813 -0.1233  0.6348  0.5679
17060TIP3    H272672   3.140   0.523   1.862  0.2160  0.4998  0.6996
17061TIP3   OH272673   5.856   4.306   5.032 -0.1411  0.3876 -0.0748
17061TIP3    H172674   5.940   4.261   5.022 -0.6569 -0.1864 -1.9415
17061TIP3    H272675   5.804   4.246   5.086  0.3064  0.2875  0.2543
17062TIP3   OH272676   5.288   3.628  16.724  0.3984 -0.4363  0.2677
17062TIP3    H172677   5.371   3.633  16.676  0.2576 -0.8568 -0.0166
17062TIP3    H272678   5.289   3.542  16.766 -0.9278 -1.4326 -1.6536
17063TIP3   OH272679   3.235   3.180  11.322 -0.1430  0.3377  0.2927
17063TIP3    H172680   3.301   3.129  11.276  0.1633 -0.6870  1.8314
17063TIP3    H272681   3.273   3.268  11.327  0.7275 -0.0344  0.4030
17064TIP3   OH272682   0.411   4.045   5.400  0.6139  0.1185  0.2997
17064TIP3    H172683   0.407   4.137   5.423 -1.5535 -0.0117  0.5505
17064TIP3    H272684   0.425   4.044   5.305  0.8904  0.6920  0.3335
17065TIP3   OH272685   5.560   0.437   5.599  0.3721  0.5057  0.2075
17065TIP3    H172686   5.614   0.373   5.643  0.3981  0.5612  0.2564
17065TIP3    H272687   5.622   0.496   5.556  0.3778  1.1550  1.0844
17066TIP3   OH272688   1.531   3.442  11.755  0.3632  0.2663 -0.3864
17066TIP3    H172689   1.447   3.489  11.756  0.6690  0.8048  0.5942
17066TIP3    H272690   1.531   3.395  11.672 -0.4554  1.1002 -0.8678
17067TIP3   OH272691   0.345   3.584   0.498  0.2407  0.2261  0.0329
17067TIP3    H172692   0.277   3.593   0.431 -1.1001  0.3916  1.3915
17067TIP3    H272693   0.425   3.614   0.455 -0.8181  1.4499 -1.1159
17068TIP3   OH272694   3.018   1.335  15.504 -0.5325 -0.2095  0.5411
17068TIP3    H172695   3.034   1.415  15.555 -0.5020 -0.3226  0.7091
17068TIP3    H272696   3.050   1.356  15.417  0.3680 -0.3582  0.8270
17069TIP3   OH272697   6.007   0.945  16.012 -0.3433  0.1009 -0.0152
17069TIP3    H172698   6.067   0.874  16.037 -0.1222  0.7816  1.4253
17069TIP3    H272699   5.923   0.920  16.051 -0.1328  0.8834  0.9752
17070TIP3   OH272700   0.370   2.489  10.802 -0.5044 -0.1158  0.0248
17070TIP3    H172701   0.288   2.439  10.800  0.2332 -1.3904  0.9149
17070TIP3    H272702   0.427   2.443  10.740  0.0518 -0.1241  0.5487
17071TIP3   OH272703   2.750   4.526   0.886 -0.5370  0.4027 -0.1402
17071TIP3    H172704   2.797   4.444   0.873  0.8002  1.3542 -1.5373
17071TIP3    H272705   2.672   4.502   0.936  0.7580 -1.4255  1.0717
17072TIP3   OH272706   1.784   6.415   6.811 -0.0127 -0.0430  0.1571
17072TIP3    H172707   1.747   6.331   6.839  3.0546 -1.3734  0.3889
17072TIP3    H272708   1.810   6.458   6.892  1.1080 -0.1723 -0.1284
17073TIP3   OH272709   1.439   2.476   4.235  0.1730  0.3846 -0.6290
17073TIP3    H172710   1.401   2.563   4.252 -3.4024 -1.5577  2.1079
17073TIP3    H272711   1.371   2.429   4.186  2.1580 -0.8029 -2.2783
17074TIP3   OH272712   5.177   1.889  15.504  0.1576 -0.4052 -0.1201
17074TIP3    H172713   5.156   1.802  15.471  0.7014 -0.6828  0.2580
17074TIP3    H272714   5.093   1.935  15.505 -0.6245 -1.7734  2.2119
17075TIP3   OH272715   2.315   3.389   1.035  0.0876  0.2976  0.3492
17075TIP3    H172716   2.250   3.453   1.006 -0.9094 -0.8241  0.1055
17075TIP3    H272717   2.264   3.313   1.064  1.3077 -0.9848 -0.7822
17076TIP3   OH272718   4.608   0.808   0.695 -0.6983  0.5162 -0.7216
17076TIP3    H172719   4.555   0.740   0.736 -0.6873 -0.0109 -1.5808
17076TIP3    H272720   4.574   0.890   0.732  0.4336 -0.0220  1.6397
17077TIP3   OH272721   2.299   2.574   0.665 -0.1349  0.3172  0.1987
17077TIP3    H172722   2.346   2.648   0.626  0.0431  0.3433  0.4550
17077TIP3    H272723   2.266   2.524   0.591  0.8855 -0.0753  0.0005
17078TIP3   OH272724   3.276   5.431   1.528  0.5098  0.1342  0.1544
17078TIP3    H172725   3.277   5.482   1.609  1.1611  0.8540 -0.2944
17078TIP3    H272726   3.343   5.364   1.541 -1.1733 -1.3629  1.2091
17079TIP3   OH272727   4.056   3.081   6.084 -0.2010 -0.1191 -0.0474
17079TIP3    H172728   4.120   3.012   6.068  0.0170  0.6128 -2.6015
17079TIP3    H272729   3.973   3.045   6.054 -0.9604 -0.8892  2.8223
17080TIP3   OH272730   0.435   0.846  11.636 -0.2463 -0.4326 -0.4802
17080TIP3    H172731   0.399   0.896  11.563 -0.3686  1.1791  0.6625
17080TIP3    H272732   0.372   0.774  11.648 -0.7737 -0.1162 -1.2713
17081TIP3   OH272733   2.543   5.884   3.515  0.2152  0.4052  0.6878
17081TIP3    H172734   2.505   5.892   3.603 -1.2702 -0.5400  0.1483
17081TIP3    H272735   2.576   5.794   3.512 -3.8988 -1.1702 -1.2950
17082TIP3   OH272736   5.338   6.263   4.731  0.4491 -0.1540  0.4035
17082TIP3    H172737   5.402   6.229   4.669  1.0216 -0.3203  1.0864
17082TIP3    H272738   5.351   6.211   4.810 -0.9593 -0.6197  0.3390
17083TIP3   OH272739   3.376   6.482   0.136  0.0897  0.3324 -0.5482
17083TIP3    H172740   3.380   6.545   0.064  1.0256  0.1475 -0.6518
17083TIP3    H272741   3.466   6.455   0.150 -0.1078  0.2129  0.5606
17084TIP3   OH272742   5.201   1.660   1.218 -0.0533  0.0309 -0.2411
17084TIP3    H172743   5.140   1.632   1.150 -0.6742 -1.1116  0.7702
17084TIP3    H272744   5.148   1.712   1.279  0.5325  1.1901 -0.7065
17085TIP3   OH272745   4.117   4.476   5.279  0.0652 -0.4843 -0.8408
17085TIP3    H172746   4.054   4.431   5.336  0.8087 -0.9365 -0.3670
17085TIP3    H272747   4.078   4.562   5.263  1.1739  0.7788  2.7374
17086TIP3   OH272748   6.229   1.706   5.471  0.6100  0.2119 -0.0455
17086TIP3    H172749   6.220   1.798   5.493  1.9792  0.2858  0.2485
17086TIP3    H272750   6.149   1.665   5.504  0.1161  1.2457  0.0509
17087TIP3   OH272751   2.717   3.481   0.654  0.3353 -0.1775  0.0625
17087TIP3    H172752   2.663   3.551   0.690  0.7186  0.7393 -1.1290
17087TIP3    H272753   2.655   3.410   0.637 -0.1170 -0.0004  0.9309
17088TIP3   OH272754   1.523   6.794  14.176  0.4363 -0.1081  0.2999
17088TIP3    H172755   1.498   6.783  14.084 -1.8263 -1.6123  1.0604
17088TIP3    H272756   1.462   6.860  14.210 -0.2866 -1.2876  1.3139
17089TIP3   OH272757   6.092   2.024   4.763  0.3024  0.9497  0.3851
17089TIP3    H172758   6.012   2.005   4.812 -0.0193  0.5954 -0.2751
17089TIP3    H272759   6.115   2.113   4.791 -0.6119  1.2599  0.1879
17090TIP3   OH272760   5.059   4.804   6.492 -0.3716  0.0149  0.3215
17090TIP3    H172761   5.024   4.891   6.477  0.0128  0.0374 -0.4463
17090TIP3    H272762   5.046   4.758   6.409  2.2046  0.2956 -0.2738
17091TIP3   OH272763   2.846   6.351  12.554 -0.1102 -0.5764 -0.3626
17091TIP3    H172764   2.826   6.408  12.480  0.0316 -0.2703 -0.1682
17091TIP3    H272765   2.870   6.267  12.514  0.6059 -0.2197 -0.6871
17092TIP3   OH272766   5.693   3.518   6.089 -0.1985 -0.2883 -0.1484
17092TIP3    H172767   5.777   3.522   6.135 -0.0858 -1.0940 -0.2826
17092TIP3    H272768   5.636   3.469   6.148 -0.7741  0.8563  0.2473
17093TIP3   OH272769   4.777   0.950  14.815 -0.2834  0.3833 -0.0868
17093TIP3    H172770   4.784   0.893  14.891 -0.9329  0.1516 -0.1938
17093TIP3    H272771   4.837   0.912  14.751  1.2458  1.3368  0.7707
17094TIP3   OH272772   3.470   4.495  11.413 -0.0145  0.6895 -0.0707
17094TIP3    H172773   3.485   4.528  11.324  0.0413  0.6449 -0.0764
17094TIP3    H272774   3.375   4.483  11.418  0.0445  0.0846 -0.3346
17095TIP3   OH272775   0.072   2.572  16.108 -0.3163 -0.4418 -0.3513
17095TIP3    H172776   0.105   2.622  16.183 -0.4792 -0.6786 -0.1190
17095TIP3    H272777   0.150   2.530  16.071  0.1243  1.5611 -1.7396
17096TIP3   OH272778   0.940   6.459  11.237  0.5008 -0.4465 -0.3011
17096TIP3    H172779   0.960   6.466  11.144  0.1094  0.0421 -0.3497
17096TIP3    H272780   0.855   6.502  11.247  0.9665  0.3302  0.4365
17097TIP3   OH272781   1.381   1.187   6.095 -0.0081  0.4118 -0.0891
17097TIP3    H172782   1.416   1.133   6.025  1.0511  0.4571  0.3963
17097TIP3    H272783   1.323   1.129   6.144 -1.7925  0.7225 -1.7528
17098TIP3   OH272784   4.287   0.164   6.409 -0.3609 -0.2331 -0.7274
17098TIP3    H172785   4.274   0.096   6.475  0.1661 -0.1626 -0.5462
17098TIP3    H272786   4.348   0.126   6.347  1.3143  0.7033  0.3178
17099TIP3   OH272787   5.734   5.489   2.190  0.0146 -0.6155  0.0841
17099TIP3    H172788   5.751   5.489   2.284 -0.4566  0.3694  0.1786
17099TIP3    H272789   5.702   5.401   2.171 -1.1140 -0.4299  1.0761
17100TIP3   OH272790   2.707   4.771  14.886 -0.4297  0.2525 -0.1300
17100TIP3    H172791   2.746   4.743  14.803 -2.1799 -2.9314  0.0350
17100TIP3    H272792   2.661   4.852  14.865 -2.1023 -1.2637 -2.6791
17101TIP3   OH272793   6.809   1.350  11.035 -0.0369 -0.2966  0.1123
17101TIP3    H172794   6.821   1.307  10.951 -0.0333 -1.7567  0.8467
17101TIP3    H272795   6.896   1.350  11.075  0.2102  1.4654 -0.3683
17102TIP3   OH272796   3.830   2.374   5.766 -0.9438  0.3194 -0.0101
17102TIP3    H172797   3.825   2.462   5.802  0.7769 -0.5618  2.5187
17102TIP3    H272798   3.785   2.319   5.831  1.6240 -1.2169  0.5253
17103TIP3   OH272799   0.581   5.680  17.047  0.0169  0.6176  0.1678
17103TIP3    H172800   0.675   5.662  17.052 -0.1942 -0.7102 -0.4734
17103TIP3    H272801   0.540   5.602  17.085 -0.9105 -0.1391 -2.3371
17104TIP3   OH272802   2.427   6.191   3.797  0.1136  0.3049  0.8581
17104TIP3    H172803   2.332   6.182   3.793 -0.0787  0.8146  3.5762
17104TIP3    H272804   2.453   6.212   3.707 -2.0841 -2.0810 -0.3907
17105TIP3   OH272805   5.395   1.004   2.152  0.6223 -0.2545  0.3266
17105TIP3    H172806   5.455   1.051   2.095 -0.9813  1.2163 -0.2021
17105TIP3    H272807   5.353   0.940   2.095 -1.7317  1.9076 -0.4338
17106TIP3   OH272808   5.425   1.819  14.968  0.1112  0.0061 -0.4574
17106TIP3    H172809   5.499   1.803  14.910  1.5776  1.6502  0.9157
17106TIP3    H272810   5.461   1.868  15.042 -1.8630 -1.2493  1.4449
17107TIP3   OH272811   1.475   6.801  13.518  0.2064 -0.3867 -0.0823
17107TIP3    H172812   1.449   6.724  13.468  0.4130  0.0470 -0.8625
17107TIP3    H272813   1.507   6.863  13.452  1.7001 -0.3008  0.6898
17108TIP3   OH272814   0.942   5.617  13.937  0.3146  0.8967 -0.3622
17108TIP3    H172815   0.923   5.646  13.848 -1.1278  0.2461 -0.2765
17108TIP3    H272816   1.034   5.640  13.951  0.6788  0.5799 -2.1788
17109TIP3   OH272817   4.252   5.691   5.039 -0.4370 -0.3553 -0.0708
17109TIP3    H172818   4.185   5.626   5.062 -2.1404  0.3518 -2.7005
17109TIP3    H272819   4.304   5.648   4.971 -0.7972  0.5541 -0.9366
17110TIP3   OH272820   0.900   0.970   5.933  1.0046  0.2007  0.4189
17110TIP3    H172821   0.822   1.019   5.908 -0.0495 -0.7457  1.8103
17110TIP3    H272822   0.946   0.955   5.850 -0.6152  0.2121 -0.5040
17111TIP3   OH272823   1.632   6.261  11.701 -0.0054  0.5675 -0.5625
17111TIP3    H172824   1.666   6.287  11.615  1.1975  0.3764 -0.1576
17111TIP3    H272825   1.697   6.295  11.763 -0.0518 -0.6699  0.1686
17112TIP3   OH272826   2.263   2.571  14.333 -0.5966  0.2527 -0.0808
17112TIP3    H172827   2.179   2.561  14.379 -0.9911 -0.0644 -0.8689
17112TIP3    H272828   2.241   2.621  14.254 -0.0958 -0.0830 -0.4347
17113TIP3   OH272829   0.299   2.693   4.774 -0.3687 -0.1287 -0.1018
17113TIP3    H172830   0.275   2.612   4.818 -1.0483  1.1431  1.9209
17113TIP3    H272831   0.325   2.752   4.845  1.5426  0.9583 -1.6568
17114TIP3   OH272832   5.841   4.460  13.474  0.1707 -0.4869 -0.0824
17114TIP3    H172833   5.816   4.421  13.558 -1.1641 -1.5138 -0.9383
17114TIP3    H272834   5.916   4.408  13.446  0.9033  0.1448  0.6744
17115TIP3   OH272835   1.481   6.212   5.553 -0.4503 -0.0892 -0.0485
17115TIP3    H172836   1.516   6.123   5.546  1.6712  0.7819 -0.8855
17115TIP3    H272837   1.449   6.218   5.643  0.8835 -1.1718  0.5183
17116TIP3   OH272838   2.517   3.223  17.096  0.1023 -0.0671 -0.4075
17116TIP3    H172839   2.557   3.270  17.169  0.0618  0.4316 -0.7028
17116TIP3    H272840   2.427   3.255  17.092  0.1678  0.0772 -0.8126
17117TIP3   OH272841   1.419   0.594  12.994  0.5177 -0.0194  0.3041
17117TIP3    H172842   1.360   0.668  13.008 -1.3026 -1.1506 -1.1453
17117TIP3    H272843   1.408   0.539  13.072 -0.2716 -0.1877  0.0696
17118TIP3   OH272844   0.218   1.374   2.885 -0.0822 -0.3609  0.9428
17118TIP3    H172845   0.217   1.280   2.867  0.2281  0.0709 -1.5929
17118TIP3    H272846   0.311   1.396   2.887 -0.1152 -0.3476  3.0268
17119TIP3   OH272847   4.167   0.281   4.181  0.4185  0.2256  0.1987
17119TIP3    H172848   4.078   0.301   4.211  0.4753 -0.2074  0.6787
17119TIP3    H272849   4.168   0.306   4.089 -0.1266  0.4718  0.2581
17120TIP3   OH272850   5.434   1.314   0.894 -0.7439 -0.4364  0.5509
17120TIP3    H172851   5.464   1.322   0.984  0.7176 -0.9921  0.1247
17120TIP3    H272852   5.400   1.401   0.872  0.3664  0.1503  1.1148
17121TIP3   OH272853   3.220   1.527  16.814 -0.1072  0.1719 -0.3727
17121TIP3    H172854   3.188   1.440  16.791  2.3807 -1.0374  0.6392
17121TIP3    H272855   3.301   1.537  16.764  0.7143  1.0695  1.1133
17122TIP3   OH272856   2.920   0.446   0.288  0.3553  0.1656 -0.2268
17122TIP3    H172857   2.865   0.506   0.338  0.6836  0.1935  0.1016
17122TIP3    H272858   2.877   0.439   0.203 -0.4008 -0.1590  0.1821
17123TIP3   OH272859   2.126   3.995   2.790  0.2290 -0.6829  0.3099
17123TIP3    H172860   2.068   3.941   2.845  2.1353 -1.5556  1.5103
17123TIP3    H272861   2.100   3.974   2.701 -1.7599 -0.5497  0.8260
17124TIP3   OH272862   4.569   1.152   0.492 -0.3856 -0.0916 -0.6230
17124TIP3    H172863   4.569   1.057   0.479  0.2865  0.0546 -1.8124
17124TIP3    H272864   4.615   1.187   0.415 -2.0305  1.3003 -1.0131
17125TIP3   OH272865   4.348   5.911   4.904  0.5838 -0.1493 -0.0976
17125TIP3    H172866   4.315   5.867   4.826  0.4120  1.9445 -1.2551
17125TIP3    H272867   4.323   5.854   4.977 -0.7247 -1.3023 -1.4295
17126TIP3   OH272868   6.685   1.145  13.117  0.1311  0.1465 -0.0576
17126TIP3    H172869   6.648   1.087  13.051  1.5357 -0.5245 -0.2761
17126TIP3    H272870   6.778   1.152  13.093  0.5950  0.1137  1.6950
17127TIP3   OH272871   0.775   5.502  10.905 -0.2719 -0.1561 -0.3060
17127TIP3    H172872   0.870   5.490  10.898 -0.1039  0.4880  0.7028
17127TIP3    H272873   0.765   5.593  10.931 -1.2994  0.5099 -2.9376
17128TIP3   OH272874   0.542   0.280   5.486  0.1858 -0.0212 -0.1296
17128TIP3    H172875   0.478   0.271   5.415 -1.8849  0.4857  1.6200
17128TIP3    H272876   0.619   0.231   5.456 -1.5882 -1.9742 -1.6041
17129TIP3   OH272877   5.417   5.242   2.299  0.4052  0.0494 -0.5740
17129TIP3    H172878   5.399   5.336   2.293 -1.4108 -0.1183  1.6590
17129TIP3    H272879   5.438   5.227   2.391 -0.7343 -1.9423 -0.6041
17130TIP3   OH272880   0.089   3.304   1.433 -0.3771  0.1091  0.0366
17130TIP3    H172881   0.114   3.216   1.404  0.2152  0.2981 -0.0224
17130TIP3    H272882   0.159   3.361   1.400 -0.1104  0.4331  1.1498
17131TIP3   OH272883   2.941   0.853   3.595 -0.0261  0.1747 -0.3380
17131TIP3    H172884   2.889   0.780   3.628 -1.1533  1.0312 -0.2075
17131TIP3    H272885   2.939   0.842   3.500  0.3044 -0.2908 -0.2959
17132TIP3   OH272886   4.691   1.176  10.668  0.3351  0.5516  0.3010
17132TIP3    H172887   4.725   1.265  10.673 -2.0948  1.5132  0.3705
17132TIP3    H272888   4.621   1.180  10.603  1.6666 -1.8202 -1.3500
17133TIP3   OH272889   6.178   5.538  15.336 -0.2302  0.1253  0.0147
17133TIP3    H172890   6.238   5.583  15.395  1.0391 -3.1914  1.3557
17133TIP3    H272891   6.222   5.540  15.251 -0.1685  1.3251  0.0682
17134TIP3   OH272892   4.554   6.554  13.366 -1.0762  0.2587 -0.0711
17134TIP3    H172893   4.463   6.554  13.337 -0.7212 -0.8910 -1.2323
17134TIP3    H272894   4.560   6.480  13.427 -0.9292  0.3251 -0.0046
17135TIP3   OH272895   1.704   6.685  16.503  0.5956  0.0501  0.1003
17135TIP3    H172896   1.624   6.672  16.554 -0.4781  0.5493 -1.4444
17135TIP3    H272897   1.770   6.709  16.569 -1.1561  2.3986  1.0684
17136TIP3   OH272898   0.603   2.756  13.671 -0.2993 -0.8423 -0.3414
17136TIP3    H172899   0.526   2.764  13.727  1.4770 -3.2919  2.6699
17136TIP3    H272900   0.587   2.677  13.619  0.2415 -1.5144  0.4891
17137TIP3   OH272901   1.814   3.955   3.323  0.1576 -0.3958  0.0645
17137TIP3    H172902   1.876   4.025   3.306  0.0125 -0.2906 -0.0276
17137TIP3    H272903   1.759   3.987   3.394 -1.2344  0.4279 -1.3348
17138TIP3   OH272904   3.342   4.091  14.509  0.3656  0.3792  0.4348
17138TIP3    H172905   3.259   4.096  14.557  1.1657  0.9843  1.8117
17138TIP3    H272906   3.385   4.013  14.543  1.2600  1.2099  1.2707
17139TIP3   OH272907   2.603   2.981   3.773  0.0684 -0.1884 -0.2029
17139TIP3    H172908   2.616   2.953   3.682 -0.5008 -0.4654 -0.1978
17139TIP3    H272909   2.653   2.918   3.825  1.2623  0.5785 -0.3790
17140TIP3   OH272910   5.898   2.548  11.790  0.1298  0.0530 -0.1363
17140TIP3    H172911   5.845   2.472  11.765 -1.7260  0.6609  1.7878
17140TIP3    H272912   5.980   2.510  11.822  0.4696 -0.9528 -2.0926
17141TIP3   OH272913   3.171   3.174  13.943 -0.2691  0.0620 -0.1153
17141TIP3    H172914   3.265   3.173  13.924  0.3000 -1.0571  2.5241
17141TIP3    H272915   3.140   3.087  13.915 -0.3322  0.0718 -0.0763
17142TIP3   OH272916   3.997   5.521  17.097 -0.6516 -0.1524  0.2593
17142TIP3    H172917   4.012   5.608  17.134 -1.0727  0.6871 -1.5114
17142TIP3    H272918   4.081   5.496  17.059 -1.2322  0.6439 -1.5918
17143TIP3   OH272919   4.197   6.411   0.489 -0.6975  0.0107  0.2361
17143TIP3    H172920   4.165   6.323   0.508  1.8553 -1.3303 -1.4797
17143TIP3    H272921   4.158   6.432   0.404  1.4477 -0.8775 -0.9826
17144TIP3   OH272922   1.874   2.588   4.414  0.0417  0.3562 -0.3427
17144TIP3    H172923   1.923   2.512   4.381 -0.5924 -0.6752  1.0344
17144TIP3    H272924   1.844   2.633   4.335  1.0717 -0.4041 -1.1827
17145TIP3   OH272925   2.309   1.786   4.734  0.1735 -0.0719  0.3352
17145TIP3    H172926   2.318   1.798   4.828  2.4670 -3.4786  0.6268
17145TIP3    H272927   2.215   1.779   4.720 -0.1945  0.4072  2.3680
17146TIP3   OH272928   2.618   4.403   2.515 -0.0614 -0.0164 -0.0830
17146TIP3    H172929   2.652   4.427   2.428 -1.8675 -0.3749 -0.8963
17146TIP3    H272930   2.671   4.326   2.540 -0.4974 -0.8037 -1.5061
17147TIP3   OH272931   6.607   3.142  15.717 -0.5922 -0.4209  0.5791
17147TIP3    H172932   6.692   3.102  15.701 -0.7845  0.1873 -2.3447
17147TIP3    H272933   6.627   3.230  15.749 -0.1169 -0.3882  0.1977
17148TIP3   OH272934   3.808   3.453   2.455 -0.1920 -0.4129 -0.0520
17148TIP3    H172935   3.825   3.529   2.399  0.4244  0.2730  1.0397
17148TIP3    H272936   3.820   3.378   2.398 -0.4762  0.3059 -1.0643
17149TIP3   OH272937   5.800   0.132  12.836 -0.0227  0.3124  0.4278
17149TIP3    H172938   5.749   0.212  12.818  0.6030  0.7284  0.4814
17149TIP3    H272939   5.875   0.163  12.887  0.2513 -0.3053  0.4013
17150TIP3   OH272940   1.982   2.222  11.358 -0.1211  0.2664 -0.4852
17150TIP3    H172941   1.888   2.237  11.362 -0.2755 -0.7901  0.0099
17150TIP3    H272942   2.009   2.208  11.449  0.2906 -0.6983 -0.7464
17151TIP3   OH272943   0.397   1.707  16.763 -0.0200  0.5339 -0.7986
17151TIP3    H172944   0.434   1.737  16.680 -2.4328 -1.0508 -2.5273
17151TIP3    H272945   0.448   1.630  16.785 -0.8847 -0.4432 -2.1017
17152TIP3   OH272946   1.635   4.109   2.104 -0.0649 -0.4761  0.2867
17152TIP3    H172947   1.635   4.077   2.013 -2.7665 -1.8229  0.7221
17152TIP3    H272948   1.717   4.076   2.140  0.8426 -0.2902 -1.5386
17153TIP3   OH272949   0.913   2.553   5.058 -0.2443 -1.0227 -0.4705
17153TIP3    H172950   0.939   2.508   4.977  0.0589  0.8968 -1.4563
17153TIP3    H272951   0.849   2.619   5.030  1.0687  0.7540  0.6148
17154TIP3   OH272952   2.501   4.322  13.546  0.0944  0.5167 -0.6084
17154TIP3    H172953   2.494   4.238  13.592  1.7109  0.8121  0.2003
17154TIP3    H272954   2.424   4.371  13.575 -0.0953 -0.1506  0.0404
17155TIP3   OH272955   5.453   0.000  14.272 -0.0526 -0.0675 -0.1081
17155TIP3    H172956   5.361   0.013  14.249  0.3675  2.0639 -0.6700
17155TIP3    H272957   5.501   0.033  14.197  1.1988 -0.2340  0.6142
17156TIP3   OH272958   6.365   4.772   1.378  0.9231 -0.3658  0.4262
17156TIP3    H172959   6.429   4.718   1.331  0.8831  1.9934 -2.5121
17156TIP3    H272960   6.419   4.837   1.424  0.7230  1.3891 -1.7457
17157TIP3   OH272961   1.454   4.921   3.047 -0.0130  0.1465 -0.3420
17157TIP3    H172962   1.386   4.863   3.013  1.0237 -0.7798 -0.8769
17157TIP3    H272963   1.536   4.878   3.023  0.7548  0.5228  1.5449
17158TIP3   OH272964   5.300   1.830   6.443  0.6277 -0.2340  0.1179
17158TIP3    H172965   5.331   1.919   6.457 -0.2146  0.3318 -1.4913
17158TIP3    H272966   5.252   1.808   6.523  0.1504  1.0612  0.1952
17159TIP3   OH272967   3.524   6.114  14.550  0.3260  0.4338  0.5876
17159TIP3    H172968   3.545   6.117  14.643 -1.6157 -0.4009  1.0815
17159TIP3    H272969   3.494   6.203  14.529 -0.5329  0.2677  1.0915
17160TIP3   OH272970   2.589   2.262   2.717  0.3166  0.0520 -0.3419
17160TIP3    H172971   2.563   2.171   2.734  1.2753 -0.0486  0.6722
17160TIP3    H272972   2.663   2.254   2.657 -0.6794  0.2455 -1.6091
17161TIP3   OH272973   3.350   1.335  11.759 -0.5817  0.5045 -0.0812
17161TIP3    H172974   3.297   1.382  11.694 -1.6894 -2.5750 -1.4691
17161TIP3    H272975   3.300   1.341  11.840 -1.0108  1.1444 -0.3860
17162TIP3   OH272976   0.782   1.298  11.632 -0.5602  0.1877 -0.5158
17162TIP3    H172977   0.843   1.342  11.691 -1.2614 -0.1817  0.4931
17162TIP3    H272978   0.770   1.359  11.560  1.3516  0.0905 -0.9609
17163TIP3   OH272979   4.957   2.772   1.864 -0.2434  0.3069 -0.1233
17163TIP3    H172980   4.989   2.798   1.951  0.3660  1.1484 -0.5937
17163TIP3    H272981   5.031   2.787   1.806  0.3910 -3.2239 -0.3225
17164TIP3   OH272982   4.233   1.735   1.558 -0.6815 -0.1858  0.2268
17164TIP3    H172983   4.319   1.773   1.543 -0.5897 -0.6193 -0.3979
17164TIP3    H272984   4.187   1.748   1.475 -1.7700  1.4563  1.0689
17165TIP3   OH272985   4.280   6.342   2.455 -0.0878 -0.1034 -0.7294
17165TIP3    H172986   4.322   6.428   2.448  0.2885 -0.1372  0.8085
17165TIP3    H272987   4.187   6.360   2.443 -0.0511  0.5783 -0.0593
17166TIP3   OH272988   3.147   4.169  16.960  0.3254 -0.5442 -0.2341
17166TIP3    H172989   3.100   4.148  16.879  1.8385 -2.6569 -0.6233
17166TIP3    H272990   3.096   4.127  17.029 -0.3344  0.2580 -0.2404
17167TIP3   OH272991   2.333   3.960  17.014 -0.3184 -0.4047 -0.2222
17167TIP3    H172992   2.336   3.864  17.018  1.8566 -0.3039  3.7455
17167TIP3    H272993   2.263   3.984  17.074 -0.9327  0.5134 -1.3020
17168TIP3   OH272994   4.303   2.072  15.994 -0.1877  0.0574  0.6245
17168TIP3    H172995   4.303   1.977  15.994  0.1502  0.0568  0.7500
17168TIP3    H272996   4.241   2.096  16.063 -0.7235 -0.0698  0.1889
17169TIP3   OH272997   5.286   5.188  16.190  0.1133  0.4732 -0.1446
17169TIP3    H172998   5.294   5.224  16.102 -1.7815  0.2022 -0.4424
17169TIP3    H272999   5.304   5.262  16.248 -0.9440  1.2203 -0.7575
17170TIP3   OH273000   0.114   6.235  12.573 -0.5419 -0.0000  0.3473
17170TIP3    H173001   0.020   6.238  12.559 -0.3858 -1.4005 -1.1034
17170TIP3    H273002   0.150   6.299  12.511 -0.5297  0.6690  1.0268
17171TIP3   OH273003   1.279   5.658  11.648  0.0569 -0.2159 -0.0683
17171TIP3    H173004   1.199   5.709  11.635  0.2348  0.4864  1.4581
17171TIP3    H273005   1.325   5.665  11.564 -1.4487 -0.6005 -0.9494
17172TIP3   OH273006   4.606   3.670   3.607 -0.0414 -0.1506  0.1597
17172TIP3    H173007   4.584   3.639   3.519 -0.4210 -1.0829  0.5743
17172TIP3    H273008   4.529   3.720   3.635  0.9446  2.0476 -0.8826
17173TIP3   OH273009   6.464   0.070  13.652  0.2638  0.1921  0.2556
17173TIP3    H173010   6.419   0.087  13.570  0.4835 -0.2350  0.0415
17173TIP3    H273011   6.546   0.027  13.627  1.2579  1.8664  0.5880
17174TIP3   OH273012   2.119   5.769   3.009  0.6483 -0.7466  0.4253
17174TIP3    H173013   2.027   5.744   3.011  0.8873 -1.8396 -0.9024
17174TIP3    H273014   2.131   5.807   2.921  1.6126 -1.2701  0.3281
17175TIP3   OH273015   4.280   3.433  17.130 -0.5892 -0.5028  0.2389
17175TIP3    H173016   4.218   3.506  17.129  1.6118  1.4265  0.4805
17175TIP3    H273017   4.286   3.405  17.039 -0.3335  0.5858 -0.0817
17176TIP3   OH273018   2.565   4.317   0.451 -0.2644  0.3661  0.0805
17176TIP3    H173019   2.587   4.224   0.445 -0.3442  0.2073  2.0718
17176TIP3    H273020   2.544   4.332   0.543 -0.4129  2.3304 -0.2356
17177TIP3   OH273021   1.948   3.344   2.702 -0.2796 -0.3847  0.0785
17177TIP3    H173022   1.899   3.309   2.627  0.4879  0.3317 -0.7722
17177TIP3    H273023   1.948   3.438   2.688  1.0042 -0.3493  0.2747
17178TIP3   OH273024   6.030   0.197  14.680  0.5411  0.2204  0.0550
17178TIP3    H173025   5.997   0.285  14.661  1.5147  1.2605  2.9069
17178TIP3    H273026   6.123   0.201  14.660  0.2960 -0.6727 -1.3444
17179TIP3   OH273027   1.463   6.551   0.328 -0.1026  0.0960 -0.0578
17179TIP3    H173028   1.543   6.560   0.277  1.3727  1.4165  2.3636
17179TIP3    H273029   1.463   6.459   0.356 -0.4705 -0.4078 -1.6754
17180TIP3   OH273030   4.182   1.341   3.566 -0.5252 -0.1110 -0.3095
17180TIP3    H173031   4.101   1.346   3.618 -0.2996 -1.5480  0.2076
17180TIP3    H273032   4.210   1.250   3.575  0.7751  0.2075 -1.0710
17181TIP3   OH273033   2.794   3.483   1.404  0.6673  0.6103 -0.7683
17181TIP3    H173034   2.818   3.477   1.497  2.8310  0.6366 -1.2969
17181TIP3    H273035   2.744   3.564   1.397 -0.9532 -0.2361  0.6609
17182TIP3   OH273036   2.535   4.757  11.606 -0.0121 -0.1974 -0.1444
17182TIP3    H173037   2.517   4.759  11.512  0.2769  1.0680 -0.1762
17182TIP3    H273038   2.602   4.823  11.620  0.5495 -0.9523  0.8439
17183TIP3   OH273039   3.170   2.108   2.289 -0.8372  0.3129 -0.0785
17183TIP3    H173040   3.139   2.140   2.204 -1.8633 -1.9318 -0.5959
17183TIP3    H273041   3.090   2.100   2.342 -0.2697  1.1781  0.9124
17184TIP3   OH273042   6.590   2.360  11.278 -0.4909 -0.8435  0.5425
17184TIP3    H173043   6.531   2.322  11.212 -1.5155  3.0004 -0.9291
17184TIP3    H273044   6.676   2.360  11.236 -0.4631 -1.6241  0.5960
17185TIP3   OH273045   0.546   3.614   5.273  0.1189 -0.1371 -0.1745
17185TIP3    H173046   0.533   3.641   5.364 -2.0192  1.4550 -0.8848
17185TIP3    H273047   0.640   3.623   5.258  0.8318 -2.4408  2.4482
17186TIP3   OH273048   0.874   4.933   5.043 -0.4615  0.2548 -0.1252
17186TIP3    H173049   0.924   5.012   5.024  0.3807 -0.2138  0.1189
17186TIP3    H273050   0.852   4.940   5.136  2.7083 -1.4924  0.8212
17187TIP3   OH273051   5.503   1.344   1.166 -0.3290  0.1639 -0.4645
17187TIP3    H173052   5.468   1.346   1.255 -1.0650  0.5912 -0.7543
17187TIP3    H273053   5.560   1.268   1.164 -1.9253 -1.0638 -0.2223
17188TIP3   OH273054   3.629   4.983  12.687 -0.1819 -0.5210 -0.3692
17188TIP3    H173055   3.571   4.909  12.670 -0.0995 -0.4667 -0.8825
17188TIP3    H273056   3.716   4.945  12.694 -0.0216 -0.3563 -1.5261
17189TIP3   OH273057   4.681   3.668  12.075  0.2652  0.0493  0.2438
17189TIP3    H173058   4.686   3.616  11.995 -0.4511 -0.9630  0.8476
17189TIP3    H273059   4.606   3.632  12.123  0.7923  0.5280  1.4510
17190TIP3   OH273060   5.808   3.890  10.905 -0.4934 -0.5629 -0.0837
17190TIP3    H173061   5.718   3.868  10.881 -0.4114 -0.6793 -0.2910
17190TIP3    H273062   5.861   3.855  10.833 -0.2377 -0.9531  0.2947
17191TIP3   OH273063   0.048   1.098  16.079  0.8173  0.0907  0.0156
17191TIP3    H173064   0.042   1.186  16.117 -0.2959 -0.4276  1.0817
17191TIP3    H273065   0.054   1.113  15.984 -1.5637  1.2808 -0.0004
17192TIP3   OH273066   0.518   5.618   0.787  0.5267  0.5843  0.1700
17192TIP3    H173067   0.548   5.588   0.873  0.2877  0.4118  0.1919
17192TIP3    H273068   0.598   5.641   0.741  0.7568 -0.7842 -0.1185
17193TIP3   OH273069   0.700   3.188   6.326  0.1705 -0.0412 -0.1437
17193TIP3    H173070   0.723   3.104   6.366  0.2072  0.4514  0.8848
17193TIP3    H273071   0.729   3.253   6.389 -0.0770  0.7397 -0.8313
17194TIP3   OH273072   5.881   2.456  12.728 -0.3046 -0.3848  0.3557
17194TIP3    H173073   5.954   2.394  12.740 -0.0693 -0.1461  0.1506
17194TIP3    H273074   5.922   2.535  12.693 -0.5196  0.1119  1.2250
17195TIP3   OH273075   0.902   1.247  10.964  0.5102  0.3107  0.0670
17195TIP3    H173076   0.875   1.207  10.881  0.4432  0.9928 -0.2366
17195TIP3    H273077   0.989   1.283  10.947 -0.8254  3.2860 -0.6327
17196TIP3   OH273078   2.561   0.326   2.537 -0.6566  0.1430 -0.1205
17196TIP3    H173079   2.468   0.339   2.556 -0.6996 -2.5907  1.6499
17196TIP3    H273080   2.563   0.259   2.469 -0.0270  1.6340 -1.6084
17197TIP3   OH273081   1.908   1.991   3.440  0.1316 -0.1383 -0.0520
17197TIP3    H173082   1.963   2.020   3.366  0.3115  0.2932  0.2465
17197TIP3    H273083   1.911   1.896   3.436  0.7946 -0.1191 -0.1284
17198TIP3   OH273084   5.940   2.370   3.360 -0.1872 -0.0355 -0.2329
17198TIP3    H173085   5.860   2.406   3.321 -0.1852 -0.7621 -0.9266
17198TIP3    H273086   5.921   2.277   3.372  0.4398 -0.1481 -0.1008
17199TIP3   OH273087   4.079   2.008   5.709  0.6561  0.5799  0.3008
17199TIP3    H173088   4.039   1.979   5.790  1.0543  0.4648  0.4572
17199TIP3    H273089   4.143   1.940   5.687 -1.6344 -0.9982 -1.7899
17200TIP3   OH273090   2.796   5.777   1.542  0.1885  0.3111 -0.0261
17200TIP3    H173091   2.877   5.727   1.547 -0.1617 -0.2442  0.1971
17200TIP3    H273092   2.776   5.800   1.633  1.0573  2.0225 -0.2531
17201TIP3   OH273093   5.780   5.274   1.096 -0.7173 -0.6272  0.1369
17201TIP3    H173094   5.728   5.263   1.017 -0.0061 -1.4232 -0.2287
17201TIP3    H273095   5.717   5.266   1.168 -1.6392  1.7036 -0.3584
17202TIP3   OH273096   4.219   2.845   2.253 -0.3508 -0.4125  0.2233
17202TIP3    H173097   4.190   2.763   2.214 -1.1377 -0.3564  0.6716
17202TIP3    H273098   4.211   2.830   2.348  1.2220 -0.4415  0.3800
17203TIP3   OH273099   5.584   1.265  11.483 -0.2850 -0.2637  0.2445
17203TIP3    H173100   5.556   1.348  11.522  2.2525  1.3411 -1.2652
17203TIP3    H273101   5.526   1.200  11.523 -2.1768  2.1750  1.6296
17204TIP3   OH273102   0.430   5.104   5.281 -0.3509 -0.0875 -0.4778
17204TIP3    H173103   0.452   5.124   5.372  0.3228 -0.1096 -0.6307
17204TIP3    H273104   0.438   5.009   5.275  2.3805  0.1488 -1.2511
17205TIP3   OH273105   1.082   3.915  12.547  0.5275  0.3661  0.7736
17205TIP3    H173106   1.116   3.947  12.464 -0.3693  0.4924  0.4613
17205TIP3    H273107   1.127   3.831  12.560  1.2201  0.6903  0.5316
17206TIP3   OH273108   1.688   6.232  17.252 -0.1551  0.0352  0.2864
17206TIP3    H173109   1.642   6.219  17.169 -0.7490  1.2510  0.4203
17206TIP3    H273110   1.737   6.150  17.265 -2.3073 -1.3191  0.1673
17207TIP3   OH273111   0.366   5.619   2.138 -0.1739  0.3351 -0.4343
17207TIP3    H173112   0.322   5.639   2.055 -1.5689  0.3411  0.2822
17207TIP3    H273113   0.304   5.563   2.185  1.0471 -0.5303  0.1769
17208TIP3   OH273114   5.786   5.716  13.013  0.1988 -0.4552 -0.2962
17208TIP3    H173115   5.711   5.734  12.956 -1.1132 -0.0952  1.4529
17208TIP3    H273116   5.792   5.621  13.015 -0.0044 -0.4766 -0.7427
17209TIP3   OH273117   1.585   5.535   0.997 -0.3069 -0.4965  0.2620
17209TIP3    H173118   1.659   5.494   0.952 -0.3508  1.2140 -1.4428
17209TIP3    H273119   1.623   5.569   1.079  0.6801 -0.1326 -0.3380
17210TIP3   OH273120   3.540   5.474  15.633  0.4438  0.1777 -0.0156
17210TIP3    H173121   3.496   5.410  15.577 -0.4603 -0.2158  1.1364
17210TIP3    H273122   3.632   5.449  15.631  0.7327  1.3002 -2.8598
17211TIP3   OH273123   0.802   4.778   3.623 -0.5747  0.3202 -0.3777
17211TIP3    H173124   0.878   4.724   3.602 -1.9319 -1.2338 -1.4454
17211TIP3    H273125   0.752   4.781   3.541 -1.5181  1.5569  0.2284
17212TIP3   OH273126   5.197   3.221   2.348  0.4675 -0.0040 -0.0243
17212TIP3    H173127   5.176   3.295   2.404  1.9534  0.4377 -0.0509
17212TIP3    H273128   5.284   3.193   2.375  0.6287 -0.6596 -1.1709
17213TIP3   OH273129   2.941   2.680   5.091  0.5740 -0.4367 -0.4948
17213TIP3    H173130   2.980   2.605   5.046  0.5085  0.4197 -2.0080
17213TIP3    H273131   2.853   2.687   5.055  1.0949  1.2746 -1.4946
17214TIP3   OH273132   2.074   6.707   0.126 -0.0294  0.0250  0.0017
17214TIP3    H173133   2.109   6.791   0.156 -2.5058  1.1875 -0.2915
17214TIP3    H273134   2.077   6.650   0.203  3.6254 -0.3538 -0.2951
17215TIP3   OH273135   0.287   3.485   1.327 -0.1970 -0.7585 -0.7325
17215TIP3    H173136   0.218   3.552   1.324  1.5337  1.2505  1.6250
17215TIP3    H273137   0.364   3.529   1.291  0.3866 -2.2825 -1.3868
17216TIP3   OH273138   6.175   0.232   3.947 -0.6159  0.7944  0.5131
17216TIP3    H173139   6.209   0.183   4.022  1.6713  0.8162 -0.4552
17216TIP3    H273140   6.152   0.165   3.882  1.1033  0.9120 -0.2401
17217TIP3   OH273141   4.086   3.073  11.616  0.9926  0.2781  0.1132
17217TIP3    H173142   4.051   3.153  11.655 -0.4372  0.2391 -1.0691
17217TIP3    H273143   4.070   3.005  11.682  2.0123  0.8905  1.0231
17218TIP3   OH273144   6.426   4.841  15.594  0.0425 -0.1018 -0.6438
17218TIP3    H173145   6.445   4.921  15.642 -2.7629 -0.0583  0.4772
17218TIP3    H273146   6.479   4.774  15.638 -0.3059  0.4748  0.6859
17219TIP3   OH273147   0.264   3.810   2.760 -0.0037  0.0522 -0.2630
17219TIP3    H173148   0.228   3.869   2.695 -0.5187 -0.5852 -0.5703
17219TIP3    H273149   0.335   3.859   2.801 -0.7252  1.0531 -0.1858
17220TIP3   OH273150   6.617   0.522   2.630 -0.6797 -0.1441 -0.0690
17220TIP3    H173151   6.538   0.570   2.607  0.5709  1.9156 -0.1492
17220TIP3    H273152   6.640   0.473   2.551 -1.1434  0.2482 -0.4470
17221TIP3   OH273153   1.403   3.846  13.946  0.2720  0.5519  0.7815
17221TIP3    H173154   1.316   3.883  13.955 -0.3094 -0.6518  0.3458
17221TIP3    H273155   1.456   3.917  13.911 -1.0437  0.7065 -0.9882
17222TIP3   OH273156   1.544   0.435   1.447  0.2900 -0.1403 -0.2976
17222TIP3    H173157   1.546   0.447   1.542  0.7458 -1.7049 -0.0994
17222TIP3    H273158   1.629   0.397   1.426  0.3722  0.6555 -1.3965
17223TIP3   OH273159   3.423   0.975  12.339 -0.5352 -0.1124  0.5151
17223TIP3    H173160   3.396   0.930  12.259  0.4375  0.4573 -0.1345
17223TIP3    H273161   3.510   0.939  12.359 -1.4431 -1.4433  2.2254
17224TIP3   OH273162   2.949   2.075  14.506 -0.4709 -0.3346 -0.0634
17224TIP3    H173163   2.863   2.054  14.469 -0.4431 -0.7031  0.0757
17224TIP3    H273164   2.977   1.994  14.548 -0.0574 -0.2120 -0.1005
17225TIP3   OH273165   4.681   3.691  14.745 -0.1469  0.0308  0.0193
17225TIP3    H173166   4.610   3.687  14.681  0.0047 -1.1367 -0.0847
17225TIP3    H273167   4.662   3.769  14.798 -0.3465  0.9204 -1.3488
17226TIP3   OH273168   5.286   5.657   4.526  0.1143 -0.0319  0.8694
17226TIP3    H173169   5.316   5.743   4.497 -1.2175 -0.3509 -1.5538
17226TIP3    H273170   5.197   5.670   4.556 -0.2024 -0.6224  0.2037
17227TIP3   OH273171   1.369   2.288   5.417 -0.4818  0.2510 -0.0718
17227TIP3    H173172   1.400   2.346   5.487  3.5050 -2.9530  0.9771
17227TIP3    H273173   1.432   2.300   5.346 -2.0522  0.2698 -1.4999
17228TIP3   OH273174   2.983   4.555   5.187 -0.5057 -0.2205  0.2002
17228TIP3    H173175   3.063   4.607   5.189 -0.9299  0.6098 -2.2126
17228TIP3    H273176   2.958   4.544   5.279 -0.0431  3.2894  0.7947
17229TIP3   OH273177   3.197   1.969  12.162  0.3926  0.5502 -0.0130
17229TIP3    H173178   3.142   2.048  12.159  0.7971  0.8761  1.0518
17229TIP3    H273179   3.147   1.907  12.215  0.0335  0.0479 -0.9259
17230TIP3   OH273180   3.683   3.668  12.196 -0.0073  0.3442 -0.8396
17230TIP3    H173181   3.684   3.750  12.245 -1.9298 -0.5888  0.8758
17230TIP3    H273182   3.591   3.654  12.175  0.7162  0.4701 -4.4032
17231TIP3   OH273183   4.641   6.323   4.023  0.4903  0.0842 -0.1458
17231TIP3    H173184   4.611   6.366   4.104 -0.1871  0.6113 -0.6684
17231TIP3    H273185   4.716   6.375   3.995  1.7033 -1.0340  0.9832
17232TIP3   OH273186   4.854   1.766   0.181  0.4005 -0.3786 -0.1192
17232TIP3    H173187   4.760   1.764   0.197  0.2486  0.0311 -0.9875
17232TIP3    H273188   4.889   1.821   0.252 -0.3852  2.1631 -1.6661
17233TIP3   OH273189   4.755   6.157  14.661  0.4214 -0.0577  0.0200
17233TIP3    H173190   4.741   6.227  14.597  0.3208  0.0505  0.1604
17233TIP3    H273191   4.843   6.125  14.643  1.4149  1.7377  1.5386
17234TIP3   OH273192   5.423   1.091  13.466  0.6548  0.0532 -0.2939
17234TIP3    H173193   5.411   1.136  13.549  0.4023  0.8339 -0.7469
17234TIP3    H273194   5.430   0.998  13.489  3.4047  0.5027  0.8616
17235TIP3   OH273195   5.092   2.216  17.000  0.2088  0.3059 -0.0288
17235TIP3    H173196   5.052   2.284  16.945 -2.7130 -0.3758  1.2170
17235TIP3    H273197   5.038   2.138  16.986  0.9295 -0.5727  1.8861
17236TIP3   OH273198   0.074   5.493  12.042 -0.3267 -0.1472  0.7719
17236TIP3    H173199   0.060   5.404  12.074 -2.5699 -0.1692 -0.1667
17236TIP3    H273200   0.152   5.523  12.088  0.5702 -2.6589  0.9475
17237TIP3   OH273201   1.117   4.795  11.862 -0.1106  0.2544  0.6198
17237TIP3    H173202   1.122   4.833  11.950 -0.7811 -1.7478  1.5604
17237TIP3    H273203   1.201   4.750  11.851 -0.6025 -0.7537  0.8656
17238TIP3   OH273204   0.285   1.332  10.721  0.3285 -0.0816 -0.0424
17238TIP3    H173205   0.190   1.332  10.729  0.3827 -1.4545  0.7856
17238TIP3    H273206   0.307   1.420  10.691 -1.2215  0.1584 -0.5049
17239TIP3   OH273207   6.115   4.455   4.847  0.0080 -0.2052 -0.2025
17239TIP3    H173208   6.201   4.485   4.818  0.8315 -1.6676  0.6875
17239TIP3    H273209   6.117   4.464   4.942 -1.1137  0.4952 -0.2403
17240TIP3   OH273210   4.602   6.124  13.718  0.1710  0.2849  0.4962
17240TIP3    H173211   4.688   6.086  13.700 -0.3231 -0.1634 -1.0258
17240TIP3    H273212   4.620   6.212  13.749  1.1711  0.3365 -0.2331
17241TIP3   OH273213   0.725   1.407  13.910  0.4363  0.9953 -0.5664
17241TIP3    H173214   0.743   1.485  13.857 -0.8067  1.0457 -0.9479
17241TIP3    H273215   0.654   1.434  13.969  0.3677  0.3212 -0.3349
17242TIP3   OH273216   3.148   3.952   3.665  0.3992  0.2108  0.5001
17242TIP3    H173217   3.061   3.991   3.673  0.9343  1.5076  0.0960
17242TIP3    H273218   3.207   4.026   3.660  1.5216 -0.6668  0.5860
17243TIP3   OH273219   0.680   2.105  12.321 -0.0296 -0.1726 -0.2476
17243TIP3    H173220   0.749   2.124  12.257 -0.0894 -2.3442 -1.0002
17243TIP3    H273221   0.707   2.150  12.400  0.7250  1.4781 -1.4125
17244TIP3   OH273222   3.109   0.560  12.604 -0.3558 -0.3954  0.2028
17244TIP3    H173223   3.132   0.649  12.631  0.4985 -0.7275  0.5953
17244TIP3    H273224   3.033   0.571  12.547  0.4884  0.6996 -0.7494
17245TIP3   OH273225   1.387   5.153   5.833 -0.0995  0.1400  0.1978
17245TIP3    H173226   1.367   5.160   5.740 -0.6673 -1.8006  0.1713
17245TIP3    H273227   1.353   5.068   5.860 -1.1194  1.2222  2.4788
17246TIP3   OH273228   4.455   2.794  16.229  0.6609  0.0218 -0.4372
17246TIP3    H173229   4.366   2.782  16.264  0.7856  0.4588  0.0443
17246TIP3    H273230   4.507   2.727  16.273  0.8374  0.6334  0.3219
17247TIP3   OH273231   1.164   5.852  14.480  0.4308  0.0188  0.3297
17247TIP3    H173232   1.245   5.842  14.428 -0.1251 -1.2214 -0.3113
17247TIP3    H273233   1.121   5.928  14.441 -0.4726 -1.4919 -1.7357
17248TIP3   OH273234   0.073   3.181  14.341  0.3176 -0.6525 -0.2147
17248TIP3    H173235  -0.000   3.239  14.362  1.1381  0.6401 -0.8607
17248TIP3    H273236   0.106   3.153  14.426 -1.1067 -1.4883  0.0770
17249TIP3   OH273237   0.940   2.327  17.083  1.1384 -0.4023 -0.0061
17249TIP3    H173238   0.880   2.362  17.148  1.1325  0.7163 -0.6012
17249TIP3    H273239   0.983   2.253  17.126  0.7654  0.0157  1.0746
17250TIP3   OH273240   4.645   4.317  15.390  0.2560 -0.1380 -0.1235
17250TIP3    H173241   4.731   4.282  15.415  0.3743  2.0237  2.7353
17250TIP3    H273242   4.589   4.239  15.382  1.4644 -1.3011  2.2048
17251TIP3   OH273243   1.923   4.869  11.643 -0.2281 -0.1421 -0.3011
17251TIP3    H173244   1.971   4.948  11.667  0.6505 -1.0659  1.0451
17251TIP3    H273245   1.969   4.798  11.688 -0.1547 -1.6059 -2.6281
17252TIP3   OH273246   2.372   6.463  15.418  0.4475  0.3094  0.0388
17252TIP3    H173247   2.336   6.471  15.506  2.8542  0.5521  1.0406
17252TIP3    H273248   2.444   6.401  15.427  1.3482  1.0859 -1.5554
17253TIP3   OH273249   3.980   2.655   4.660  0.3539  0.0094  0.0490
17253TIP3    H173250   3.890   2.687   4.651  1.1234  1.9158 -1.1576
17253TIP3    H273251   3.998   2.609   4.578  0.6674  0.0652  0.0857
17254TIP3   OH273252   6.539   0.534  11.651 -0.4945 -0.2998  0.0081
17254TIP3    H173253   6.579   0.619  11.633 -0.0291 -0.7185 -0.9578
17254TIP3    H273254   6.601   0.471  11.615 -0.1175 -1.1128  2.0167
17255TIP3   OH273255   1.453   2.754  11.747 -0.7174 -0.2742  0.3333
17255TIP3    H173256   1.448   2.667  11.708 -1.4212 -0.7947  1.5771
17255TIP3    H273257   1.373   2.798  11.718 -0.2224  0.0828 -0.5389
17256TIP3   OH273258   1.291   4.876   0.851  0.1635  0.2134  0.4267
17256TIP3    H173259   1.289   4.786   0.884 -2.2480 -0.1011 -0.4754
17256TIP3    H273260   1.285   4.931   0.928 -3.4075 -0.4835  0.7143
17257TIP3   OH273261   0.673   5.815  12.453  0.2569 -0.6592 -0.3769
17257TIP3    H173262   0.690   5.877  12.524  1.1879 -0.1563 -1.0313
17257TIP3    H273263   0.734   5.742  12.470 -0.6973 -1.3199  0.2798
17258TIP3   OH273264   2.562   3.411   4.970 -0.2327  0.4699  0.1622
17258TIP3    H173265   2.622   3.387   4.899  0.0297  1.2261  0.1209
17258TIP3    H273266   2.582   3.349   5.040 -2.0109 -1.7128 -1.1854
17259TIP3   OH273267   2.331   4.207   1.510 -0.3859 -0.5043 -0.2886
17259TIP3    H173268   2.320   4.228   1.603  1.2875 -0.8955  0.0121
17259TIP3    H273269   2.281   4.127   1.497  0.8576 -1.4725  0.7197
17260TIP3   OH273270   3.714   1.398   1.882 -0.1592 -0.4233  0.1139
17260TIP3    H173271   3.774   1.470   1.904  0.1962 -1.4789  2.8286
17260TIP3    H273272   3.644   1.406   1.948 -1.1179 -1.3989 -0.7862
17261TIP3   OH273273   3.365   6.748   2.046  0.3258 -0.3663 -0.2675
17261TIP3    H173274   3.291   6.698   2.011 -0.0595  0.4307 -0.6074
17261TIP3    H273275   3.440   6.689   2.039 -0.6558 -1.9883  2.0752
17262TIP3   OH273276   1.060   1.965   0.593 -0.0162 -0.7464 -0.2613
17262TIP3    H173277   0.973   1.939   0.625 -0.2256 -0.1113 -0.3113
17262TIP3    H273278   1.105   1.999   0.670 -1.3003  2.8719 -1.0111
17263TIP3   OH273279   0.468   3.064   6.747  0.1130  0.1228 -0.1448
17263TIP3    H173280   0.516   3.144   6.728  2.5862 -1.0090  1.1396
17263TIP3    H273281   0.520   2.994   6.708 -1.8984 -0.9106 -1.0700
17264TIP3   OH273282   4.622   0.546   5.335 -0.0338 -0.8329 -0.2491
17264TIP3    H173283   4.560   0.478   5.309 -1.4395  0.3715 -0.1114
17264TIP3    H273284   4.631   0.601   5.258 -2.0546  1.1382  0.8496
17265TIP3   OH273285   6.039   2.875   0.976  0.1516 -0.1444  0.3730
17265TIP3    H173286   6.071   2.860   0.886 -1.0458 -2.0700  0.2227
17265TIP3    H273287   5.947   2.898   0.965  0.1593  0.2275  1.0808
17266TIP3   OH273288   3.486   2.775  13.961  0.0377 -0.0858  0.0578
17266TIP3    H173289   3.536   2.697  13.938  0.4653  0.2366 -0.1217
17266TIP3    H273290   3.399   2.743  13.984 -0.2050 -0.4670 -1.4019
17267TIP3   OH273291   2.577   5.973  16.488  0.5842 -0.2266 -0.4195
17267TIP3    H173292   2.499   5.966  16.434 -1.0525  2.0806  1.5200
17267TIP3    H273293   2.633   6.037  16.444  0.0942  0.2431 -0.3589
17268TIP3   OH273294   5.045   3.888  11.797  0.1178  0.1486 -0.3380
17268TIP3    H173295   5.109   3.953  11.826  0.6776 -0.2275 -0.7086
17268TIP3    H273296   5.035   3.905  11.703  1.8446 -1.6138 -0.8784
17269TIP3   OH273297   1.012   2.764   3.169 -0.5175  0.7053 -0.2695
17269TIP3    H173298   1.105   2.771   3.194 -0.6473  1.0225  0.1276
17269TIP3    H273299   0.998   2.837   3.108 -0.4825  0.5925 -0.4141
17270TIP3   OH273300   4.589   1.712   4.792  0.5540  0.4113  0.1374
17270TIP3    H173301   4.495   1.725   4.805  0.6309  1.1849 -0.0719
17270TIP3    H273302   4.610   1.635   4.844  0.1579  1.3101  1.6538
17271TIP3   OH273303   3.730   0.741  15.535 -0.2912  0.4282 -0.2394
17271TIP3    H173304   3.636   0.723  15.534 -0.6034  1.9892  0.3848
17271TIP3    H273305   3.751   0.758  15.627  0.7451 -0.5694 -0.2732
17272TIP3   OH273306   6.468   6.551   5.408 -0.1622 -0.0576  0.6403
17272TIP3    H173307   6.402   6.615   5.385 -0.0308  0.0233  0.4905
17272TIP3    H273308   6.521   6.594   5.476  1.2913  0.8373 -1.0177
17273TIP3   OH273309   1.395   4.434   1.040  0.4082  0.3121 -0.9567
17273TIP3    H173310   1.458   4.451   1.111  0.6927 -1.4363 -0.7664
17273TIP3    H273311   1.311   4.459   1.077  0.1406 -3.3314  1.1119
17274TIP3   OH273312   3.676   4.055   5.503  0.1409  0.4495  0.1729
17274TIP3    H173313   3.755   4.028   5.455 -0.1456  0.6862 -0.4322
17274TIP3    H273314   3.604   4.034   5.444 -0.0959  2.4995 -0.3059
17275TIP3   OH273315   5.974   2.421   2.215 -0.0895 -0.2089  0.2773
17275TIP3    H173316   6.012   2.334   2.229 -0.6327 -0.2826  1.3360
17275TIP3    H273317   6.022   2.456   2.140  0.7957 -1.0389  0.4447
17276TIP3   OH273318   4.761   6.782  14.962  0.8048  0.0498  0.0091
17276TIP3    H173319   4.769   6.705  14.906 -0.5512  0.2339 -0.4653
17276TIP3    H273320   4.722   6.849  14.904  2.2367  1.1739  0.3217
17277TIP3   OH273321   2.685   2.017  14.499 -0.5460  0.5382 -0.5971
17277TIP3    H173322   2.600   2.019  14.454 -2.0553 -0.2434  2.0858
17277TIP3    H273323   2.683   1.936  14.550  1.0003  1.5010  1.0557
17278TIP3   OH273324   2.937   3.447   2.234  0.9854  0.4597 -0.0228
17278TIP3    H173325   2.955   3.534   2.269  0.2743  0.0974  1.2641
17278TIP3    H273326   2.962   3.387   2.304 -2.3577 -0.1833  0.6848
17279TIP3   OH273327   6.443   4.092   2.301 -0.6607 -0.2877  0.0023
17279TIP3    H173328   6.414   4.178   2.273 -0.9294 -0.0735  0.9158
17279TIP3    H273329   6.426   4.090   2.396 -0.1506 -1.1335  0.0879
17280TIP3   OH273330   1.912   5.982   4.835 -0.0152 -0.3262 -0.1505
17280TIP3    H173331   1.847   5.913   4.846 -1.2224  1.1972  2.8701
17280TIP3    H273332   1.984   5.940   4.788 -1.1614 -3.3474  0.6761
17281TIP3   OH273333   4.815   3.251   5.010  0.8464  0.4872 -0.3155
17281TIP3    H173334   4.786   3.304   5.084 -0.3946  0.4378 -0.7613
17281TIP3    H273335   4.735   3.213   4.974  1.5833 -0.5974 -0.8414
17282TIP3   OH273336   0.666   4.518   0.957 -0.1682  0.3128 -0.0828
17282TIP3    H173337   0.680   4.512   0.863 -1.5871 -0.6639 -0.2538
17282TIP3    H273338   0.721   4.591   0.985  0.4104  0.4893 -1.6341
17283TIP3   OH273339   3.892   6.014  15.574 -0.0370 -0.1215 -0.3907
17283TIP3    H173340   3.879   5.920  15.577  1.3130 -0.3019  0.0649
17283TIP3    H273341   3.884   6.037  15.481 -1.0526 -0.5753 -0.4167
17284TIP3   OH273342   5.856   5.659   1.471  0.6302  0.5544 -0.1853
17284TIP3    H173343   5.823   5.704   1.394  1.7273 -1.5175 -1.9009
17284TIP3    H273344   5.941   5.623   1.444  1.9124  1.4039  2.5527
17285TIP3   OH273345   0.038   2.164  13.769  0.3933  0.1232 -0.4878
17285TIP3    H173346   0.045   2.243  13.716  0.1405  1.0287  0.7981
17285TIP3    H273347  -0.052   2.164  13.801  0.4252 -0.6195 -0.3808
17286TIP3   OH273348   5.940   2.279   2.565 -0.0013 -0.3906 -0.2247
17286TIP3    H173349   6.022   2.230   2.562 -0.3538 -1.2550  2.7717
17286TIP3    H273350   5.967   2.371   2.566  0.8408 -0.6216 -0.7424
17287TIP3   OH273351   2.835   4.956   1.338  0.2100  0.2152  0.1232
17287TIP3    H173352   2.787   4.956   1.421  0.6283 -2.2169  0.3874
17287TIP3    H273353   2.775   4.915   1.276  0.7487  0.0244 -0.2730
17288TIP3   OH273354   3.421   4.044  16.888 -0.1151  0.1576 -0.4656
17288TIP3    H173355   3.408   3.962  16.936 -2.1359  0.7838  0.0950
17288TIP3    H273356   3.361   4.106  16.929  1.5925  2.0158 -0.7008
17289TIP3   OH273357   0.339   5.748  11.665  0.2913 -0.0250  1.0300
17289TIP3    H173358   0.295   5.808  11.604 -0.3120  0.5480  2.0080
17289TIP3    H273359   0.422   5.790  11.685  0.0391  0.3042  1.4034
17290TIP3   OH273360   5.631   3.292  10.613  0.2537  0.5291  0.1551
17290TIP3    H173361   5.683   3.314  10.535 -1.3985  1.5381 -0.6966
17290TIP3    H273362   5.638   3.370  10.669 -0.3079  0.6584  0.0481
17291TIP3   OH273363   4.376   4.846   2.627  0.1299 -0.0085  0.7835
17291TIP3    H173364   4.293   4.874   2.589  1.1079  1.3094 -0.4714
17291TIP3    H273365   4.396   4.913   2.692  0.1439 -0.4082  1.1936
17292TIP3   OH273366   3.092   1.886   2.741  0.0993  0.0742 -0.2650
17292TIP3    H173367   3.001   1.895   2.770  0.4868  0.8875  0.7402
17292TIP3    H273368   3.092   1.809   2.684 -0.7241 -1.5321  1.8311
17293TIP3   OH273369   6.686   5.735   0.871 -0.2515 -0.1204 -0.0185
17293TIP3    H173370   6.709   5.821   0.834 -1.2097  0.0753 -0.1814
17293TIP3    H273371   6.767   5.704   0.911  0.2511  0.6196 -0.4338
17294TIP3   OH273372   2.083   1.016   2.528 -0.6617  0.4088 -0.6629
17294TIP3    H173373   2.037   1.042   2.608 -0.8959  0.0179 -0.6728
17294TIP3    H273374   2.159   1.075   2.525 -1.5147  1.5156 -0.9968
17295TIP3   OH273375   2.946   4.599  12.710 -0.2409 -0.1731  0.2119
17295TIP3    H173376   2.858   4.593  12.673 -0.0014  0.0804 -0.4019
17295TIP3    H273377   2.993   4.658  12.652  0.7294 -1.3651 -0.2417
17296TIP3   OH273378   6.668   0.354  15.759 -0.4945  0.6402 -0.0370
17296TIP3    H173379   6.616   0.404  15.822 -2.3106  0.4137 -1.3047
17296TIP3    H273380   6.715   0.290  15.812 -0.9022  1.3859  1.2332
17297TIP3   OH273381   0.195   1.793   1.504  0.1615 -0.0651  0.4578
17297TIP3    H173382   0.143   1.868   1.476 -0.1823 -0.4236  0.1070
17297TIP3    H273383   0.175   1.725   1.439  0.3861 -0.4897  0.8266
17298TIP3   OH273384   0.330   0.404  11.590  0.3955 -0.1954 -0.0428
17298TIP3    H173385   0.332   0.436  11.500 -1.3419  1.1781  0.3952
17298TIP3    H273386   0.376   0.320  11.586 -0.4924 -0.6069 -2.3995
17299TIP3   OH273387   3.592   0.578  15.214  0.3412 -0.0541  0.0598
17299TIP3    H173388   3.596   0.654  15.271 -4.4433  1.1725 -0.9928
17299TIP3    H273389   3.543   0.512  15.264  2.2608 -1.5779  0.0032
17300TIP3   OH273390   2.500   0.877   5.363  0.1217  0.3571 -0.1864
17300TIP3    H173391   2.455   0.814   5.420 -0.3758  0.6811 -0.2139
17300TIP3    H273392   2.439   0.951   5.358  0.2877  0.4406 -0.9168
17301TIP3   OH273393   0.707   0.900  12.682 -0.0048 -0.0874  0.3683
17301TIP3    H173394   0.667   0.880  12.597  0.8879 -1.5908  0.2773
17301TIP3    H273395   0.793   0.936  12.660  0.6855 -1.5317  0.6309
17302TIP3   OH273396   2.366   5.102  10.659  0.3164  0.2543 -0.2760
17302TIP3    H173397   2.292   5.059  10.616 -0.0354 -1.3030  1.8432
17302TIP3    H273398   2.427   5.121  10.587 -0.6772 -1.4064 -1.5951
17303TIP3   OH273399   4.389   6.530   0.668 -0.3098 -0.3363 -0.6447
17303TIP3    H173400   4.327   6.507   0.598  0.4877  1.1383 -1.8566
17303TIP3    H273401   4.352   6.610   0.706  1.2064  0.9544 -1.8442
17304TIP3   OH273402   5.271   2.694  12.571 -0.0779 -0.3038  0.0377
17304TIP3    H173403   5.234   2.664  12.488  1.1601  1.2804 -1.1043
17304TIP3    H273404   5.198   2.736  12.616 -1.1365 -2.4913  0.4571
17305TIP3   OH273405   2.351   2.195   1.696 -0.2607 -0.0317 -0.5966
17305TIP3    H173406   2.446   2.188   1.695 -0.1425  0.6343  1.9551
17305TIP3    H273407   2.321   2.113   1.656  1.3616 -2.0236  2.0832
17306TIP3   OH273408   4.970   5.582   0.278  0.0716 -0.9719 -0.1794
17306TIP3    H173409   4.895   5.543   0.233 -0.5716 -1.4120  1.2377
17306TIP3    H273410   4.938   5.600   0.366  1.9684 -2.2672  0.8090
17307TIP3   OH273411   4.371   0.336   0.356 -0.3108 -0.9835  0.1458
17307TIP3    H173412   4.387   0.410   0.415  1.3998 -1.6345  0.5178
17307TIP3    H273413   4.363   0.376   0.270 -1.5812 -0.1462  0.6500
17308TIP3   OH273414   0.958   1.233  16.638  0.0423  0.1493 -0.4556
17308TIP3    H173415   0.952   1.164  16.703 -0.0056 -0.5889 -1.2360
17308TIP3    H273416   0.930   1.312  16.684 -1.0669 -0.5643  0.1088
17309TIP3   OH273417   4.493   0.642   3.011 -1.3622  0.3874  0.0661
17309TIP3    H173418   4.557   0.610   2.947 -1.2167 -0.4756  0.6378
17309TIP3    H273419   4.532   0.722   3.046 -1.8937  1.4386 -1.6411
17310TIP3   OH273420   2.280   2.673  12.269  0.0226  0.3287 -0.1636
17310TIP3    H173421   2.227   2.750  12.248  1.0688  0.9404 -0.6152
17310TIP3    H273422   2.367   2.709  12.289  0.4769 -0.7218 -0.2138
17311TIP3   OH273423   3.926   0.956   0.040  0.2360 -0.2736  0.0548
17311TIP3    H173424   3.958   1.032   0.090  0.0159 -0.6165  0.7089
17311TIP3    H273425   3.915   0.887   0.105 -0.3238 -0.6363 -0.4229
17312TIP3   OH273426   4.115   4.254  13.704 -0.5968 -0.0221  0.5831
17312TIP3    H173427   4.077   4.186  13.760  1.0119 -1.3628  0.0692
17312TIP3    H273428   4.152   4.317  13.765 -1.1629 -0.1406  1.0537
17313TIP3   OH273429   4.746   5.979  16.994  0.5033 -0.4952 -0.1176
17313TIP3    H173430   4.800   5.912  17.036 -0.2850 -0.8665  0.3115
17313TIP3    H273431   4.806   6.023  16.933  1.4476 -0.5078  0.7793
17314TIP3   OH273432   1.446   6.594  14.516  0.2252  0.2559  0.2912
17314TIP3    H173433   1.467   6.528  14.450  0.0366 -0.3176  0.8068
17314TIP3    H273434   1.354   6.617  14.499  0.3168  0.4543  0.0563
17315TIP3   OH273435   4.670   2.487   1.643  0.3535 -0.3034 -0.2325
17315TIP3    H173436   4.617   2.443   1.709 -1.5883  0.1093 -1.4555
17315TIP3    H273437   4.745   2.429   1.629  1.4353  0.1988  3.1666
17316TIP3   OH273438   4.070   4.480  10.687  0.1335 -0.0228  0.1737
17316TIP3    H173439   4.023   4.513  10.611  0.8810 -0.2106 -0.3766
17316TIP3    H273440   4.010   4.417  10.727 -0.5050  0.5399  0.0997
17317TIP3   OH273441   1.394   5.580  12.305  0.3235 -0.0107 -0.0216
17317TIP3    H173442   1.353   5.493  12.310 -0.2393  0.1998 -0.9287
17317TIP3    H273443   1.335   5.637  12.355 -0.0748  0.1359 -0.6567
17318TIP3   OH273444   3.030   3.581  15.724  0.0382  0.0976  0.1366
17318TIP3    H173445   2.934   3.579  15.729  0.0476  0.6457  0.5896
17318TIP3    H273446   3.053   3.673  15.733  0.6874 -0.1903  1.6277
17319TIP3   OH273447   5.624   1.202   5.165 -0.4886 -0.2150  0.1996
17319TIP3    H173448   5.653   1.171   5.079 -0.4723  0.7646 -0.1562
17319TIP3    H273449   5.619   1.297   5.155 -0.1742 -0.0727  1.3785
17320TIP3   OH273450   1.682   5.211   4.825  0.5454  0.0063  0.6450
17320TIP3    H173451   1.641   5.217   4.912  1.3216 -0.2724  1.0369
17320TIP3    H273452   1.695   5.117   4.811 -1.6177 -0.1157 -0.7486
17321TIP3   OH273453   2.444   6.373   0.496 -0.0483  0.1328  0.2850
17321TIP3    H173454   2.361   6.419   0.484 -0.2789  0.4978  2.9597
17321TIP3    H273455   2.420   6.292   0.541  0.9641 -0.1019  0.4127
17322TIP3   OH273456   0.669   1.263  15.012 -0.1556  0.4047  0.4338
17322TIP3    H173457   0.652   1.264  15.107 -0.6279  2.6033  0.3438
17322TIP3    H273458   0.582   1.259  14.972  0.0456 -0.5947  0.0643
17323TIP3   OH273459   5.446   1.280  16.666 -0.2663 -0.8032  0.0490
17323TIP3    H173460   5.392   1.216  16.620 -0.9607 -0.6803  0.6826
17323TIP3    H273461   5.531   1.238  16.675 -0.9191 -1.9322  1.1070
17324TIP3   OH273462   1.653   5.986   1.246 -0.1356 -0.1410  0.2684
17324TIP3    H173463   1.712   6.058   1.265 -1.0476  0.7574 -0.2795
17324TIP3    H273464   1.641   5.942   1.331 -0.7694  1.2492  0.9031
17325TIP3   OH273465   2.141   5.461   0.672  0.8348 -0.0400  0.8903
17325TIP3    H173466   2.173   5.536   0.622  3.2379 -1.1411  0.7335
17325TIP3    H273467   2.055   5.442   0.635  1.1501  1.2533 -0.5400
17326TIP3   OH273468   5.998   5.687   3.594  1.2568 -0.4394  0.5633
17326TIP3    H173469   5.908   5.654   3.588  1.7102 -1.6447  0.4084
17326TIP3    H273470   6.001   5.759   3.531 -0.1805  0.9497  2.0319
17327TIP3   OH273471   5.964   3.360   0.304 -0.3711 -0.1737 -0.3638
17327TIP3    H173472   6.039   3.315   0.343 -1.2424 -1.0483  0.3537
17327TIP3    H273473   5.976   3.351   0.210 -0.3248 -1.5914 -0.2308
17328TIP3   OH273474   4.209   0.367   3.671 -0.4608  0.3245  0.1272
17328TIP3    H173475   4.225   0.315   3.749 -0.6777  1.9255  1.2605
17328TIP3    H273476   4.293   0.410   3.653 -0.6899  0.7578  0.0897
17329TIP3   OH273477   0.721   4.989  15.183  0.3698  0.0145  0.3801
17329TIP3    H173478   0.634   4.970  15.149  0.2530  0.5215  0.3935
17329TIP3    H273479   0.774   5.007  15.105  0.3383  0.2071  0.4019
17330TIP3   OH273480   4.274   5.442  16.623  0.0127 -0.2430  0.0759
17330TIP3    H173481   4.329   5.410  16.694 -1.0234 -1.7298  0.2379
17330TIP3    H273482   4.314   5.406  16.544 -1.2468 -2.1317  0.2725
17331TIP3   OH273483   1.407   0.429  14.778  0.1854 -0.3915  0.0716
17331TIP3    H173484   1.420   0.480  14.698  1.1026 -1.5745 -0.5524
17331TIP3    H273485   1.466   0.354  14.768 -0.2586 -0.9425  1.5140
17332TIP3   OH273486   6.433   4.425   3.670  0.1544 -0.5449 -0.0395
17332TIP3    H173487   6.493   4.407   3.597  0.7665 -2.1444  0.8325
17332TIP3    H273488   6.484   4.477   3.731 -0.6346  1.5577 -1.1268
17333TIP3   OH273489   3.347   1.916  15.064 -0.4124 -0.4679  0.0541
17333TIP3    H173490   3.403   1.943  15.137  0.0019 -3.1235  0.7557
17333TIP3    H273491   3.265   1.962  15.080 -0.2990 -0.9374  2.1589
17334TIP3   OH273492   1.097   0.352   4.366 -0.0490 -0.0729  0.3275
17334TIP3    H173493   1.097   0.392   4.280 -1.8861 -1.1334 -0.1885
17334TIP3    H273494   1.015   0.381   4.406 -0.1480 -1.1786  0.9473
17335TIP3   OH273495   4.315   4.205  14.416 -0.3865  0.0635  0.5806
17335TIP3    H173496   4.364   4.131  14.451 -0.1981 -0.2022 -0.2349
17335TIP3    H273497   4.280   4.174  14.333 -0.7685  0.7113  0.4926
17336TIP3   OH273498   4.072   6.389  13.661 -0.4546  0.1208  0.9210
17336TIP3    H173499   4.038   6.317  13.715  1.7051  0.2979  2.5999
17336TIP3    H273500   4.158   6.408  13.699 -0.5159  2.8355 -0.2164
17337TIP3   OH273501   2.242   1.505  13.453 -0.9672 -0.1582 -0.3226
17337TIP3    H173502   2.189   1.499  13.532 -1.4761 -0.3004 -0.6648
17337TIP3    H273503   2.252   1.414  13.424  0.8530 -0.2734  0.6334
17338TIP3   OH273504   3.537   0.680   3.421 -0.1605 -0.2020  0.4047
17338TIP3    H173505   3.554   0.644   3.334  0.0622  1.4652 -0.2489
17338TIP3    H273506   3.614   0.733   3.440  0.0737 -1.0436  1.8907
17339TIP3   OH273507   4.043   2.337   1.376  0.5243 -0.4815 -0.4916
17339TIP3    H173508   4.038   2.432   1.387 -1.3400 -0.8020  2.0811
17339TIP3    H273509   3.963   2.314   1.330  0.6386 -0.8720 -0.4929
17340TIP3   OH273510   0.538   0.627  13.199  0.0303  0.5015  0.3367
17340TIP3    H173511   0.605   0.694  13.187  0.1772  0.4132  0.6716
17340TIP3    H273512   0.468   0.672  13.246 -1.6312  1.5558 -2.9587
17341TIP3   OH273513   0.262   4.477  12.334 -0.2657  0.0910 -0.7047
17341TIP3    H173514   0.264   4.448  12.242  1.0665  1.3085 -1.0881
17341TIP3    H273515   0.355   4.484  12.358 -0.5972  1.0961  0.3087
17342TIP3   OH273516   4.443   0.203  12.851  0.4850  0.6879 -0.0218
17342TIP3    H173517   4.464   0.242  12.766  2.1873  0.9050  0.4728
17342TIP3    H273518   4.412   0.115  12.830  0.2238  0.9875 -0.9146
17343TIP3   OH273519   1.673   3.219  14.891  0.0541 -0.5649  0.5530
17343TIP3    H173520   1.633   3.156  14.832 -1.5909  1.4675 -0.5904
17343TIP3    H273521   1.650   3.189  14.979  1.5604 -2.9963  0.1337
17344TIP3   OH273522   1.089   5.057   3.253 -0.6982  0.3180  0.0608
17344TIP3    H173523   1.000   5.031   3.275 -0.7904 -1.7865 -2.4764
17344TIP3    H273524   1.143   4.980   3.272  0.1238  0.5982 -1.0159
17345TIP3   OH273525   2.474   2.246  16.930  0.0025 -0.2925  0.0896
17345TIP3    H173526   2.542   2.313  16.925  0.1625 -0.4125  0.6454
17345TIP3    H273527   2.479   2.200  16.846  0.6231 -0.3152  0.1369
17346TIP3   OH273528   3.909   6.392   4.350  0.5627 -0.3289  0.2089
17346TIP3    H173529   3.965   6.368   4.276  0.1145 -0.2520 -0.1568
17346TIP3    H273530   3.907   6.488   4.348 -0.1103 -0.3432 -0.1835
17347TIP3   OH273531   3.514   1.281  12.244 -0.3752  0.0743 -0.1300
17347TIP3    H173532   3.441   1.220  12.239 -0.8049  0.7782 -2.9650
17347TIP3    H273533   3.474   1.368  12.250  0.2183  0.3792 -0.4384
17348TIP3   OH273534   6.669   2.783   0.574  0.3888  0.0730 -0.1221
17348TIP3    H173535   6.676   2.738   0.658 -0.5780 -0.4846 -0.3411
17348TIP3    H273536   6.735   2.742   0.519  1.2780  0.6881  0.4752
17349TIP3   OH273537   1.496   4.959  11.228 -0.9563 -0.0952 -0.5533
17349TIP3    H173538   1.406   4.954  11.196 -0.7670  2.1065 -1.5162
17349TIP3    H273539   1.535   5.032  11.180  0.8961 -0.0241  0.9823
17350TIP3   OH273540   3.572   0.269  15.606  0.3404 -0.3936 -0.5271
17350TIP3    H173541   3.596   0.315  15.687  1.3587 -0.9538 -0.5019
17350TIP3    H273542   3.654   0.233  15.574 -0.0989 -0.3794 -1.6995
17351TIP3   OH273543   2.334   2.624   3.881  0.8901 -0.0821  0.8084
17351TIP3    H173544   2.355   2.658   3.967  2.6643 -2.2778  1.2735
17351TIP3    H273545   2.390   2.673   3.821  0.1567  0.9561  0.9541
17352TIP3   OH273546   0.336   6.285   6.181  0.2698 -0.4502 -0.1674
17352TIP3    H173547   0.314   6.222   6.112 -1.1816 -0.4697  0.2944
17352TIP3    H273548   0.296   6.249   6.260 -0.2261  0.8459  0.1862
17353TIP3   OH273549   0.392   4.708  10.407 -0.3851 -0.2352 -0.0738
17353TIP3    H173550   0.373   4.616  10.425 -0.4399 -0.5019 -1.4537
17353TIP3    H273551   0.314   4.740  10.362  0.2196  0.1021 -0.8907
17354TIP3   OH273552   5.639   0.889  13.718  0.1361  0.0153  0.0062
17354TIP3    H173553   5.717   0.943  13.708  0.4249 -0.3317  0.3641
17354TIP3    H273554   5.640   0.863  13.810 -0.0626 -0.4952 -0.1350
17355TIP3   OH273555   4.576   0.027   0.419 -0.1690 -0.3706  0.3046
17355TIP3    H173556   4.629  -0.035   0.470 -0.9654 -1.5814 -0.3292
17355TIP3    H273557   4.499   0.042   0.473  0.7747  1.4167  1.2401
17356TIP3   OH273558   1.040   4.492  14.817  0.0144  0.5883 -0.8312
17356TIP3    H173559   1.104   4.474  14.886 -1.3658 -2.5017 -0.3079
17356TIP3    H273560   1.023   4.586  14.825  1.2750  0.6501  1.8123
17357TIP3   OH273561   3.883   0.703  14.792 -0.1228 -0.2198 -0.1967
17357TIP3    H173562   3.884   0.611  14.765  1.0510 -0.4966  0.7445
17357TIP3    H273563   3.863   0.700  14.886  2.1873  0.3361  0.3366
17358TIP3   OH273564   1.709   5.335   1.660  0.4447 -0.3386 -0.2295
17358TIP3    H173565   1.624   5.295   1.680  0.3261 -0.3926 -0.8279
17358TIP3    H273566   1.687   5.414   1.611  0.6980  0.2828  0.6578
17359TIP3   OH273567   1.820   4.943   2.758  0.1856  0.4080 -0.2958
17359TIP3    H173568   1.915   4.941   2.770  0.0235 -1.0535  0.9608
17359TIP3    H273569   1.788   5.002   2.826  0.2369  1.3792 -1.1075
17360TIP3   OH273570   5.839   3.873   6.119 -0.4537 -0.0834  0.1360
17360TIP3    H173571   5.816   3.811   6.049 -0.4939  0.3041 -0.1937
17360TIP3    H273572   5.760   3.926   6.129 -0.7827 -0.7389  1.1182
17361TIP3   OH273573   4.533   1.206  13.615 -0.0244  0.0613  0.0097
17361TIP3    H173574   4.456   1.190  13.560  0.2144  1.2568 -0.6765
17361TIP3    H273575   4.533   1.133  13.677  0.6313 -2.2205 -2.5730
17362TIP3   OH273576   3.516   1.121  16.712 -0.5821 -0.3951 -0.2854
17362TIP3    H173577   3.472   1.096  16.793 -0.8650 -1.1764 -0.6780
17362TIP3    H273578   3.599   1.073  16.714 -0.1943  0.2884 -0.0259
17363TIP3   OH273579   1.770   1.010   4.382 -0.0429  0.0341 -0.2844
17363TIP3    H173580   1.859   1.043   4.374  0.6432 -1.8867 -0.8640
17363TIP3    H273581   1.728   1.032   4.299  0.5182 -0.8252 -0.8071
17364TIP3   OH273582   2.849   0.039  15.014  0.5106  0.6423  0.9745
17364TIP3    H173583   2.868  -0.053  14.996  0.4048  0.7675  0.1939
17364TIP3    H273584   2.848   0.080  14.927  0.5464  1.3714  1.3216
17365TIP3   OH273585   6.605   5.209   5.259  0.0073  0.1145  0.0728
17365TIP3    H173586   6.530   5.252   5.301 -0.8899 -1.2812 -0.0468
17365TIP3    H273587   6.617   5.128   5.309 -1.2153 -1.7005 -2.4457
17366TIP3   OH273588   5.535   5.115  15.549 -0.0127  0.1667 -0.0508
17366TIP3    H173589   5.603   5.171  15.587 -0.0622 -0.0137  0.3086
17366TIP3    H273590   5.531   5.039  15.608  1.5350 -1.2497 -1.6893
17367TIP3   OH273591   4.151   5.235   2.040  0.2105  0.2571  0.5290
17367TIP3    H173592   4.083   5.175   2.073 -1.0975  0.7864 -1.1364
17367TIP3    H273593   4.209   5.178   1.988  0.2329  0.0495  0.7796
17368TIP3   OH273594   5.758   0.239  15.990  0.0554  0.0937 -0.0742
17368TIP3    H173595   5.822   0.168  15.999  1.4096  1.5467  2.0649
17368TIP3    H273596   5.677   0.203  16.027 -0.1981 -1.4463 -1.9984
17369TIP3   OH273597   2.394   0.273   1.137  0.9888 -0.1287 -0.4202
17369TIP3    H173598   2.339   0.333   1.087  1.2446  0.3184 -0.1702
17369TIP3    H273599   2.374   0.187   1.101 -0.0995 -0.0108 -0.1176
17370TIP3   OH273600   3.214   2.552  11.328  0.2745 -0.3759  0.4253
17370TIP3    H173601   3.225   2.578  11.236  0.6639 -0.3995  0.4627
17370TIP3    H273602   3.295   2.505  11.348  0.5712  0.4081  1.0513
17371TIP3   OH273603   3.372   0.941   7.063 -0.7868 -0.3147 -0.2596
17371TIP3    H173604   3.407   0.885   7.133  0.1474 -0.3857 -0.7671
17371TIP3    H273605   3.412   0.907   6.983 -0.1616  1.0932 -0.5777
17372TIP3   OH273606   0.528   2.193   0.569 -0.3431  1.0475 -0.3976
17372TIP3    H173607   0.540   2.201   0.474 -0.3077 -0.0913 -0.5009
17372TIP3    H273608   0.438   2.164   0.580  0.3497 -1.1233 -0.2255
17373TIP3   OH273609   0.810   5.116  16.905 -0.4694 -0.2883 -0.0031
17373TIP3    H173610   0.847   5.201  16.928 -0.5863  0.0310 -0.9471
17373TIP3    H273611   0.759   5.090  16.981  1.8273 -0.8144  1.3943
17374TIP3   OH273612   6.675   1.322  14.212 -0.6290 -0.6904  0.1493
17374TIP3    H173613   6.680   1.412  14.245  0.9425 -0.8374  0.3711
17374TIP3    H273614   6.664   1.331  14.118  2.0459 -0.2313 -0.1626
17375TIP3   OH273615   2.786   2.735  13.625 -0.6957  0.2099 -0.2282
17375TIP3    H173616   2.754   2.818  13.661 -0.3887 -0.3540  1.4021
17375TIP3    H273617   2.708   2.692  13.590 -1.1939  0.2808  0.7859
17376TIP3   OH273618   3.580   5.855  15.592  0.3454  1.0059 -0.3899
17376TIP3    H173619   3.574   5.860  15.497  0.0409 -2.5126 -0.6228
17376TIP3    H273620   3.671   5.831  15.610 -0.1112 -0.4658  0.0530
17377TIP3   OH273621   5.747   2.430   3.135  0.4405  0.2103  0.9212
17377TIP3    H173622   5.772   2.503   3.078 -0.0448  0.9642  1.6750
17377TIP3    H273623   5.750   2.353   3.077 -1.4291  1.1607 -0.4868
17378TIP3   OH273624   6.540   3.438   0.334  0.9940  0.0224  0.3580
17378TIP3    H173625   6.614   3.404   0.384 -0.3844 -1.8730  1.1548
17378TIP3    H273626   6.534   3.381   0.257 -0.2210 -0.4631  0.7910
17379TIP3   OH273627   3.797   2.701  15.657  0.2624 -0.2393 -0.2504
17379TIP3    H173628   3.852   2.633  15.694  1.4676  0.5316 -0.5687
17379TIP3    H273629   3.850   2.738  15.585  0.2560  1.9975  0.8394
17380TIP3   OH273630   0.241   0.642   4.132 -0.1351  0.9592  0.4994
17380TIP3    H173631   0.204   0.563   4.092  2.6711 -1.1212  1.8984
17380TIP3    H273632   0.185   0.659   4.207 -1.0926  0.6683 -0.1334
17381TIP3   OH273633   3.639   2.813   3.131 -0.1928 -0.1430  0.4745
17381TIP3    H173634   3.634   2.823   3.036  1.5987  1.3857  0.5010
17381TIP3    H273635   3.638   2.719   3.145  1.8795 -0.4536 -1.2399
17382TIP3   OH273636   1.894   3.559   5.369 -0.6429  0.3402  0.2437
17382TIP3    H173637   1.924   3.468   5.359 -0.2468  0.5530 -0.5003
17382TIP3    H273638   1.918   3.581   5.459 -0.0588 -0.0484  0.1907
17383TIP3   OH273639   6.242   0.051  16.583  0.0037  0.4624  0.0530
17383TIP3    H173640   6.200   0.048  16.497  0.3227 -0.7433 -0.0727
17383TIP3    H273641   6.173   0.081  16.643 -0.2112  1.3215 -0.6234
17384TIP3   OH273642   5.541   6.078   4.688  0.4242  0.5260  0.1564
17384TIP3    H173643   5.556   5.992   4.727 -0.1913  1.0801  1.6513
17384TIP3    H273644   5.627   6.105   4.657  0.8449 -0.1359  0.7229
17385TIP3   OH273645   5.029   3.944   3.459  0.4125  0.4356  0.0900
17385TIP3    H173646   4.959   3.896   3.503 -1.1263  0.6962 -1.9611
17385TIP3    H273647   5.002   4.036   3.463  1.5913  0.7610  0.9278
17386TIP3   OH273648   5.690   4.714   3.495 -0.0443 -0.3755 -0.2057
17386TIP3    H173649   5.679   4.689   3.587  2.0565  0.8774  0.4406
17386TIP3    H273650   5.749   4.647   3.460  1.4272  0.7087  0.1446
17387TIP3   OH273651   4.110   5.583   5.881  0.7517 -0.5509 -0.3024
17387TIP3    H173652   4.166   5.540   5.946  0.2211 -1.4249 -0.4116
17387TIP3    H273653   4.171   5.618   5.816  1.2867  0.4062  0.7110
17388TIP3   OH273654   6.783   0.813   6.011 -0.1243 -0.0370  0.2160
17388TIP3    H173655   6.836   0.733   6.016  1.1037  0.7760  0.4767
17388TIP3    H273656   6.716   0.793   5.946  0.0510 -1.3484  0.4146
17389TIP3   OH273657   1.460   5.301  10.489 -0.6047 -0.1361  0.3051
17389TIP3    H173658   1.538   5.265  10.446  0.0424  1.3573  0.2081
17389TIP3    H273659   1.451   5.248  10.569 -0.1797 -1.0790 -0.2652
17390TIP3   OH273660   0.941   4.293   3.325 -0.6836  0.5184 -0.0195
17390TIP3    H173661   0.849   4.268   3.334  0.1164 -3.2113 -1.4360
17390TIP3    H273662   0.984   4.253   3.401  0.0326  0.8464 -0.2463
17391TIP3   OH273663   5.656   0.907   5.252 -0.0771 -0.0554  0.4218
17391TIP3    H173664   5.655   0.983   5.195 -0.0855 -0.5831 -0.2845
17391TIP3    H273665   5.723   0.927   5.318  0.0680  0.4655  0.1173
17392TIP3   OH273666   0.707   1.174   3.940  0.1319  0.0393 -0.1706
17392TIP3    H173667   0.639   1.118   3.978 -0.9656  1.5338  0.1704
17392TIP3    H273668   0.740   1.125   3.865 -1.0537 -0.9120 -0.0909
17393TIP3   OH273669   1.904   4.247  12.660 -0.3358  0.0300 -0.2503
17393TIP3    H173670   1.938   4.324  12.614 -0.5810  1.3927  1.8002
17393TIP3    H273671   1.957   4.174  12.627 -0.3334  0.9891 -2.4939
17394TIP3   OH273672   5.166   5.811  13.127  0.1628  0.2585 -0.2544
17394TIP3    H173673   5.142   5.890  13.078 -1.0158  0.3001  0.3573
17394TIP3    H273674   5.133   5.739  13.074 -1.0070  0.2983  0.3931
17395TIP3   OH273675   6.274   2.213  14.195 -0.0922  0.0639 -0.1486
17395TIP3    H173676   6.248   2.290  14.144 -0.4436 -0.2885 -0.5042
17395TIP3    H273677   6.297   2.248  14.281 -0.4925  0.5340 -0.2302
17396TIP3   OH273678   2.436   4.880   0.413 -0.5782  0.5547 -0.6188
17396TIP3    H173679   2.358   4.839   0.375 -0.6559  0.8692 -0.7995
17396TIP3    H273680   2.476   4.928   0.341 -0.4917  0.8028 -0.4083
17397TIP3   OH273681   0.676   4.891  15.439  0.4235 -0.2293 -0.0542
17397TIP3    H173682   0.704   4.801  15.422  0.7345  0.0623 -1.1733
17397TIP3    H273683   0.678   4.933  15.353 -0.6069  0.6034  0.3212
17398TIP3   OH273684   2.087   5.109  11.684 -0.1024  0.1461  0.2413
17398TIP3    H173685   2.177   5.128  11.658 -0.1433 -0.1008 -0.0791
17398TIP3    H273686   2.038   5.188  11.661 -0.2698 -0.3256 -1.0631
17399TIP3   OH273687   1.629   6.224  16.608 -0.2550  0.6234 -0.8065
17399TIP3    H173688   1.566   6.156  16.629  1.4537 -1.1006 -1.1611
17399TIP3    H273689   1.599   6.301  16.657 -2.7507 -0.0645 -1.1837
17400TIP3   OH273690   5.409   5.404   4.032 -0.3401  0.4785  0.0061
17400TIP3    H173691   5.323   5.415   4.071 -0.2767  1.2799 -0.0734
17400TIP3    H273692   5.445   5.492   4.028 -0.8897  0.6169 -3.1066
17401TIP3   OH273693   3.891   4.361   5.395  0.1621  0.1561  0.1045
17401TIP3    H173694   3.827   4.404   5.339  1.1620  0.9594 -0.4508
17401TIP3    H273695   3.889   4.412   5.477  0.3925  0.4613 -0.0747
17402TIP3   OH273696   0.816   1.020   5.460 -0.0796 -0.1774 -0.3886
17402TIP3    H173697   0.723   1.022   5.440  0.4235  1.0299 -2.7558
17402TIP3    H273698   0.860   1.018   5.375  2.1001  1.8096  0.6113
17403TIP3   OH273699   6.660   0.865  14.877  0.6443  0.2710 -0.2696
17403TIP3    H173700   6.652   0.957  14.851  0.5119  0.1711 -0.5886
17403TIP3    H273701   6.570   0.836  14.892  0.5202 -0.3038 -1.9287
17404TIP3   OH273702   2.966   5.077  14.485  0.4901 -0.9086  0.0007
17404TIP3    H173703   2.962   5.065  14.580 -0.1396 -0.7462 -0.0020
17404TIP3    H273704   3.054   5.112  14.469 -0.1889  1.2339  0.7753
17405TIP3   OH273705   4.760   2.988   6.541 -0.2046 -0.2693 -0.0264
17405TIP3    H173706   4.688   2.933   6.573  1.3009 -1.7475  0.9348
17405TIP3    H273707   4.801   2.936   6.472  0.3142  0.2998 -0.1540
17406TIP3   OH273708   4.728   5.042  11.508 -0.3695  0.4677 -0.3493
17406TIP3    H173709   4.741   5.114  11.570 -0.8047  1.6774 -1.6180
17406TIP3    H273710   4.640   5.056  11.473 -0.9969 -1.4898  0.3688
17407TIP3   OH273711   6.639   4.692   3.649 -0.4728 -0.6590 -0.0116
17407TIP3    H173712   6.648   4.681   3.554  0.9995  0.7160 -0.0590
17407TIP3    H273713   6.581   4.767   3.658 -1.9155 -1.7851  0.2043
17408TIP3   OH273714   6.816   6.716  15.235  0.0721 -0.6332 -0.2322
17408TIP3    H173715   6.795   6.654  15.165 -1.6232  0.5672 -0.8306
17408TIP3    H273716   6.789   6.801  15.201  1.7097  0.3470  0.8554
17409TIP3   OH273717   6.272   5.972   3.141  0.1384  0.2678 -0.2346
17409TIP3    H173718   6.352   6.017   3.167 -0.5170  1.2293  0.1667
17409TIP3    H273719   6.233   6.030   3.075 -0.9403  0.5028  0.6027
17410TIP3   OH273720   1.424   3.381   5.261 -0.1019  0.4171  0.2144
17410TIP3    H173721   1.484   3.445   5.298  0.0735 -0.1049  0.8376
17410TIP3    H273722   1.479   3.306   5.240 -0.2127  0.6674 -1.0221
17411TIP3   OH273723   4.408   0.365   6.765 -0.5634 -0.3233 -0.6262
17411TIP3    H173724   4.473   0.424   6.804 -1.9686 -0.3515  1.8694
17411TIP3    H273725   4.438   0.278   6.789 -0.3771 -0.4601 -1.3372
17412TIP3   OH273726   5.444   3.662   4.901 -0.5695 -0.2472 -0.0040
17412TIP3    H173727   5.358   3.620   4.899  0.1539 -1.7656  0.3638
17412TIP3    H273728   5.466   3.675   4.809 -1.2203  0.2253 -0.0998
17413TIP3   OH273729   3.997   5.146  12.889 -0.4649  0.1373 -0.0374
17413TIP3    H173730   4.011   5.052  12.900 -0.4023  0.1574  0.0530
17413TIP3    H273731   3.909   5.162  12.922 -0.6635  0.0275 -0.5112
17414TIP3   OH273732   1.780   4.463  15.194 -0.4326  0.4582  0.7186
17414TIP3    H173733   1.694   4.494  15.165 -1.0296 -0.7589  1.1203
17414TIP3    H273734   1.804   4.520  15.266 -0.4916  1.3604  0.0348
17415TIP3   OH273735   3.072   6.450  11.969  0.3435 -0.0632 -0.0521
17415TIP3    H173736   3.109   6.526  11.925  2.5632 -0.6052  0.8026
17415TIP3    H273737   3.058   6.386  11.900 -1.9504  1.2128 -0.8502
17416TIP3   OH273738   1.170   3.187   3.308  0.2647  0.0218  0.4029
17416TIP3    H173739   1.250   3.181   3.257  0.8012  1.4397  1.0640
17416TIP3    H273740   1.104   3.222   3.248  0.6378  0.7195  0.4030
17417TIP3   OH273741   3.811   3.361   4.297  0.4681 -0.5614 -0.0607
17417TIP3    H173742   3.810   3.274   4.257 -0.5321 -0.4942 -0.1882
17417TIP3    H273743   3.813   3.343   4.391  1.5445 -0.7173 -0.1066
17418TIP3   OH273744   1.712   2.617  16.350  0.4179  0.0922 -0.0044
17418TIP3    H173745   1.658   2.657  16.419  1.4898  0.8796  0.3858
17418TIP3    H273746   1.788   2.675  16.342  1.2623 -1.0631 -0.4881
17419TIP3   OH273747   5.715   3.446   5.718 -0.0981  0.5613  0.2481
17419TIP3    H173748   5.716   3.401   5.803 -1.0983  0.3638  0.1676
17419TIP3    H273749   5.803   3.436   5.684 -0.6467 -2.5389 -0.3907
17420TIP3   OH273750   5.415   5.099  14.833 -0.4185 -0.5602  0.4411
17420TIP3    H173751   5.468   5.073  14.757  0.6402 -0.0797  1.0103
17420TIP3    H273752   5.472   5.158  14.883 -1.7001  0.4153  0.7643
17421TIP3   OH273753   4.563   3.962  13.214 -0.0900  0.6726  0.4578
17421TIP3    H173754   4.605   4.033  13.263 -0.3152  0.6009  0.7612
17421TIP3    H273755   4.480   4.000  13.184  0.2688  0.8719 -0.2902
17422TIP3   OH273756   4.601   1.470  12.786  0.0604  0.6110  0.2582
17422TIP3    H173757   4.669   1.525  12.748 -1.3202  0.3159 -2.8313
17422TIP3    H273758   4.606   1.389  12.736 -1.1270 -0.2471  1.4963
17423TIP3   OH273759   5.951   0.872   0.645  0.3439  0.1805 -0.0571
17423TIP3    H173760   5.967   0.869   0.740 -0.8218 -0.0860  0.1444
17423TIP3    H273761   5.923   0.962   0.628  1.6354  0.5397 -0.3438
17424TIP3   OH273762   5.818   3.545  13.934  0.3151  0.0798 -0.2286
17424TIP3    H173763   5.788   3.458  13.961 -2.0810  0.1813 -2.3826
17424TIP3    H273764   5.903   3.529  13.893  0.7555 -0.9807  1.0470
17425TIP3   OH273765   3.454   5.602  11.946  0.1286 -0.3274 -0.2084
17425TIP3    H173766   3.519   5.568  11.885  0.2001 -2.3924  0.9635
17425TIP3    H273767   3.497   5.678  11.986  0.2083  0.8417 -2.4292
17426TIP3   OH273768   1.415   1.999  13.328 -0.2645  0.4119 -0.5957
17426TIP3    H173769   1.406   2.014  13.234 -0.0541 -1.4846 -0.9282
17426TIP3    H273770   1.504   1.966  13.339 -0.8038 -0.8807  0.0632
17427TIP3   OH273771   4.814   4.403   1.490 -0.3157 -0.4266 -0.2637
17427TIP3    H173772   4.849   4.361   1.412  1.1545 -0.0901  0.2129
17427TIP3    H273773   4.855   4.357   1.563 -2.3259 -1.3145  0.3548
17428TIP3   OH273774   2.350   2.692   5.657  0.2622  0.1526  0.4810
17428TIP3    H173775   2.324   2.642   5.734 -0.3662  0.6124  0.5762
17428TIP3    H273776   2.294   2.660   5.586  1.8809 -1.3407 -0.1615
17429TIP3   OH273777   4.648   1.645   1.060  0.4790 -0.0196  0.7280
17429TIP3    H173778   4.708   1.692   1.001  1.9599 -1.3409  1.1309
17429TIP3    H273779   4.638   1.559   1.019 -0.8205  0.0564  0.8899
17430TIP3   OH273780   0.602   1.795   0.592  0.6870  0.7400  0.2608
17430TIP3    H173781   0.674   1.793   0.655  0.9627 -2.1639 -0.0702
17430TIP3    H273782   0.526   1.764   0.641  0.5866 -0.1329 -0.4265
17431TIP3   OH273783   2.719   6.377  11.124 -0.2723 -1.0082  0.7673
17431TIP3    H173784   2.743   6.469  11.112  0.8701 -1.3301  0.5787
17431TIP3    H273785   2.634   6.368  11.079  0.2139 -0.3535 -0.2884
17432TIP3   OH273786   2.247   3.178   2.989 -0.1879  0.0841  0.1999
17432TIP3    H173787   2.227   3.260   2.944  0.6860  0.7947  1.0531
17432TIP3    H273788   2.208   3.189   3.076 -0.3478 -0.5436  0.2081
17433TIP3   OH273789   3.476   0.815  13.960  0.2929 -0.0109  0.0519
17433TIP3    H173790   3.389   0.776  13.968  0.3480  0.0570  1.0260
17433TIP3    H273791   3.477   0.853  13.872 -0.5559 -0.2657 -0.0738
17434TIP3   OH273792   1.029   3.239   5.007  0.2686 -0.6483 -0.0809
17434TIP3    H173793   1.075   3.200   4.933  1.4170  1.4311 -0.4885
17434TIP3    H273794   1.013   3.166   5.066 -1.2708 -2.4890 -2.6610
17435TIP3   OH273795   2.707   2.499   0.802  0.6095  0.3986  0.3200
17435TIP3    H173796   2.615   2.489   0.826  1.2283 -0.1104  2.6001
17435TIP3    H273797   2.705   2.524   0.710 -1.7753 -0.3770  0.1301
17436TIP3   OH273798   3.544   6.277  15.114  0.0214 -0.0924  0.9419
17436TIP3    H173799   3.621   6.296  15.061  0.4707 -0.9949  1.2620
17436TIP3    H273800   3.479   6.341  15.086 -0.2772 -1.5208 -1.7889
17437TIP3   OH273801   0.720   5.844  12.729 -0.4264  0.2907 -0.0975
17437TIP3    H173802   0.771   5.767  12.751  0.0474  0.5273 -0.3644
17437TIP3    H273803   0.632   5.824  12.761 -0.3056 -0.3536 -0.1575
17438TIP3   OH273804   0.907   5.119  12.678 -0.4597  0.2495  0.1553
17438TIP3    H173805   0.851   5.105  12.755 -1.6559  1.9640 -0.3653
17438TIP3    H273806   0.916   5.032  12.638  1.1971 -0.9035  2.8763
17439TIP3   OH273807   0.498   3.129  11.623  0.0404 -0.2987  0.0782
17439TIP3    H173808   0.405   3.139  11.643  0.3506  0.9734  0.9202
17439TIP3    H273809   0.542   3.129  11.708  0.9818  1.0319 -0.3823
17440TIP3   OH273810   5.813   5.642  16.890  0.2728 -0.6001  0.2340
17440TIP3    H173811   5.821   5.673  16.981  1.0679  0.4171 -0.1767
17440TIP3    H273812   5.783   5.719  16.842  1.4205 -0.6981 -0.6471
17441TIP3   OH273813   4.831   3.595   5.035 -0.0345  0.2829  0.6623
17441TIP3    H173814   4.784   3.675   5.014  0.2590  0.9824  2.5880
17441TIP3    H273815   4.888   3.619   5.108  2.0692 -0.9696 -0.5177
17442TIP3   OH273816   0.627   4.880  12.538  0.7266  0.2266 -0.1301
17442TIP3    H173817   0.567   4.819  12.582  1.0561  0.1706  0.2480
17442TIP3    H273818   0.598   4.881  12.447  0.3918 -0.0972 -0.0271
17443TIP3   OH273819   2.982   6.658   2.240  0.6320 -0.2478  0.2385
17443TIP3    H173820   3.075   6.634   2.241  1.0753  1.3932  1.3018
17443TIP3    H273821   2.936   6.575   2.242  2.0802 -1.0941 -0.3094
17444TIP3   OH273822   0.062   5.094  11.885 -0.0011  0.5079  0.0314
17444TIP3    H173823   0.139   5.038  11.885  0.5436  1.2398 -0.7470
17444TIP3    H273824   0.007   5.060  11.955  0.0949 -1.3075 -0.7490
17445TIP3   OH273825   3.036   2.921  12.183 -0.1418 -0.4595 -0.3705
17445TIP3    H173826   3.125   2.953  12.200 -0.1393 -1.3505  1.4555
17445TIP3    H273827   3.027   2.844  12.240 -3.1890  1.4597  1.8912
17446TIP3   OH273828   6.515   3.304  13.835  0.3887 -0.1382 -0.0866
17446TIP3    H173829   6.440   3.325  13.780 -0.1083 -0.8816  0.3029
17446TIP3    H273830   6.527   3.382  13.889 -1.9551 -1.0956  1.9266
17447TIP3   OH273831   6.548   2.210  14.806  0.1990 -0.3540 -0.1039
17447TIP3    H173832   6.628   2.180  14.764 -0.4447 -2.6763  0.2772
17447TIP3    H273833   6.577   2.244  14.891  1.0208  0.7833 -0.8273
17448TIP3   OH273834   0.721   2.361   5.502 -0.1054  1.2227 -0.3931
17448TIP3    H173835   0.669   2.440   5.514 -2.0553  0.2433 -2.0545
17448TIP3    H273836   0.660   2.289   5.519  1.1751  0.0431 -0.6296
17449TIP3   OH273837   2.855   6.327   2.151  0.1965  0.0129 -0.3383
17449TIP3    H173838   2.784   6.297   2.207  0.3650  0.1720 -0.0399
17449TIP3    H273839   2.826   6.306   2.062 -1.5281  2.6861 -0.4688
17450TIP3   OH273840   3.733   5.981   2.275 -0.3659  0.2040  0.4799
17450TIP3    H173841   3.769   5.894   2.260 -1.4720 -0.3387  0.9796
17450TIP3    H273842   3.727   6.019   2.187  2.4820  0.7458  0.4747
17451TIP3   OH273843   2.270   4.845  13.875  0.6718  0.1922 -0.3855
17451TIP3    H173844   2.284   4.863  13.782  0.6281  0.4055 -0.3506
17451TIP3    H273845   2.269   4.931  13.917 -1.1299  0.2193 -0.4394
17452TIP3   OH273846   6.564   2.524  12.128 -0.1744 -0.0888  0.4377
17452TIP3    H173847   6.489   2.527  12.068  1.1980 -1.1386 -1.3892
17452TIP3    H273848   6.526   2.537  12.215 -2.6238 -1.7326 -0.3387
17453TIP3   OH273849   2.553   6.637   3.722 -0.1005  0.2990 -0.9904
17453TIP3    H173850   2.642   6.635   3.758 -0.0452  0.2951 -1.1270
17453TIP3    H273851   2.563   6.677   3.636 -0.0872 -0.6376 -1.4299
17454TIP3   OH273852   6.759   0.227  11.851 -0.2025 -0.3255 -0.4211
17454TIP3    H173853   6.769   0.275  11.769  0.0590  0.2442 -0.0563
17454TIP3    H273854   6.697   0.157  11.831 -0.4424  0.0573 -1.0000
17455TIP3   OH273855   1.656   2.760  15.044 -0.0058  0.0195  0.2320
17455TIP3    H173856   1.615   2.782  15.128 -0.3851  0.5176 -0.0841
17455TIP3    H273857   1.609   2.813  14.979  0.9645  0.3970 -0.1679
17456TIP3   OH273858   5.666   2.832   0.889 -0.2393 -0.2185  0.1890
17456TIP3    H173859   5.701   2.904   0.836 -1.3549  0.2950  0.1423
17456TIP3    H273860   5.691   2.854   0.979  0.6577 -0.4993  0.0065
17457TIP3   OH273861   3.018   1.206   6.060 -0.5029 -0.4138  0.3437
17457TIP3    H173862   3.097   1.152   6.059 -0.3786 -0.2295  0.0928
17457TIP3    H273863   3.031   1.266   6.133 -0.9420 -1.1649  1.0481
17458TIP3   OH273864   2.577   0.969  15.362  0.2507  0.3868  0.6349
17458TIP3    H173865   2.515   1.041  15.372 -1.8291 -1.3361  0.6893
17458TIP3    H273866   2.587   0.934  15.451  2.5975  1.6231  0.9096
17459TIP3   OH273867   1.900   3.867  10.487 -0.1759  0.1042 -0.4747
17459TIP3    H173868   1.985   3.834  10.456  0.8615  2.2211  0.0365
17459TIP3    H273869   1.879   3.937  10.426 -0.0909  1.5915  1.1935
17460TIP3   OH273870   1.723   4.819  12.578 -0.1856  0.4521 -0.5705
17460TIP3    H173871   1.717   4.786  12.488  0.2718 -2.2295  0.3425
17460TIP3    H273872   1.645   4.873  12.589 -3.1580 -3.5337 -0.8945
17461TIP3   OH273873   5.512   4.392   2.859 -0.1685  0.3263  0.8403
17461TIP3    H173874   5.506   4.442   2.777 -0.2498 -1.0839 -0.0439
17461TIP3    H273875   5.456   4.440   2.920 -0.3001  1.2763 -0.0092
17462TIP3   OH273876   2.661   5.227  12.616 -0.0643 -0.2465  0.0924
17462TIP3    H173877   2.579   5.265  12.648 -0.2143  0.6139 -1.2840
17462TIP3    H273878   2.720   5.229  12.692 -1.2191 -0.6420  1.0193
17463TIP3   OH273879   1.211   5.069   5.628  0.0771  0.0477 -0.4752
17463TIP3    H173880   1.212   5.015   5.707 -0.6701  1.3164  0.4185
17463TIP3    H273881   1.168   5.015   5.562 -0.8273 -0.3889  0.4635
17464TIP3   OH273882   3.891   6.759  11.120 -0.3059 -0.5438 -0.2816
17464TIP3    H173883   3.821   6.810  11.078  1.5081  1.0074 -1.5181
17464TIP3    H273884   3.882   6.671  11.083 -0.8782 -0.0544 -1.3239
17465TIP3   OH273885   1.384   3.727   0.758 -0.2334 -0.2797  0.8053
17465TIP3    H173886   1.440   3.671   0.704 -2.1972 -2.2265  0.7390
17465TIP3    H273887   1.367   3.675   0.837 -0.8296  0.8515  1.4329
17466TIP3   OH273888   4.666   4.991   2.557 -0.0501 -0.2071  0.0543
17466TIP3    H173889   4.720   5.060   2.520 -0.4538  0.1072  0.0400
17466TIP3    H273890   4.582   5.000   2.513 -0.0379 -0.8488 -0.1038
17467TIP3   OH273891   2.612   1.214  17.222  0.2190  0.4115 -0.7677
17467TIP3    H173892   2.685   1.185  17.168  0.3248  1.3900 -1.1686
17467TIP3    H273893   2.534   1.191  17.171  0.2275 -1.0458 -0.1363
17468TIP3   OH273894   3.090   1.561   1.529 -0.6570  0.1228 -0.4326
17468TIP3    H173895   3.079   1.508   1.450  1.4413 -1.0509  0.0072
17468TIP3    H273896   3.172   1.608   1.514 -0.7384  0.6050  0.6427
17469TIP3   OH273897   5.720   5.940  11.581  0.2743 -0.1611  0.3328
17469TIP3    H173898   5.728   5.847  11.602  1.7775 -0.3388 -1.0031
17469TIP3    H273899   5.741   5.985  11.663 -1.2956 -0.9990  1.2143
17470TIP3   OH273900   2.488   2.314  10.729  0.2616 -0.2947  0.3532
17470TIP3    H173901   2.584   2.318  10.726  0.3015 -0.3724  1.4221
17470TIP3    H273902   2.461   2.339  10.640  1.2035  1.7660  0.6073
17471TIP3   OH273903   4.411   6.752  13.044 -0.4040 -0.0559  0.5675
17471TIP3    H173904   4.399   6.705  13.126  2.8583  0.0376  1.1289
17471TIP3    H273905   4.505   6.748  13.026 -0.8235  1.3339 -2.3213
17472TIP3   OH273906   1.842   5.693  12.040  0.2446  0.4164 -0.6434
17472TIP3    H173907   1.851   5.766  11.980 -0.8582  0.9680 -0.1502
17472TIP3    H273908   1.749   5.689  12.060  0.5067 -0.1705  0.5171
17473TIP3   OH273909   2.958   6.389  15.733 -0.2917  0.1407 -0.3570
17473TIP3    H173910   3.039   6.440  15.736 -1.2363  1.6417 -0.0266
17473TIP3    H273911   2.950   6.361  15.642  1.0400 -0.7505 -0.2129
17474TIP3   OH273912   5.101   1.321  13.792  0.2109  0.5941  0.2557
17474TIP3    H173913   5.100   1.236  13.837 -0.0139  1.2698  1.5755
17474TIP3    H273914   5.025   1.318  13.735 -0.8903  0.5923  1.6752
17475TIP3   OH273915   2.285   1.577   2.445  0.2840 -0.0608  0.0466
17475TIP3    H173916   2.239   1.518   2.386  0.4273 -0.3017  0.1728
17475TIP3    H273917   2.358   1.525   2.479  0.1334  0.0352  0.5281
17476TIP3   OH273918   0.982   6.411   2.018 -0.3501 -0.0357 -0.9245
17476TIP3    H173919   0.929   6.422   1.940 -2.5444 -0.0280  0.5263
17476TIP3    H273920   1.072   6.411   1.986 -1.2579 -1.7473 -3.6381
17477TIP3   OH273921   1.719   4.868   6.563  0.0630  0.1399  0.4282
17477TIP3    H173922   1.766   4.948   6.537 -1.2892  0.4082 -1.2571
17477TIP3    H273923   1.655   4.899   6.627 -0.2647  0.3456 -0.0025
17478TIP3   OH273924   1.020   6.163  11.537  0.2653 -0.0473  0.1389
17478TIP3    H173925   0.931   6.136  11.512  0.6820  0.1853 -1.6796
17478TIP3    H273926   1.075   6.088  11.515  1.0629  1.2830 -2.5067
17479TIP3   OH273927   1.169   0.566   5.642  0.5533 -0.1124 -0.0600
17479TIP3    H173928   1.218   0.599   5.566 -0.2322 -2.5232 -1.6644
17479TIP3    H273929   1.178   0.471   5.637 -1.0066 -0.3910  1.8842
17480TIP3   OH273930   2.790   3.675   4.385  0.4615  0.2968  0.3061
17480TIP3    H173931   2.760   3.764   4.400 -1.2123 -0.3052  0.6076
17480TIP3    H273932   2.711   3.622   4.386  1.4655 -1.2474  0.5198
17481TIP3   OH273933   6.717   6.202   0.517  0.4215 -0.0884 -0.2972
17481TIP3    H173934   6.782   6.271   0.532 -0.6332  1.1311 -1.2574
17481TIP3    H273935   6.719   6.187   0.423 -0.2563 -0.4831 -0.2541
17482TIP3   OH273936   2.770   1.081   5.402 -0.1989 -0.0536 -0.0904
17482TIP3    H173937   2.695   1.063   5.459 -0.0119 -2.4379 -0.5676
17482TIP3    H273938   2.805   1.164   5.435 -1.3347 -0.3376  1.9501
17483TIP3   OH273939   4.893   5.423  14.035  0.3950  0.2145 -0.0785
17483TIP3    H173940   4.972   5.475  14.049  0.6400  1.0095 -3.8422
17483TIP3    H273941   4.913   5.370  13.958 -2.3406 -0.3829 -0.4101
17484TIP3   OH273942   5.122   4.274  11.548 -0.2176  0.0377  0.2065
17484TIP3    H173943   5.107   4.267  11.453 -0.6347 -0.9849  0.3371
17484TIP3    H273944   5.092   4.362  11.571  0.6099  0.5776 -0.7433
17485TIP3   OH273945   0.007   0.121  14.626 -0.0023  0.0733 -0.6941
17485TIP3    H173946   0.022   0.216  14.634 -0.6600  0.2758 -1.7298
17485TIP3    H273947   0.061   0.083  14.695  0.9522  1.1504 -0.8152
17486TIP3   OH273948   4.458   3.707  15.613  0.1326 -0.3544 -0.0770
17486TIP3    H173949   4.431   3.792  15.647  0.8934  0.4194 -1.3691
17486TIP3    H273950   4.553   3.710  15.615  0.1916 -2.0422  1.9429
17487TIP3   OH273951   4.275   2.865   1.126 -0.0122  0.0169  0.0535
17487TIP3    H173952   4.263   2.959   1.110 -1.0251 -0.2510 -0.7879
17487TIP3    H273953   4.193   2.836   1.166 -0.4171 -0.8748 -1.4002
17488TIP3   OH273954   3.438   2.311   5.792 -0.2545  0.2728  0.0606
17488TIP3    H173955   3.493   2.310   5.714 -0.4480  0.2013 -0.0755
17488TIP3    H273956   3.488   2.263   5.858  0.5501  1.5678  0.4152
17489TIP3   OH273957   3.336   3.807  17.012  0.1351 -0.4067 -0.1485
17489TIP3    H173958   3.294   3.812  17.098  0.3077 -0.6763 -0.0487
17489TIP3    H273959   3.348   3.714  16.996  2.2217 -0.2725  0.5540
17490TIP3   OH273960   2.891   0.174  13.530 -0.1407 -0.1383  0.1131
17490TIP3    H173961   2.826   0.106  13.549  0.7538 -0.8636  0.6816
17490TIP3    H273962   2.879   0.194  13.437 -1.7917  0.4116  0.4421
17491TIP3   OH273963   4.030   4.084   3.164  0.3742 -0.2234 -0.1825
17491TIP3    H173964   4.002   4.169   3.131 -1.9652 -0.6441  0.6416
17491TIP3    H273965   4.115   4.069   3.122  0.0950  1.8084 -1.5327
17492TIP3   OH273966   6.767   4.525   4.504 -0.1965  0.2602  0.2528
17492TIP3    H173967   6.796   4.561   4.420 -0.3883 -0.6524 -0.2113
17492TIP3    H273968   6.848   4.496   4.547 -0.3183 -1.6091 -0.7238
17493TIP3   OH273969   4.670   3.745  16.858  0.0991  0.6258  0.1398
17493TIP3    H173970   4.622   3.738  16.776  0.2228  1.6239 -0.0209
17493TIP3    H273971   4.630   3.679  16.915 -1.9012  1.8881  0.2269
17494TIP3   OH273972   3.121   0.845  12.591 -0.8399 -0.3284  0.1262
17494TIP3    H173973   3.133   0.922  12.646  0.7410 -0.2627 -0.2996
17494TIP3    H273974   3.088   0.879  12.508  0.8915  0.0118 -0.4348
17495TIP3   OH273975   1.120   3.436   1.229  0.4876 -0.0303 -0.1527
17495TIP3    H173976   1.197   3.383   1.211  1.4183  0.9242  0.9122
17495TIP3    H273977   1.076   3.390   1.300 -0.2977 -0.9369 -1.2176
17496TIP3   OH273978   4.428   3.731  14.662 -0.2726  0.1817  0.5034
17496TIP3    H173979   4.398   3.683  14.585 -0.5592  0.9913  0.1091
17496TIP3    H273980   4.383   3.689  14.736 -0.3757 -0.2695  0.1871
17497TIP3   OH273981   5.996   3.360  11.638  0.5004 -0.5762 -0.2194
17497TIP3    H173982   6.001   3.271  11.604 -0.8397 -1.2142  1.1770
17497TIP3    H273983   5.968   3.413  11.563 -0.7375 -1.6703 -0.5448
17498TIP3   OH273984   3.358   0.581   3.025 -0.2555  0.1258  0.0864
17498TIP3    H173985   3.441   0.611   3.062 -0.0847  0.5825 -0.6623
17498TIP3    H273986   3.331   0.509   3.082 -0.1142  0.9673  1.2320
17499TIP3   OH273987   0.543   3.197   0.940  0.2041 -0.5102  0.5327
17499TIP3    H173988   0.468   3.140   0.923  0.0230 -0.0378 -0.2806
17499TIP3    H273989   0.593   3.194   0.859  1.3643 -1.2558  1.2579
17500TIP3   OH273990   1.496   1.339  13.525 -0.6981  0.1707 -0.5329
17500TIP3    H173991   1.470   1.431  13.513 -0.9989 -0.1147 -2.1716
17500TIP3    H273992   1.414   1.295  13.549 -0.6593  0.2300 -0.2879
17501TIP3   OH273993   5.357   2.184   4.839 -0.2988  0.1907  0.6074
17501TIP3    H173994   5.297   2.243   4.886 -2.1336 -0.2738 -1.0906
17501TIP3    H273995   5.405   2.240   4.779  0.5270  0.4617  1.5013
17502TIP3   OH273996   1.139   2.908  17.227  0.0259 -0.7004  0.1237
17502TIP3    H173997   1.172   2.832  17.180 -0.0847 -0.5359 -0.2191
17502TIP3    H273998   1.128   2.877  17.317  0.0561 -1.0674  0.0053
17503TIP3   OH273999   3.806   5.019   1.864 -0.6017 -0.1896  0.4648
17503TIP3    H174000   3.721   5.047   1.898 -1.2068 -0.1675 -1.0226
17503TIP3    H274001   3.833   5.089   1.805  0.0096 -0.6404  0.2014
17504TIP3   OH274002   4.377   1.679   5.118 -0.0436 -0.0358  0.8734
17504TIP3    H174003   4.362   1.774   5.113 -5.3968 -0.8205 -1.1725
17504TIP3    H274004   4.348   1.655   5.206  0.3023  0.0688  1.0163
17505TIP3   OH274005   4.711   3.187   5.974 -0.2707  0.1041 -0.3538
17505TIP3    H174006   4.779   3.131   6.011 -0.0579  0.2230 -0.5584
17505TIP3    H274007   4.756   3.270   5.957 -0.3159 -0.0204 -1.0756
17506TIP3   OH274008   3.612   6.372   0.192  0.3875  0.3791 -0.8193
17506TIP3    H174009   3.701   6.389   0.223  0.5969 -1.1204 -0.5250
17506TIP3    H274010   3.625   6.316   0.115 -0.3255 -0.5728 -0.2489
17507TIP3   OH274011   5.409   5.349  11.504 -0.2131  0.2042  1.1226
17507TIP3    H174012   5.345   5.396  11.558 -0.1552  0.9651  0.5428
17507TIP3    H274013   5.358   5.282  11.459 -0.4116  0.1181  1.4703
17508TIP3   OH274014   5.304   3.875   0.257  0.3754  0.5842 -0.3966
17508TIP3    H174015   5.380   3.824   0.283 -0.9554  0.0306  2.6179
17508TIP3    H274016   5.229   3.828   0.294 -1.4110  1.3590 -2.8968
17509TIP3   OH274017   2.147   3.382  10.314 -0.5230 -0.3356 -0.6536
17509TIP3    H174018   2.071   3.427  10.349 -0.6416 -0.7812 -0.3349
17509TIP3    H274019   2.125   3.289  10.319  1.0860 -0.6259  1.9162
17510TIP3   OH274020   2.045   6.628   6.656  0.0380  0.6115 -0.2119
17510TIP3    H174021   2.087   6.666   6.734  0.6274 -0.8639  0.2022
17510TIP3    H274022   2.118   6.596   6.603 -0.3295  2.1118 -1.6499
17511TIP3   OH274023   4.578   2.308   1.020 -0.2223  0.5583 -0.6937
17511TIP3    H174024   4.638   2.246   1.061 -0.6228 -1.0044 -2.3818
17511TIP3    H274025   4.611   2.394   1.046  0.7418 -0.3355  1.1476
17512TIP3   OH274026   5.324   0.798   3.065 -0.1619 -0.2401  0.1110
17512TIP3    H174027   5.407   0.757   3.090 -0.9822 -2.3366 -0.5038
17512TIP3    H274028   5.341   0.892   3.071  2.2138 -0.6375  0.1266
17513TIP3   OH274029   5.917   6.217  15.698  0.5291  0.0722 -0.0073
17513TIP3    H174030   5.868   6.141  15.667  0.1078  0.5233 -0.4603
17513TIP3    H274031   5.997   6.181  15.737 -0.3971 -0.7064  1.1981
17514TIP3   OH274032   2.374   0.792  13.260  0.2427  0.1417 -1.0488
17514TIP3    H174033   2.362   0.697  13.260  2.4519 -0.1622 -0.0221
17514TIP3    H274034   2.330   0.822  13.340 -0.9189  0.0567 -1.6512
17515TIP3   OH274035   2.228   2.644  12.757  0.2408 -0.0423  0.7241
17515TIP3    H174036   2.270   2.612  12.836 -0.4731  1.8591  1.9081
17515TIP3    H274037   2.295   2.694  12.712  0.5207 -0.7599  0.3338
17516TIP3   OH274038   6.403   3.245  13.266 -0.4878 -0.1814 -0.2705
17516TIP3    H174039   6.358   3.224  13.347  1.2764 -0.6562  0.6098
17516TIP3    H274040   6.334   3.277  13.208 -1.6918  0.6103  1.5539
17517TIP3   OH274041   4.777   1.699   3.761 -0.0436 -0.1375  0.5045
17517TIP3    H174042   4.688   1.663   3.767 -0.4538  0.6486 -0.7973
17517TIP3    H274043   4.819   1.671   3.842 -2.0976  1.1033  2.0641
17518TIP3   OH274044   0.211   4.161  12.976  0.0603 -0.5015 -0.2728
17518TIP3    H174045   0.169   4.185  13.059 -0.8856  1.0098 -1.1661
17518TIP3    H274046   0.153   4.096  12.938 -0.6305  0.3721 -0.7321
17519TIP3   OH274047   2.487   0.057   1.572  0.3465 -0.1513  0.4974
17519TIP3    H174048   2.528   0.065   1.658  0.3198 -0.1343  0.5088
17519TIP3    H274049   2.488   0.146   1.537  0.2052 -0.1294  0.5495
17520TIP3   OH274050   2.385   5.148   4.270 -0.7862 -1.1622 -0.6799
17520TIP3    H174051   2.420   5.078   4.324  1.2912 -0.2371 -0.8081
17520TIP3    H274052   2.460   5.204   4.250 -2.1810  0.4459 -1.5832
17521TIP3   OH274053   0.579   3.031   4.912 -0.5925  0.1824  0.8340
17521TIP3    H174054   0.516   3.006   4.979 -1.6372 -1.6348 -0.7706
17521TIP3    H274055   0.546   3.114   4.878 -2.5093 -0.9953 -0.3507
17522TIP3   OH274056   4.863   4.527   4.365 -0.1175 -0.1934 -0.4056
17522TIP3    H174057   4.856   4.533   4.460 -0.0508  1.0614 -0.4693
17522TIP3    H274058   4.787   4.474   4.339 -1.1831  1.0288  0.1858
17523TIP3   OH274059   3.389   1.644  16.236  0.1550 -0.3431 -0.4930
17523TIP3    H174060   3.479   1.675  16.228 -0.1365  0.2797 -1.5494
17523TIP3    H274061   3.397   1.556  16.272  1.1106  0.2186  0.6957
17524TIP3   OH274062   1.172   1.801   0.228 -0.0203  0.0313  0.5751
17524TIP3    H174063   1.083   1.776   0.204 -0.5966  0.7527  1.9187
17524TIP3    H274064   1.216   1.718   0.245 -0.3772 -0.3385 -0.2741
17525TIP3   OH274065   6.553   2.640  16.071 -0.4900  0.5424 -0.1086
17525TIP3    H174066   6.473   2.674  16.111  0.0221  0.5134  0.9417
17525TIP3    H274067   6.620   2.706  16.091  0.0983 -0.1912  0.3698
17526TIP3   OH274068   1.982   6.298   5.114  0.3204 -0.3572  0.4408
17526TIP3    H174069   1.890   6.290   5.139  0.2809  1.4893  0.9177
17526TIP3    H274070   2.015   6.208   5.116 -1.3975 -0.9964  0.5343
17527TIP3   OH274071   5.257   0.517   5.311 -0.1180 -0.1513 -0.3487
17527TIP3    H174072   5.273   0.427   5.338 -2.8461 -0.4003  0.5612
17527TIP3    H274073   5.239   0.512   5.217 -0.5297 -0.6082 -0.2479
17528TIP3   OH274074   5.900   1.018  15.427  0.3390 -0.0574  0.0926
17528TIP3    H174075   5.993   1.012  15.448 -0.0171  0.7417  1.9192
17528TIP3    H274076   5.893   1.099  15.375  0.9261 -1.0872 -1.6503
17529TIP3   OH274077   6.792   3.156   0.860  0.4433  0.1200  0.2926
17529TIP3    H174078   6.815   3.166   0.768  0.1696  1.2961  0.3419
17529TIP3    H274079   6.766   3.244   0.888  0.1288 -0.3086  1.3816
17530TIP3   OH274080   0.045   3.314  15.419  0.3790  0.4651 -0.0161
17530TIP3    H174081   0.094   3.293  15.499  0.4904  0.1917 -0.1564
17530TIP3    H274082  -0.046   3.314  15.447  0.4160  0.3332  0.1061
17531TIP3   OH274083   4.924   1.215   2.367  0.4197 -0.0289 -0.3922
17531TIP3    H174084   5.007   1.197   2.412 -0.0498  1.8673  1.3291
17531TIP3    H274085   4.948   1.233   2.277  1.6152 -1.9686 -0.4776
17532TIP3   OH274086   4.951   5.924  15.885 -0.3706  0.0175  0.3982
17532TIP3    H174087   4.881   5.989  15.880 -0.3485  0.1130  1.2413
17532TIP3    H274088   4.921   5.852  15.829 -0.8593  0.3149  0.2738
17533TIP3   OH274089   2.088   1.926   0.423 -0.6584  0.1363  0.0409
17533TIP3    H174090   2.051   1.845   0.387 -1.2197  0.0336  0.8278
17533TIP3    H274091   2.114   1.902   0.512  0.9971  0.3033 -0.3941
17534TIP3   OH274092   2.975   4.474  13.542 -0.3924  0.8617 -0.6328
17534TIP3    H174093   3.020   4.444  13.622 -0.8085  1.1776 -0.2802
17534TIP3    H274094   3.031   4.443  13.471 -0.1887  0.2840 -0.2318
17535TIP3   OH274095   4.247   6.621   1.898 -0.0301  0.2018 -0.2163
17535TIP3    H174096   4.156   6.596   1.909  0.6246 -1.6982  1.0864
17535TIP3    H274097   4.247   6.716   1.902 -1.9289  0.1989 -0.0472
17536TIP3   OH274098   6.481   1.908   1.459 -0.0788 -0.6056 -0.4087
17536TIP3    H174099   6.556   1.877   1.509 -0.1936 -0.9042 -0.4158
17536TIP3    H274100   6.406   1.863   1.499 -0.4008  0.5986  0.3691
17537TIP3   OH274101   3.996   1.762  14.139 -0.4938 -0.1982 -0.5333
17537TIP3    H174102   3.980   1.672  14.109  0.4560  0.3645 -2.8305
17537TIP3    H274103   4.091   1.774  14.128 -0.3898  0.6010  1.1601
17538TIP3   OH274104   5.455   5.866  11.577  0.2000 -0.4672  0.2588
17538TIP3    H174105   5.463   5.845  11.670 -0.6407 -2.0162 -0.0084
17538TIP3    H274106   5.533   5.919  11.558 -0.5222  1.3866  2.2403
17539TIP3   OH274107   4.065   5.122  16.481 -0.2573 -0.5176  0.1296
17539TIP3    H174108   4.146   5.150  16.523 -1.0065  0.1696  1.1115
17539TIP3    H274109   4.047   5.035  16.518 -0.6933 -0.0913  0.9157
17540TIP3   OH274110   0.697   2.120   5.946  0.5934  0.8745 -0.0813
17540TIP3    H174111   0.655   2.178   6.010 -1.0412  0.1030 -0.4292
17540TIP3    H274112   0.731   2.048   5.998 -1.1346  0.0188 -0.1036
17541TIP3   OH274113   4.285   5.714   4.591 -0.2354 -0.0415 -0.5527
17541TIP3    H174114   4.294   5.807   4.568  0.9806 -0.0192 -0.0057
17541TIP3    H274115   4.277   5.669   4.507  1.3922  0.3379 -0.9286
17542TIP3   OH274116   3.563   5.972   3.389 -0.7633 -0.6738  0.2933
17542TIP3    H174117   3.607   6.057   3.399 -3.4629  0.6010  2.0353
17542TIP3    H274118   3.607   5.915   3.452  0.3410 -0.2595 -0.0913
17543TIP3   OH274119   4.744   1.002   5.690  0.1573 -0.1196 -0.7212
17543TIP3    H174120   4.800   1.015   5.767 -0.2931 -2.1173 -0.0214
17543TIP3    H274121   4.801   1.019   5.616  0.7810  1.2065  0.0482
17544TIP3   OH274122   1.557   3.413   4.938 -0.1483 -0.5030  0.3188
17544TIP3    H174123   1.475   3.368   4.960  0.1439 -1.2628 -0.1419
17544TIP3    H274124   1.584   3.454   5.020 -0.7619 -0.6073  0.5823
17545TIP3   OH274125   1.313   4.462   3.989 -0.3993  0.0092  0.5675
17545TIP3    H174126   1.384   4.511   3.949 -0.9033  0.9599  0.8120
17545TIP3    H274127   1.250   4.529   4.016 -0.9981 -0.7584  1.1077
17546TIP3   OH274128   4.624   6.521   6.802 -0.1251  0.1717  0.0629
17546TIP3    H174129   4.572   6.456   6.849 -1.2872  0.6052 -0.6203
17546TIP3    H274130   4.709   6.478   6.789 -0.3692 -0.6130  0.9881
17547TIP3   OH274131   3.450   4.381   5.219  0.5172 -0.0151 -0.0073
17547TIP3    H174132   3.412   4.293   5.217 -0.6989  0.4891  0.2471
17547TIP3    H274133   3.439   4.410   5.309 -1.0759  1.2283 -0.5673
17548TIP3   OH274134   5.675   5.250  14.237  0.2648 -0.2070  0.0567
17548TIP3    H174135   5.744   5.281  14.295  0.5812  1.4578 -1.1587
17548TIP3    H274136   5.701   5.281  14.150 -0.1574 -2.6972 -1.0239
17549TIP3   OH274137   2.068   4.791  15.961  0.1155  0.6490 -0.0429
17549TIP3    H174138   2.062   4.853  15.888  0.2774  0.4841 -0.1962
17549TIP3    H274139   2.159   4.796  15.989  0.1545  0.4071 -0.1204
17550TIP3   OH274140   2.479   0.190  15.528 -0.2894 -0.0604 -0.3924
17550TIP3    H174141   2.444   0.224  15.446  0.4713  1.0470 -0.2607
17550TIP3    H274142   2.446   0.248  15.595 -2.3285 -1.9666  0.3142
17551TIP3   OH274143   3.108   5.346   4.465  0.0970  0.6853 -0.4200
17551TIP3    H174144   3.114   5.255   4.436 -2.5530  0.3055  0.0783
17551TIP3    H274145   3.198   5.375   4.473  0.9652 -1.6512 -1.3704
17552TIP3   OH274146   2.318   3.557   2.593 -0.4958  0.1821  0.3039
17552TIP3    H174147   2.407   3.584   2.572 -1.3403  1.7322 -1.5483
17552TIP3    H274148   2.321   3.462   2.597  0.7859  0.0923 -2.0620
17553TIP3   OH274149   4.817   2.307   6.297 -0.1114  0.2843 -0.1599
17553TIP3    H174150   4.840   2.381   6.353 -1.9849  2.2528 -1.9044
17553TIP3    H274151   4.731   2.278   6.330 -0.7229  0.7638 -1.3180
17554TIP3   OH274152   4.525   5.650  15.827  0.1166  0.2125 -0.0482
17554TIP3    H174153   4.503   5.714  15.759  0.1273 -0.5240 -0.7587
17554TIP3    H274154   4.507   5.695  15.909  0.4406  1.2399 -0.5334
17555TIP3   OH274155   3.679   1.594   2.780 -0.2413 -0.1075 -0.8497
17555TIP3    H174156   3.632   1.654   2.838  2.7726  1.8798 -0.3642
17555TIP3    H274157   3.662   1.507   2.816  0.5470  0.9905  2.3127
17556TIP3   OH274158   2.744   3.061  17.160 -0.1625  0.3422  0.3414
17556TIP3    H174159   2.666   3.094  17.115 -0.3934  2.0538  1.9672
17556TIP3    H274160   2.748   3.111  17.241  2.7946  0.4840  0.1522
17557TIP3   OH274161   2.175   0.172   5.868 -0.0454  0.2409 -0.0430
17557TIP3    H174162   2.178   0.242   5.932 -1.3973 -0.5945  0.9502
17557TIP3    H274163   2.223   0.100   5.909  0.8308  0.3708 -0.8162
17558TIP3   OH274164   6.067   5.154   3.602  0.7259 -0.5205 -0.1637
17558TIP3    H174165   6.143   5.198   3.640  1.5343 -1.6621 -0.4350
17558TIP3    H274166   6.042   5.089   3.668  0.4470 -0.6514 -0.3973
17559TIP3   OH274167   4.629   2.606  16.569 -0.3663  0.0520 -0.1615
17559TIP3    H174168   4.683   2.680  16.594 -0.1305 -0.5145  1.0423
17559TIP3    H274169   4.562   2.600  16.637  0.0313 -1.2357  0.1513
17560TIP3   OH274170   2.073   5.635  16.683  0.1398 -0.2473 -0.0784
17560TIP3    H174171   2.045   5.558  16.633 -0.9338  0.4670 -0.5999
17560TIP3    H274172   2.028   5.626  16.767 -0.2519 -0.0293 -0.2598
17561TIP3   OH274173   1.850   5.745   3.036  0.3307  0.4169  0.2823
17561TIP3    H174174   1.851   5.817   2.973 -0.7731 -0.0349 -0.2675
17561TIP3    H274175   1.761   5.746   3.072  0.3025 -0.6543  0.2734
17562TIP3   OH274176   6.419   2.465   5.145  0.4353  0.0878  0.3861
17562TIP3    H174177   6.330   2.433   5.156  0.6200 -0.6128 -0.1382
17562TIP3    H274178   6.474   2.394   5.177  0.8401  0.0383 -0.4309
17563TIP3   OH274179   4.711   1.026   6.250  0.3679 -0.3293  0.1019
17563TIP3    H174180   4.739   0.941   6.284  1.7166  0.3116  0.6599
17563TIP3    H274181   4.761   1.090   6.302 -2.4522  0.9119  1.3822
17564TIP3   OH274182   3.132   3.253   3.443 -0.3358 -0.0706 -0.7321
17564TIP3    H174183   3.042   3.239   3.473 -0.6407  0.7897 -1.2170
17564TIP3    H274184   3.140   3.202   3.363 -0.9596  1.2309 -1.6544
17565TIP3   OH274185   0.607   2.181   0.039  0.2162  0.2651 -0.4171
17565TIP3    H174186   0.653   2.264   0.028  0.8076 -0.0360 -0.1989
17565TIP3    H274187   0.564   2.189   0.124  0.1603  0.4038 -0.4589
17566TIP3   OH274188   1.814   4.538  16.666  0.4961 -0.0753  0.0520
17566TIP3    H174189   1.879   4.599  16.701  1.5139 -1.3672  0.4508
17566TIP3    H274190   1.734   4.558  16.714  0.8751  0.8144  0.3183
17567TIP3   OH274191   6.213   5.788   0.593  0.6533  0.0202  0.1475
17567TIP3    H174192   6.132   5.754   0.632  0.9990 -0.7807  0.1938
17567TIP3    H274193   6.262   5.709   0.569  1.5050  0.5051  0.2964
17568TIP3   OH274194   2.333   4.567   2.151 -0.0580 -0.2021  0.4503
17568TIP3    H174195   2.362   4.655   2.177 -0.7203  0.1137  0.1334
17568TIP3    H274196   2.257   4.549   2.207 -2.7113  1.2845 -2.5241
17569TIP3   OH274197   5.834   0.929  13.101 -0.5730  0.7706  0.3113
17569TIP3    H174198   5.777   0.990  13.056 -1.2968  1.3293  1.9474
17569TIP3    H274199   5.775   0.864  13.139  0.1223 -0.4647 -0.6530
17570TIP3   OH274200   2.185   4.735   4.384 -0.0545 -0.3576 -0.1024
17570TIP3    H174201   2.203   4.810   4.441 -1.6641  0.1790 -0.2980
17570TIP3    H274202   2.147   4.773   4.305 -0.5170 -1.3532 -0.3594
17571TIP3   OH274203   1.562   2.555  12.305  0.0694  0.8332  0.7404
17571TIP3    H174204   1.521   2.624  12.252 -2.3195 -0.5466  0.7343
17571TIP3    H274205   1.602   2.496  12.240 -2.1003 -0.3823  0.4674
17572TIP3   OH274206   0.047   4.585  11.284  0.2513 -0.6046  0.0065
17572TIP3    H174207  -0.018   4.633  11.233  0.0060 -2.5210 -1.5531
17572TIP3    H274208  -0.003   4.540  11.351  0.1150 -1.1164 -0.4395
17573TIP3   OH274209   1.621   1.627   4.388  0.1923 -0.1552  0.2598
17573TIP3    H174210   1.661   1.559   4.332 -0.9218  0.9388 -1.9331
17573TIP3    H274211   1.584   1.690   4.326 -2.4962  0.3041  2.2349
17574TIP3   OH274212   4.009   5.037   2.189  0.0333 -0.1156 -0.2168
17574TIP3    H174213   3.978   5.118   2.228 -0.7456 -0.8404  0.7052
17574TIP3    H274214   3.929   4.986   2.174  0.4767 -0.5520 -1.1483
17575TIP3   OH274215   1.060   6.568  15.374  0.2182  0.7379 -0.2644
17575TIP3    H174216   0.992   6.570  15.307  0.0364  1.3625 -0.0655
17575TIP3    H274217   1.136   6.529  15.330  0.1945  1.4278 -0.9201
17576TIP3   OH274218   0.171   0.342   1.932  0.2078 -0.0793  0.0348
17576TIP3    H174219   0.191   0.405   1.863  0.2477  0.5934  0.6431
17576TIP3    H274220   0.181   0.257   1.891 -1.4623  0.3260 -1.2683
17577TIP3   OH274221   4.689   1.671   1.565 -0.0856 -0.1772  0.0141
17577TIP3    H174222   4.661   1.686   1.475  2.0277  2.8797 -0.2145
17577TIP3    H274223   4.616   1.623   1.605 -2.2678  0.8473 -2.5642
17578TIP3   OH274224   6.402   4.077   0.245 -0.4087 -0.0759  0.1112
17578TIP3    H174225   6.398   4.021   0.168 -0.4724 -1.3199  0.9962
17578TIP3    H274226   6.339   4.037   0.306 -2.9708  2.8797 -0.4727
17579TIP3   OH274227   0.114   5.098  13.202  0.1496  0.1678  0.6567
17579TIP3    H174228   0.200   5.056  13.208  0.0461  0.0820  1.7806
17579TIP3    H274229   0.078   5.068  13.119  0.3101 -1.5335  1.1706
17580TIP3   OH274230   5.444   4.691  11.524 -0.3851 -0.1155  0.0273
17580TIP3    H174231   5.469   4.682  11.432 -1.2788 -0.0285 -0.2357
17580TIP3    H274232   5.453   4.784  11.543 -0.0039 -0.1639  0.0866
17581TIP3   OH274233   4.315   4.073   1.287 -0.2317  0.1264  0.6158
17581TIP3    H174234   4.370   3.995   1.294  0.7892  0.8728  1.0409
17581TIP3    H274235   4.311   4.108   1.377 -1.0274  0.3180  0.5054
17582TIP3   OH274236   2.707   2.732  11.900 -0.1769 -0.2124  0.0162
17582TIP3    H174237   2.670   2.806  11.853  0.8622 -0.3806 -1.0712
17582TIP3    H274238   2.669   2.655  11.858 -2.3769 -0.3306  2.0534
17583TIP3   OH274239   3.505   1.116  14.048 -0.3201 -0.0520 -0.3725
17583TIP3    H174240   3.410   1.115  14.062 -0.2110  0.4532  0.4494
17583TIP3    H274241   3.537   1.039  14.094 -0.1171  0.8459  1.0050
17584TIP3   OH274242   2.822   0.594   5.000  0.4908  0.3551  0.1859
17584TIP3    H174243   2.845   0.518   5.053 -0.1502  0.8898  1.2548
17584TIP3    H274244   2.770   0.559   4.928 -1.4330 -0.0214  1.7213
17585TIP3   OH274245   2.228   0.168   2.581  0.4618  0.3131 -0.3790
17585TIP3    H174246   2.298   0.191   2.642  1.0837  1.0086 -1.3335
17585TIP3    H274247   2.149   0.205   2.621  0.7655  0.2593  0.2841
17586TIP3   OH274248   1.220   0.082   4.928 -0.1654  0.2545 -0.3154
17586TIP3    H174249   1.286   0.145   4.899 -0.9190  1.4248  0.4245
17586TIP3    H274250   1.142   0.104   4.877 -0.0507 -0.9543 -1.0095
17587TIP3   OH274251   5.115   1.073   2.904 -0.6435  0.1656  0.4083
17587TIP3    H174252   5.081   1.162   2.893  0.4244  0.4591 -0.5735
17587TIP3    H274253   5.068   1.021   2.839  0.7911  0.5857 -0.9985
17588TIP3   OH274254   3.269   6.640  10.930 -0.0735 -0.3989  0.3036
17588TIP3    H174255   3.183   6.612  10.962 -0.1312 -0.9407 -0.3099
17588TIP3    H274256   3.276   6.599  10.844  0.2444  0.7323 -0.2079
17589TIP3   OH274257   0.192   5.503  14.024 -0.8946 -0.0736  0.1336
17589TIP3    H174258   0.260   5.541  13.968 -0.4566 -1.1586 -0.0769
17589TIP3    H274259   0.118   5.488  13.966 -0.2013 -1.8444 -0.3257
17590TIP3   OH274260   1.300   6.566   4.871 -0.0049  0.6313  0.4426
17590TIP3    H174261   1.376   6.582   4.928  0.4054  1.6483 -0.3827
17590TIP3    H274262   1.254   6.493   4.913  0.9210  0.6163  1.4568
17591TIP3   OH274263   1.892   4.781   6.756 -0.5758  0.0570  0.1662
17591TIP3    H174264   1.834   4.799   6.682 -1.5753  0.0407  0.9452
17591TIP3    H274265   1.902   4.865   6.800  1.2036  0.3908 -0.8158
17592TIP3   OH274266   1.228   2.989  14.831 -0.5977 -0.8336  0.1060
17592TIP3    H174267   1.151   3.004  14.775  0.0873  0.7984 -0.4413
17592TIP3    H274268   1.233   2.894  14.840 -1.0193 -1.1259 -2.2388
17593TIP3   OH274269   4.995   1.296  14.644 -0.0174  0.5645  0.1809
17593TIP3    H174270   4.980   1.388  14.661 -1.2530  0.2869  0.6066
17593TIP3    H274271   5.049   1.267  14.718  2.3896  1.4749 -1.1733
17594TIP3   OH274272   6.807   2.720  16.947  0.5022 -0.0490  0.1912
17594TIP3    H174273   6.834   2.798  16.995  1.5927  0.0351 -0.5366
17594TIP3    H274274   6.725   2.745  16.904  0.7249  0.6212  0.1539
17595TIP3   OH274275   0.020   4.007  14.699  0.7975 -0.2198 -0.0298
17595TIP3    H174276   0.052   4.096  14.685 -0.4782  0.1151 -0.8784
17595TIP3    H274277   0.094   3.961  14.738  1.9001  0.8655 -0.7969
17596TIP3   OH274278   5.006   3.461  14.037 -0.6094 -0.0170 -0.0232
17596TIP3    H174279   5.013   3.553  14.062 -0.7761 -0.0970  0.3141
17596TIP3    H274280   4.913   3.442  14.042 -0.6054 -0.1256 -0.3737
17597TIP3   OH274281   5.779   1.645   0.085 -0.5275 -0.6243  0.0737
17597TIP3    H174282   5.812   1.645  -0.005 -0.2114  1.1525  0.1766
17597TIP3    H274283   5.689   1.675   0.077  0.1526  1.6068  0.5567
17598TIP3   OH274284   2.128   0.677   3.567 -0.5556 -0.1492  0.6162
17598TIP3    H174285   2.058   0.740   3.583  0.3371  0.7797  0.8658
17598TIP3    H274286   2.192   0.693   3.636  1.0327  0.6296 -0.9933
17599TIP3   OH274287   3.824   0.974   6.048 -0.3691 -0.3228 -0.5683
17599TIP3    H174288   3.855   0.925   6.125  0.3951  0.9738 -0.0332
17599TIP3    H274289   3.767   1.042   6.085  1.9740  1.8808 -0.8940
17600TIP3   OH274290   0.778   0.130   6.280  0.3911  0.0938  0.1866
17600TIP3    H174291   0.775   0.179   6.198 -1.6052  0.4866  0.4768
17600TIP3    H274292   0.866   0.148   6.315 -0.1154  3.0942  0.0520
17601TIP3   OH274293   0.497   5.968  16.162  0.4498  0.3276 -0.0459
17601TIP3    H174294   0.538   6.035  16.216 -1.2563 -0.3096  2.1749
17601TIP3    H274295   0.404   5.975  16.183  0.0036 -1.3360 -1.3608
17602TIP3   OH274296   3.315   5.121   1.007  0.3907 -0.1761  0.3148
17602TIP3    H174297   3.346   5.094   0.921 -0.9201 -2.1668  0.4272
17602TIP3    H274298   3.244   5.183   0.989  1.6393  1.1923  0.0154
17603TIP3   OH274299   2.949   4.273  14.089 -0.4919 -0.1503  0.7678
17603TIP3    H174300   2.958   4.359  14.132 -2.2639 -0.4508  1.8317
17603TIP3    H274301   3.011   4.217  14.135 -0.2108  0.2712  0.9067
17604TIP3   OH274302   4.363   5.771  14.197 -0.3411  0.7216  0.0304
17604TIP3    H174303   4.396   5.858  14.220  1.7405 -0.4160  1.5030
17604TIP3    H274304   4.285   5.759  14.252  0.4422  0.9240  1.2033
17605TIP3   OH274305   2.996   3.997   1.113 -0.4431 -0.0173  0.0400
17605TIP3    H174306   3.031   3.964   1.030  1.3611 -0.3449  0.8863
17605TIP3    H274307   2.901   3.995   1.103 -0.2450 -0.7386 -1.7484
17606TIP3   OH274308   6.355   4.421  11.825 -0.5030  0.1541 -0.1181
17606TIP3    H174309   6.391   4.398  11.739  0.1401 -0.9728  0.4353
17606TIP3    H274310   6.385   4.510  11.841  1.1642 -0.3827 -0.1513
17607TIP3   OH274311   1.403   4.737  13.307  0.0076 -0.2542 -0.5576
17607TIP3    H174312   1.493   4.717  13.280 -0.0481 -0.9263 -0.2554
17607TIP3    H274313   1.382   4.669  13.371  0.2871  1.5566  1.4983
17608TIP3   OH274314   1.581   2.978   4.363  0.1505  0.0328 -0.0510
17608TIP3    H174315   1.605   2.929   4.441  1.0447  0.3295 -0.1304
17608TIP3    H274316   1.654   3.038   4.349 -0.6777  1.0118 -0.2653
17609TIP3   OH274317   0.844   4.371  13.998 -0.3466  0.2249  0.2530
17609TIP3    H174318   0.792   4.445  14.029 -0.7027  0.6757 -1.3804
17609TIP3    H274319   0.926   4.409  13.968 -0.2118 -0.1351  0.1583
17610TIP3   OH274320   2.161   6.689   3.489 -0.0941 -0.1734 -0.5973
17610TIP3    H174321   2.068   6.691   3.515 -0.1051 -1.3197 -0.5200
17610TIP3    H274322   2.176   6.598   3.463  0.8943  0.1232 -1.0574
17611TIP3   OH274323   0.824   4.957  13.105 -0.2451  0.4012 -0.2549
17611TIP3    H174324   0.746   4.920  13.064  0.3773  1.0408 -2.0362
17611TIP3    H274325   0.893   4.946  13.041  0.8547  1.0084  0.7999
17612TIP3   OH274326   5.941   1.454   3.474 -0.5759  0.2729  0.3008
17612TIP3    H174327   5.916   1.505   3.551 -1.3769 -0.3579  0.4633
17612TIP3    H274328   5.982   1.375   3.509 -2.5237 -0.8384  0.1306
17613TIP3   OH274329   3.429   1.836  12.068 -0.1664 -0.5542 -0.0104
17613TIP3    H174330   3.445   1.872  11.981 -0.6243  0.6536  0.4042
17613TIP3    H274331   3.362   1.892  12.106  1.0463 -0.2074  1.6780
17614TIP3   OH274332   4.342   6.409   5.891 -0.4279 -0.3396  0.2255
17614TIP3    H174333   4.285   6.464   5.945 -0.5322  2.2592 -2.3859
17614TIP3    H274334   4.290   6.390   5.813  1.3501 -0.1128 -1.0344
17615TIP3   OH274335   3.468   4.056   3.356 -0.0872 -0.7356  0.0019
17615TIP3    H174336   3.520   4.023   3.430  0.3266  0.0809  0.0805
17615TIP3    H274337   3.397   4.105   3.398  0.9738  0.9722 -0.1512
17616TIP3   OH274338   6.773   1.075   1.368 -0.3829 -0.3064 -0.2114
17616TIP3    H174339   6.736   1.157   1.334  0.9684  0.2594 -0.3267
17616TIP3    H274340   6.711   1.048   1.435 -1.6025  0.0541 -1.1669
17617TIP3   OH274341   4.833   6.613   1.567  0.1958 -0.0169  0.1195
17617TIP3    H174342   4.928   6.606   1.557  0.2886  0.5139  0.5701
17617TIP3    H274343   4.806   6.526   1.596  0.0626 -1.2437 -3.4537
17618TIP3   OH274344   4.108   3.226   5.856 -0.3201  0.3944  0.1991
17618TIP3    H174345   4.097   3.187   5.943 -0.8457  0.2074  0.0495
17618TIP3    H274346   4.030   3.278   5.843 -1.0402 -0.9176 -0.8502
17619TIP3   OH274347   2.265   3.888  15.135  0.6689  0.2886 -0.0315
17619TIP3    H174348   2.282   3.905  15.042 -2.4317 -0.3415 -0.8000
17619TIP3    H274349   2.251   3.975  15.173  0.3570  0.4620 -0.5325
17620TIP3   OH274350   4.394   6.134   5.513  0.3620 -0.4183  0.5839
17620TIP3    H174351   4.316   6.092   5.477 -0.0742  0.6135  0.2985
17620TIP3    H274352   4.422   6.195   5.445  2.4635 -2.0408 -0.0492
17621TIP3   OH274353   4.717   6.091  14.287 -0.1104 -0.5807  0.2282
17621TIP3    H174354   4.682   6.070  14.201  0.8851  0.5087 -0.4546
17621TIP3    H274355   4.811   6.096  14.275  0.0128 -0.1391  1.3092
17622TIP3   OH274356   4.822   4.722  16.720 -1.0070  0.2212 -0.4024
17622TIP3    H174357   4.825   4.646  16.778 -1.7570  0.0288 -0.6080
17622TIP3    H274358   4.871   4.790  16.766  0.0849 -0.5399 -0.4357
17623TIP3   OH274359   6.159   0.072  13.210 -0.1181 -0.1509 -0.2206
17623TIP3    H174360   6.170  -0.011  13.164 -2.4381 -1.8580  2.1658
17623TIP3    H274361   6.065   0.076  13.230  0.2443  2.2355  1.1915
17624TIP3   OH274362   0.672   2.963   5.204  0.8053 -0.0824 -0.1019
17624TIP3    H174363   0.751   3.011   5.228 -0.1294  1.3014  0.2545
17624TIP3    H274364   0.606   2.992   5.267 -0.7271  0.9153 -2.1117
17625TIP3   OH274365   6.372   0.077  12.659  0.4295  0.9263  0.4498
17625TIP3    H174366   6.324   0.002  12.693  0.0287  1.0469  0.1540
17625TIP3    H274367   6.424   0.041  12.586 -0.5950  1.1462 -0.3922
17626TIP3   OH274368   4.015   0.474  11.476  0.0333  0.2401  0.1401
17626TIP3    H174369   4.081   0.535  11.443  0.6206 -0.6306 -0.3277
17626TIP3    H274370   4.054   0.439  11.556 -0.4348  0.7018  0.5725
17627TIP3   OH274371   1.741   0.780   1.135  0.8859  0.0311  0.2806
17627TIP3    H174372   1.744   0.868   1.097  2.9966  0.1722  0.7467
17627TIP3    H274373   1.655   0.746   1.109  0.5762  1.7361 -1.0017
17628TIP3   OH274374   0.284   2.944  12.817  0.7934 -0.8860 -0.7019
17628TIP3    H174375   0.249   2.945  12.906 -1.3509  1.3565 -1.5016
17628TIP3    H274376   0.232   2.877  12.772 -0.1869  0.0712 -1.0148
17629TIP3   OH274377   4.339   2.626   3.334  0.7855 -0.5328  0.2245
17629TIP3    H174378   4.274   2.691   3.306  0.8377 -1.2249 -1.5456
17629TIP3    H274379   4.421   2.676   3.342  0.8387 -0.3771 -1.1930
17630TIP3   OH274380   4.262   4.559   3.371  0.1460 -0.0697  0.4243
17630TIP3    H174381   4.187   4.617   3.359  1.8911  2.2995  0.5453
17630TIP3    H274382   4.291   4.539   3.282  0.9744  1.1911  0.4036
17631TIP3   OH274383   0.123   3.541   4.291 -0.2572 -0.7955 -0.4886
17631TIP3    H174384   0.030   3.529   4.312 -0.4401  0.4612 -0.4984
17631TIP3    H274385   0.126   3.545   4.196 -0.3045 -0.0423 -0.4609
17632TIP3   OH274386   4.308   3.101   4.737 -0.0749  0.0321 -0.5262
17632TIP3    H174387   4.361   3.165   4.689 -1.6764  0.4954 -1.7625
17632TIP3    H274388   4.342   3.104   4.826  2.4102 -0.2143 -1.4310
17633TIP3   OH274389   5.145   0.302  14.573  0.5293 -0.5434  0.3675
17633TIP3    H174390   5.227   0.322  14.527  0.9699 -2.7006  0.1653
17633TIP3    H274391   5.167   0.308  14.666  0.3812  0.8933  0.3249
17634TIP3   OH274392   2.402   2.459  15.806  0.0554 -0.1452 -0.1854
17634TIP3    H174393   2.324   2.496  15.765  0.1582  1.0767  0.7004
17634TIP3    H274394   2.440   2.402  15.738  0.0750  1.6339 -1.6950
17635TIP3   OH274395   6.446   6.777  11.348  0.3850 -0.3882  0.0920
17635TIP3    H174396   6.391   6.724  11.406 -1.2729  0.4142 -0.7185
17635TIP3    H274397   6.519   6.805  11.403 -0.8790 -0.0935  1.6360
17636TIP3   OH274398   1.696   1.006   4.119 -0.2129 -0.0409  0.2598
17636TIP3    H174399   1.708   1.099   4.102 -1.3404  0.4292  1.9487
17636TIP3    H274400   1.620   0.982   4.065 -1.0551  0.4383  1.2267
17637TIP3   OH274401   6.146   3.385  16.672 -0.4859  0.2466  0.2425
17637TIP3    H174402   6.153   3.296  16.707 -0.7513 -0.8947 -2.4689
17637TIP3    H274403   6.056   3.391  16.641 -1.1457  2.2940  2.4926
17638TIP3   OH274404   3.007   2.559   2.084  0.3799 -0.0177  0.2914
17638TIP3    H174405   3.065   2.484   2.073 -0.0110 -0.2781 -0.0119
17638TIP3    H274406   2.928   2.523   2.126  0.9323  0.5545  1.8886
17639TIP3   OH274407   3.585   5.375  16.870 -0.1129  0.5941  0.1150
17639TIP3    H174408   3.677   5.401  16.875 -0.2622  0.8977  1.6586
17639TIP3    H274409   3.584   5.303  16.807  1.5002 -0.7365  1.5328
17640TIP3   OH274410   0.310   0.522   2.858  0.4846 -0.1379  0.0031
17640TIP3    H174411   0.289   0.580   2.931  0.4748 -0.4522  0.2534
17640TIP3    H274412   0.280   0.436   2.886  1.7228 -0.5183  0.2009
17641TIP3   OH274413   5.299   1.875  14.439  0.5668  0.0899 -0.7575
17641TIP3    H174414   5.224   1.887  14.497  1.0565 -0.7918  0.0734
17641TIP3    H274415   5.330   1.964  14.421  0.5626  0.3701  0.5508
17642TIP3   OH274416   4.791   5.570   2.793  0.0350  0.5726 -0.7456
17642TIP3    H174417   4.833   5.593   2.710 -0.0735  2.0047 -0.4266
17642TIP3    H274418   4.760   5.654   2.828 -0.1645 -0.0465  0.6134
17643TIP3   OH274419   5.794   2.836  14.281  0.0499  0.4057 -0.2489
17643TIP3    H174420   5.884   2.836  14.250 -0.4528  2.5134 -1.8105
17643TIP3    H274421   5.787   2.917  14.332 -1.2495  0.8533 -1.1096
17644TIP3   OH274422   1.353   5.964  15.092  0.0890  0.3184  0.0342
17644TIP3    H174423   1.426   6.002  15.142 -1.3070  1.1020  1.5326
17644TIP3    H274424   1.314   6.039  15.047  1.2012 -0.3508 -2.1069
17645TIP3   OH274425   6.015   3.168   5.859  0.4606 -0.3471 -0.1016
17645TIP3    H174426   5.971   3.197   5.939 -0.4247 -0.7564 -0.4355
17645TIP3    H274427   5.974   3.219   5.789  0.4256 -0.8110 -0.4274
17646TIP3   OH274428   6.111   2.631   4.662 -0.7267 -0.2232 -0.3253
17646TIP3    H174429   6.175   2.582   4.610 -0.6067 -1.0249  0.5642
17646TIP3    H274430   6.121   2.721   4.633  1.4763 -0.1759  0.4590
17647TIP3   OH274431   1.603   4.562   5.963  0.0967 -0.0619  0.1712
17647TIP3    H174432   1.553   4.533   5.887 -0.3178 -1.5732  0.9866
17647TIP3    H274433   1.540   4.558   6.036  0.6091  0.9008  0.6770
17648TIP3   OH274434   4.698   2.835   3.947  0.2026 -0.4210  0.2036
17648TIP3    H174435   4.648   2.753   3.947  1.2637 -1.0854 -0.1210
17648TIP3    H274436   4.712   2.854   4.040  0.6627 -1.0591  0.2695
17649TIP3   OH274437   1.219   4.829   2.214 -0.3759 -0.5381 -0.0271
17649TIP3    H174438   1.301   4.800   2.173  1.1215  0.6342  2.0399
17649TIP3    H274439   1.247   4.873   2.294 -3.1397 -1.6720  1.6195
17650TIP3   OH274440   4.553   2.763   2.294 -0.3018 -0.0173  0.5511
17650TIP3    H174441   4.612   2.769   2.370  0.0268 -1.6255  0.4305
17650TIP3    H274442   4.471   2.800   2.326  0.5234  1.4915  0.9722
17651TIP3   OH274443   3.861   6.473  11.370  0.0714 -0.4516  0.3856
17651TIP3    H174444   3.934   6.535  11.378  0.4056 -0.8710  0.6418
17651TIP3    H274445   3.879   6.425  11.290  1.0244 -1.7539  1.3511
17652TIP3   OH274446   1.438   5.246   3.261  0.1607 -0.2113  0.5458
17652TIP3    H174447   1.476   5.218   3.178 -0.4489 -1.0495  0.5388
17652TIP3    H274448   1.389   5.169   3.291  0.6525 -0.0122  1.8408
17653TIP3   OH274449   0.616   6.179   1.675  0.2274  0.2404  0.3485
17653TIP3    H174450   0.577   6.261   1.647  0.2385 -0.6071 -2.3213
17653TIP3    H274451   0.543   6.127   1.707 -0.4192 -0.1315 -1.6290
17654TIP3   OH274452   1.867   1.101  15.212 -0.1052  0.1895 -0.2558
17654TIP3    H174453   1.937   1.147  15.166 -1.1234  0.0010 -2.0454
17654TIP3    H274454   1.912   1.035  15.264  0.9464 -1.9875 -3.7287
17655TIP3   OH274455   5.590   2.051   1.097  0.6876  0.1574 -0.4864
17655TIP3    H174456   5.629   2.136   1.081  2.1123 -0.9985 -3.5153
17655TIP3    H274457   5.660   1.998   1.135 -0.0228  0.1353  0.8336
17656TIP3   OH274458   2.069   3.914  13.565 -0.5534 -0.3289  0.7610
17656TIP3    H174459   1.975   3.931  13.573 -0.6102 -0.0099 -0.4465
17656TIP3    H274460   2.109   4.001  13.566 -0.4707 -0.3247 -0.9870
17657TIP3   OH274461   1.958   1.969  14.827 -0.4750  0.0319  0.3358
17657TIP3    H174462   1.984   1.917  14.903  0.4997 -1.5842 -1.0810
17657TIP3    H274463   2.020   2.041  14.824 -0.4925  0.0753  1.0536
17658TIP3   OH274464   0.704   1.382  13.488  0.5549  0.0533  0.1366
17658TIP3    H174465   0.795   1.394  13.459  0.0370  1.7582 -0.8725
17658TIP3    H274466   0.693   1.446  13.558 -0.1901  0.6166 -0.4909
17659TIP3   OH274467   6.496   6.236   1.901 -1.0240 -0.3004 -0.1636
17659TIP3    H174468   6.546   6.287   1.838 -2.8823 -0.1958 -1.6276
17659TIP3    H274469   6.410   6.279   1.904 -1.1452 -0.6243  2.0498
17660TIP3   OH274470   4.575   6.132   5.725 -0.6900 -0.2952 -0.1728
17660TIP3    H174471   4.533   6.127   5.640  0.6810 -0.3500 -0.8627
17660TIP3    H274472   4.506   6.162   5.785 -1.5333  0.1946 -1.3771
17661TIP3   OH274473   2.353   3.943   5.471 -0.2488  0.4687 -0.0133
17661TIP3    H174474   2.279   3.884   5.485  0.8494 -0.9562 -0.0104
17661TIP3    H274475   2.329   3.994   5.394 -0.2986 -1.5737 -1.4025
17662TIP3   OH274476   1.743   5.044  10.816  0.1110  0.3683  0.8163
17662TIP3    H174477   1.824   4.997  10.798 -0.4214 -0.5636  0.8464
17662TIP3    H274478   1.760   5.134  10.786 -0.2312 -0.7408 -2.9713
17663TIP3   OH274479   4.851   6.389  14.540  0.0361  0.0081  0.5570
17663TIP3    H174480   4.820   6.474  14.570 -0.0867  0.0042  0.4419
17663TIP3    H274481   4.946   6.391  14.556  0.4214  1.0915 -1.6392
17664TIP3   OH274482   3.068   4.085  12.398  0.1377  0.1068  0.5307
17664TIP3    H174483   3.116   4.125  12.325 -0.2850 -0.3491 -0.0011
17664TIP3    H274484   3.015   4.017  12.357  0.7183 -0.8846  1.4066
17665TIP3   OH274485   1.554   2.887  11.334  0.0535  0.1056 -0.2436
17665TIP3    H174486   1.528   2.962  11.387 -1.5978 -0.0282 -0.8300
17665TIP3    H274487   1.604   2.831  11.393  0.3538  1.1388  0.4885
17666TIP3   OH274488   0.919   1.009   6.209  0.1825  0.0811 -0.5919
17666TIP3    H174489   0.882   1.096   6.221  0.0033 -0.1056  0.2321
17666TIP3    H274490   0.931   1.001   6.114 -2.9600 -0.2977 -1.0090
17667TIP3   OH274491   4.176   0.611  16.233  0.2732  0.0683 -0.2994
17667TIP3    H174492   4.185   0.590  16.326  1.5421  0.7019 -0.2715
17667TIP3    H274493   4.263   0.597  16.197 -0.2511 -0.3198 -1.4265
17668TIP3   OH274494   4.238   3.807  11.437  0.8175 -0.1982  1.0130
17668TIP3    H174495   4.332   3.796  11.432  1.1656  2.7324  0.2374
17668TIP3    H274496   4.202   3.745  11.374  2.3376 -0.0691  0.0117
17669TIP3   OH274497   2.181   6.184   0.939  0.1682  0.1641  0.8031
17669TIP3    H174498   2.205   6.112   0.997  3.1598  0.2320 -0.2788
17669TIP3    H274499   2.263   6.211   0.899 -1.6102  1.0744 -2.3993
17670TIP3   OH274500   4.651   1.738  11.668  0.3033  0.2473 -0.0200
17670TIP3    H174501   4.668   1.645  11.684 -0.1535  0.3763  1.2591
17670TIP3    H274502   4.556   1.746  11.674  0.1820  0.4511 -2.0775
17671TIP3   OH274503   4.656   0.286   5.657  0.2646  0.4855  0.0454
17671TIP3    H174504   4.695   0.274   5.743 -0.7072  3.8769  1.0387
17671TIP3    H274505   4.570   0.245   5.664  0.4226  0.2303  0.5067
17672TIP3   OH274506   5.763   4.079   0.834  0.3711  0.2378  0.0810
17672TIP3    H174507   5.749   4.019   0.761 -0.1416 -0.3292  0.6368
17672TIP3    H274508   5.715   4.158   0.810  0.5959  0.2313 -0.4053
17673TIP3   OH274509   4.393   2.350  17.170 -0.1297  0.8389  0.7109
17673TIP3    H174510   4.385   2.426  17.112 -1.8611 -0.3324 -0.6594
17673TIP3    H274511   4.362   2.276  17.117 -0.9360 -0.4006  2.8413
17674TIP3   OH274512   4.159   1.126   6.168 -0.3171  0.1768  0.2690
17674TIP3    H174513   4.123   1.119   6.080  0.1102  0.2292  0.0881
17674TIP3    H274514   4.253   1.140   6.155 -0.2708  0.3326  0.7288
17675TIP3   OH274515   2.521   2.001   2.806  0.3940  0.0039 -0.1650
17675TIP3    H174516   2.602   1.953   2.824  0.3648 -0.4992 -1.3227
17675TIP3    H274517   2.454   1.933   2.800  0.1922  0.2759 -0.9427
17676TIP3   OH274518   5.788   6.611   2.634 -0.1002 -0.0626 -0.3819
17676TIP3    H174519   5.828   6.541   2.583  2.7292  1.4807 -0.3817
17676TIP3    H274520   5.827   6.692   2.600 -0.2266  1.2017  2.3365
17677TIP3   OH274521   2.130   5.133  11.342 -0.1704  0.4690 -0.1505
17677TIP3    H174522   2.138   5.211  11.287 -0.0482  1.0910  0.7258
17677TIP3    H274523   2.207   5.137  11.400  0.5103 -0.9674 -0.9167
17678TIP3   OH274524   6.067   2.817  12.257  0.1438 -0.1688 -0.1186
17678TIP3    H174525   6.082   2.807  12.351  0.6768 -3.3084 -0.4861
17678TIP3    H274526   6.022   2.736  12.231 -2.5424  1.8515 -2.0875
17679TIP3   OH274527   4.431   3.610  12.651 -0.6121 -0.1578 -0.7599
17679TIP3    H174528   4.362   3.545  12.666  0.1846 -0.2627  2.8119
17679TIP3    H274529   4.393   3.692  12.681  1.0130 -0.3510  2.0130
17680TIP3   OH274530   4.660   1.211   2.366  0.4172 -0.4403 -0.2864
17680TIP3    H174531   4.650   1.209   2.271  1.3556 -1.4675 -0.3667
17680TIP3    H274532   4.754   1.208   2.380  0.1998 -2.8390  0.7393
17681TIP3   OH274533   1.053   5.495   5.261 -0.4193  0.2935  0.6504
17681TIP3    H174534   1.086   5.423   5.313 -2.1449 -0.0875  1.2586
17681TIP3    H274535   1.116   5.504   5.189  1.2097 -0.0912  1.9963
17682TIP3   OH274536   2.913   3.889   5.203  0.4148 -0.6986  0.5049
17682TIP3    H174537   2.859   3.847   5.135 -0.8346  0.0503  1.0140
17682TIP3    H274538   2.871   3.863   5.286  1.8598 -1.5118  1.0001
17683TIP3   OH274539   0.649   1.831  16.319  0.6291 -0.0689  0.0381
17683TIP3    H174540   0.638   1.736  16.327 -1.8487  0.1028 -1.0027
17683TIP3    H274541   0.711   1.842  16.246 -0.7689 -0.8718 -1.3109
17684TIP3   OH274542   4.744   5.932   2.885  0.1461 -0.1376 -0.2618
17684TIP3    H174543   4.661   5.930   2.931 -0.3581  0.2758 -1.1469
17684TIP3    H274544   4.732   5.996   2.815  1.7333  1.1819  0.6059
17685TIP3   OH274545   5.176   4.317   2.644 -0.3477 -0.1624  0.1420
17685TIP3    H174546   5.213   4.274   2.722 -1.6936  0.1759  0.9891
17685TIP3    H274547   5.165   4.409   2.670  1.8588  0.5945 -1.4236
17686TIP3   OH274548   1.227   2.886   4.930 -0.6562 -0.4148 -0.2759
17686TIP3    H174549   1.315   2.921   4.919 -0.4575 -0.4207  1.1673
17686TIP3    H274550   1.170   2.947   4.882  0.0651 -0.0317 -0.6408
17687TIP3   OH274551   2.579   0.162  14.751 -0.1707  0.6212 -0.1745
17687TIP3    H174552   2.521   0.090  14.728  0.7821 -0.6267  1.2120
17687TIP3    H274553   2.667   0.123  14.748  0.3758  1.8081  0.2997
17688TIP3   OH274554   4.127   6.152   5.044 -0.3657  0.0067 -0.0393
17688TIP3    H174555   4.042   6.136   5.004 -0.8366 -0.7241  1.2017
17688TIP3    H274556   4.112   6.227   5.102 -0.4307 -0.7404  0.9257
17689TIP3   OH274557   5.515   0.375   2.448 -0.2328 -0.2099  0.3944
17689TIP3    H174558   5.534   0.282   2.436  1.2220  0.3942 -2.3854
17689TIP3    H274559   5.595   0.412   2.485 -0.0587  0.2712 -0.4337
17690TIP3   OH274560   5.913   6.075   4.201 -0.6190  0.2174  0.2326
17690TIP3    H174561   5.856   6.087   4.277 -0.6770 -4.2197  1.0421
17690TIP3    H274562   6.002   6.077   4.238 -0.5983 -0.4932  0.2406
17691TIP3   OH274563   1.881   5.773   0.150  0.7258  0.4403  0.1153
17691TIP3    H174564   1.916   5.755   0.237 -0.1249  0.7971  0.5345
17691TIP3    H274565   1.791   5.802   0.166 -0.1664 -1.5967 -1.0296
17692TIP3   OH274566   4.943   2.773  15.814  0.3218  0.7430 -0.2876
17692TIP3    H174567   4.996   2.827  15.873  1.0528  0.0801 -0.3306
17692TIP3    H274568   4.868   2.828  15.792  1.7507  2.2559 -1.4489
17693TIP3   OH274569   0.782   0.188   0.242  0.3592  0.0010  0.6389
17693TIP3    H174570   0.735   0.122   0.193  0.9454 -0.3723  0.5730
17693TIP3    H274571   0.769   0.164   0.334  2.4266 -1.5274  0.5739
17694TIP3   OH274572   6.634   2.308  15.352 -0.1973  0.1369 -0.6717
17694TIP3    H174573   6.650   2.401  15.343 -0.2584  0.2424  0.3319
17694TIP3    H274574   6.539   2.301  15.364 -0.1585 -0.0411 -0.4727
17695TIP3   OH274575   2.739   1.481   1.970  0.2610  0.3471 -0.2364
17695TIP3    H174576   2.812   1.542   1.979 -0.3903  1.0827  0.1783
17695TIP3    H274577   2.707   1.468   2.059  0.3697 -0.5740 -0.3293
17696TIP3   OH274578   5.929   4.531  11.406  0.4374  0.1920 -0.2974
17696TIP3    H174579   5.937   4.551  11.313 -0.0793  1.0640 -0.1501
17696TIP3    H274580   5.836   4.514  11.419  0.5181  0.0180  0.0526
17697TIP3   OH274581   1.009   1.190  12.266 -0.2301  0.2268 -0.2557
17697TIP3    H174582   0.989   1.102  12.232  1.9875 -0.6362  0.5770
17697TIP3    H274583   1.055   1.234  12.195  0.4880 -0.0141  0.0596
17698TIP3   OH274584   6.222   2.330  12.141 -0.5134  0.2986  0.3480
17698TIP3    H174585   6.266   2.247  12.158 -1.1034  0.2225  1.5579
17698TIP3    H274586   6.269   2.394  12.195  0.6781  0.9877 -1.4551
17699TIP3   OH274587   0.678   5.860   5.210 -0.0281  0.1120  0.5717
17699TIP3    H174588   0.728   5.902   5.140  1.0965  0.3268  1.4881
17699TIP3    H274589   0.640   5.782   5.169  0.3039  0.4273 -0.3612
17700TIP3   OH274590   4.693   2.288  17.244  0.0451 -0.3720 -0.4001
17700TIP3    H174591   4.602   2.305  17.222 -0.3426 -0.6354  0.9545
17700TIP3    H274592   4.737   2.373  17.232 -0.3650 -0.2541 -1.0842
17701TIP3   OH274593   6.138   3.098   5.433  0.1697 -0.3196 -0.1718
17701TIP3    H174594   6.224   3.069   5.464  1.4602  0.4397 -2.8526
17701TIP3    H274595   6.155   3.184   5.394 -1.9323  0.0819 -0.2611
17702TIP3   OH274596   1.423   3.083   3.076 -0.0277  0.2943  0.0192
17702TIP3    H174597   1.499   3.083   3.018 -1.9554 -1.4886 -2.6080
17702TIP3    H274598   1.358   3.136   3.031 -1.2481 -0.3629  0.9614
17703TIP3   OH274599   1.629   5.415  11.174 -0.4273 -0.5272  0.4855
17703TIP3    H174600   1.587   5.332  11.149  0.2766 -1.1130  1.2395
17703TIP3    H274601   1.645   5.406  11.268 -1.9634  1.1762  0.9470
17704TIP3   OH274602   5.875   4.863  12.286 -0.5565 -0.4464 -0.0242
17704TIP3    H174603   5.926   4.800  12.236 -1.0508  0.4920 -1.7500
17704TIP3    H274604   5.939   4.906  12.343  0.6074  0.6428 -2.0864
17705TIP3   OH274605   4.263   0.115  14.203 -0.2113  0.6747 -0.3858
17705TIP3    H174606   4.336   0.093  14.260  0.1985  1.5579 -0.5532
17705TIP3    H274607   4.296   0.100  14.114 -1.5909 -2.9003 -0.3535
17706TIP3   OH274608   2.100   5.269  12.887 -0.1807 -0.5003 -0.0421
17706TIP3    H174609   2.008   5.274  12.913 -0.0261  0.0484  0.3914
17706TIP3    H274610   2.115   5.347  12.834 -0.3234 -1.2835 -1.2602
17707TIP3   OH274611   4.827   2.946  16.223  0.4634 -0.3834  0.3487
17707TIP3    H174612   4.754   2.889  16.199 -0.4576  1.1997 -0.7001
17707TIP3    H274613   4.854   2.915  16.310 -0.6539 -1.7583  0.2173
17708TIP3   OH274614   6.247   1.353  16.952 -0.0862  0.3768  0.0927
17708TIP3    H174615   6.221   1.380  17.040 -0.5014 -0.2036  0.1573
17708TIP3    H274616   6.321   1.409  16.930  1.6072 -1.1105  1.7995
17709TIP3   OH274617   4.803   0.212  15.432 -0.5502 -0.2845  0.3926
17709TIP3    H174618   4.752   0.230  15.353  1.5115  1.2927 -0.5905
17709TIP3    H274619   4.755   0.256  15.502 -0.0031  2.0731 -0.6896
17710TIP3   OH274620   5.069   5.098   5.334  0.3700 -0.1143  0.2715
17710TIP3    H174621   5.021   5.152   5.271 -0.2310 -1.7113 -0.6440
17710TIP3    H274622   5.031   5.121   5.419  0.8247  1.6563  0.0196
17711TIP3   OH274623   1.044   3.817  11.924  0.1965  0.0151 -0.0639
17711TIP3    H174624   1.039   3.897  11.976  1.6708 -1.5658  2.6174
17711TIP3    H274625   1.138   3.795  11.922 -0.2087 -1.7862 -0.5153
17712TIP3   OH274626   1.847   3.341   5.059  0.2696 -0.6710 -0.5182
17712TIP3    H174627   1.864   3.315   4.969  0.2570  0.9448 -0.9956
17712TIP3    H274628   1.854   3.437   5.059 -0.5121 -0.5904  1.0194
17713TIP3   OH274629   2.506   3.258   1.229 -0.3296  0.3805 -0.6074
17713TIP3    H174630   2.453   3.329   1.192 -0.3346 -0.1078 -1.5661
17713TIP3    H274631   2.519   3.198   1.156 -1.0886 -1.0584  0.4114
17714TIP3   OH274632   4.257   1.616   1.953  0.2610  0.1356 -0.0095
17714TIP3    H174633   4.179   1.665   1.980 -0.1695 -0.6152  0.1318
17714TIP3    H274634   4.225   1.557   1.885  1.3602  2.1497 -2.3754
17715TIP3   OH274635   6.139   6.336   6.042 -0.5344  0.4762  0.4623
17715TIP3    H174636   6.164   6.315   6.132 -0.9147 -1.4979  0.1382
17715TIP3    H274637   6.222   6.331   5.993 -0.2694  1.8913  0.7432
17716TIP3   OH274638   6.758   1.641   4.679 -0.1984  0.5480  0.5144
17716TIP3    H174639   6.791   1.721   4.719  1.2782 -0.3284  1.1233
17716TIP3    H274640   6.787   1.646   4.588 -0.3885  0.8590  0.4718
17717TIP3   OH274641   6.314   4.285  14.113 -0.2077  0.2773 -0.3431
17717TIP3    H174642   6.369   4.333  14.175  1.9121 -0.2504 -1.7857
17717TIP3    H274643   6.366   4.280  14.033 -3.3721  2.0187 -2.6485
17718TIP3   OH274644   3.054   4.962   2.368  0.3503 -0.7924 -0.3109
17718TIP3    H174645   3.080   4.942   2.458 -0.0601 -0.7887 -0.1886
17718TIP3    H274646   3.135   4.957   2.317  1.2982  2.8918  0.6890
17719TIP3   OH274647   6.175   3.512   5.489 -0.7096  0.2594 -0.5316
17719TIP3    H174648   6.165   3.443   5.424 -0.8170  0.0914 -0.3363
17719TIP3    H274649   6.252   3.561   5.460 -0.6279  0.0537 -0.6649
17720TIP3   OH274650   3.174   1.287  14.935 -0.3273 -0.8297 -0.3791
17720TIP3    H174651   3.233   1.340  14.990 -1.8813  1.2531 -0.6320
17720TIP3    H274652   3.228   1.215  14.904  2.5077  1.7192 -1.6819
17721TIP3   OH274653   0.829   3.155   0.152  0.0135  0.4144 -0.1138
17721TIP3    H174654   0.848   3.111   0.069 -0.2254  0.7462 -0.3461
17721TIP3    H274655   0.915   3.182   0.184  0.1145  0.2173 -0.2168
17722TIP3   OH274656   3.832   0.693  13.947 -0.5072 -0.1501 -0.0571
17722TIP3    H174657   3.767   0.630  13.977  0.6860 -0.8614  1.1326
17722TIP3    H274658   3.803   0.777  13.983 -0.1825 -0.6555  1.4271
17723TIP3   OH274659   5.913   1.695   2.590 -0.3909 -0.5603 -0.7677
17723TIP3    H174660   5.907   1.783   2.553 -0.4444 -0.6468 -0.9654
17723TIP3    H274661   6.004   1.668   2.573 -0.7334 -1.0579 -1.8834
17724TIP3   OH274662   1.937   1.751  15.596  0.5214  0.4762 -0.0995
17724TIP3    H174663   1.955   1.784  15.684  2.7355  0.3203 -0.4759
17724TIP3    H274664   1.886   1.671  15.610  1.6752 -0.0667  1.0778
17725TIP3   OH274665   0.196   2.792  12.269  0.2227 -0.0668 -0.1443
17725TIP3    H174666   0.182   2.805  12.363 -1.8247  1.1886 -0.6046
17725TIP3    H274667   0.240   2.871  12.240  0.4226 -0.2479 -0.3331
17726TIP3   OH274668   5.222   6.763   4.958 -0.2386  0.1361 -0.6019
17726TIP3    H174669   5.286   6.787   4.890  1.1243 -1.1911  0.1996
17726TIP3    H274670   5.228   6.834   5.022 -1.2013  1.1601 -1.6196
17727TIP3   OH274671   1.533   4.519  10.821  0.1103 -0.0424  0.2289
17727TIP3    H174672   1.445   4.481  10.814 -0.3770  0.8218  1.4346
17727TIP3    H274673   1.567   4.520  10.731 -1.3783  0.2587 -0.3334
17728TIP3   OH274674   0.879   1.885  14.266  0.4512  0.0206  0.3615
17728TIP3    H174675   0.909   1.888  14.175  0.6111  0.1575  0.4192
17728TIP3    H274676   0.870   1.791  14.285 -2.2326  0.0400 -0.6641
17729TIP3   OH274677   0.653   4.334   5.075  0.2270  0.0904 -0.1692
17729TIP3    H174678   0.560   4.317   5.092 -0.1725  1.0573 -1.2768
17729TIP3    H274679   0.678   4.267   5.011  0.8209 -1.3947  1.5944
17730TIP3   OH274680   0.447   5.670  10.655 -0.5962  0.4352 -0.0008
17730TIP3    H174681   0.437   5.576  10.663  1.9829  0.2379  1.4539
17730TIP3    H274682   0.511   5.683  10.585  0.6381  0.9913  1.2017
17731TIP3   OH274683   0.912   6.806  12.577 -0.2317  0.0612  0.0660
17731TIP3    H174684   0.826   6.814  12.617  0.1904  1.2943  0.7595
17731TIP3    H274685   0.946   6.722  12.609 -0.7242  0.0941  0.6829
17732TIP3   OH274686   4.773   4.982   3.654  0.1207 -0.4374 -0.1170
17732TIP3    H174687   4.724   4.901   3.668  1.2097 -1.2272 -0.7786
17732TIP3    H274688   4.854   4.970   3.704 -0.2666  0.7831  0.8369
17733TIP3   OH274689   1.253   5.691   0.949 -0.3490 -0.0138 -0.0118
17733TIP3    H174690   1.198   5.754   0.904 -0.3958 -0.2428 -0.2756
17733TIP3    H274691   1.218   5.688   1.038  0.2188  0.9930  0.2501
17734TIP3   OH274692   6.600   3.980  12.226  0.2060 -0.3079  0.0231
17734TIP3    H174693   6.541   3.907  12.245  0.9117 -0.3231  2.3058
17734TIP3    H274694   6.562   4.054  12.274  1.4217 -0.0623  0.6270
17735TIP3   OH274695   1.674   1.758  16.386  0.0243 -0.1849 -0.3731
17735TIP3    H174696   1.703   1.703  16.312 -0.2342 -2.0591  0.8824
17735TIP3    H274697   1.600   1.711  16.423 -0.2047  1.0306  0.7459
17736TIP3   OH274698   5.636   6.120   2.860 -0.0656 -0.2542 -0.0402
17736TIP3    H174699   5.713   6.176   2.868 -0.3021  0.1582 -0.5914
17736TIP3    H274700   5.582   6.144   2.935 -0.9786  1.5533 -1.2191
17737TIP3   OH274701   0.760   1.369  14.263 -0.0496  0.7918  0.0480
17737TIP3    H174702   0.785   1.448  14.215  0.5995  0.3043 -0.4363
17737TIP3    H274703   0.808   1.299  14.219 -1.8305 -0.0915 -0.5212
17738TIP3   OH274704   2.441   5.520   6.366  0.2917 -0.0313  0.2436
17738TIP3    H174705   2.498   5.556   6.297 -0.7278 -0.5148 -0.8725
17738TIP3    H274706   2.430   5.592   6.428 -0.4775  1.1047 -1.1777
17739TIP3   OH274707   4.293   4.285  14.802 -0.0789 -0.4376 -0.8766
17739TIP3    H174708   4.308   4.192  14.787  0.0237 -1.2016  3.5070
17739TIP3    H274709   4.199   4.296  14.790 -0.1442 -1.1610 -1.0657
17740TIP3   OH274710   1.023   5.185  13.953  0.4381  0.3917 -0.0730
17740TIP3    H174711   1.102   5.239  13.946 -1.2275  2.8375 -0.2870
17740TIP3    H274712   0.961   5.239  14.001 -0.2847 -2.5153  2.4089
17741TIP3   OH274713   4.456   4.893  11.412  0.5129 -0.2288 -0.0234
17741TIP3    H174714   4.387   4.903  11.478 -0.1862  2.2318 -1.0458
17741TIP3    H274715   4.477   4.983  11.387  0.2930 -1.1090 -3.6049
17742TIP3   OH274716   5.646   6.814   3.953  0.1253 -0.3030 -0.0401
17742TIP3    H174717   5.567   6.825   3.900  1.0325 -2.4674 -1.9367
17742TIP3    H274718   5.659   6.719   3.956  3.0711  0.0581 -0.3971
17743TIP3   OH274719   5.301   1.607   2.148 -0.1871  0.0572  0.2058
17743TIP3    H174720   5.327   1.699   2.156 -0.5486  0.1958 -0.1712
17743TIP3    H274721   5.352   1.562   2.215  1.3325  0.2491 -0.7972
17744TIP3   OH274722   5.883   3.896   2.024  0.4302  0.4950 -0.4563
17744TIP3    H174723   5.970   3.874   1.989  0.9728  0.9812  0.5728
17744TIP3    H274724   5.863   3.824   2.084 -0.5244 -0.3667 -1.7743
17745TIP3   OH274725   6.141   2.405   4.113  0.5101 -0.2125  0.4798
17745TIP3    H174726   6.105   2.481   4.066  0.5868  0.0379  0.8241
17745TIP3    H274727   6.082   2.333   4.091  1.5066 -0.4934 -1.3677
17746TIP3   OH274728   5.671   3.397   1.666 -0.7427 -0.1137 -0.5655
17746TIP3    H174729   5.671   3.301   1.661  0.5503  0.0006 -3.4949
17746TIP3    H274730   5.582   3.422   1.640 -1.0095 -0.5056 -0.0355
17747TIP3   OH274731   2.820   2.585  14.503 -0.4389 -0.0575 -0.1760
17747TIP3    H174732   2.741   2.620  14.460 -0.1105  0.6881 -0.1871
17747TIP3    H274733   2.891   2.643  14.473  0.5807 -2.3145 -2.2700
17748TIP3   OH274734   3.035   6.767  16.831  0.2336 -0.2746 -0.2556
17748TIP3    H174735   2.950   6.778  16.787  0.1036 -1.2264 -0.2556
17748TIP3    H274736   3.015   6.712  16.907  0.7543 -0.0060  0.0797
17749TIP3   OH274737   4.124   2.520  17.061 -0.3802 -0.0598 -0.1558
17749TIP3    H174738   4.122   2.493  16.969  0.3013 -4.1128  0.9466
17749TIP3    H274739   4.213   2.555  17.074 -0.0723 -0.6297 -0.7293
17750TIP3   OH274740   4.220   4.132  12.204 -0.5478 -0.1173  0.4447
17750TIP3    H174741   4.207   4.047  12.247  0.4202 -0.2075  0.5702
17750TIP3    H274742   4.172   4.125  12.122 -2.0049 -0.1284  1.2673
17751TIP3   OH274743   4.877   3.087  17.259  0.3024  0.1400  0.2756
17751TIP3    H174744   4.836   3.120  17.339 -0.5322 -1.5534  0.5519
17751TIP3    H274745   4.970   3.084  17.279  0.2510  1.0525  0.6912
17752TIP3   OH274746   0.543   5.187   2.921  0.6615 -0.3675 -0.0343
17752TIP3    H174747   0.560   5.161   2.830  3.1653  1.6076 -0.1971
17752TIP3    H274748   0.475   5.253   2.914  0.6242 -0.4485 -0.4550
17753TIP3   OH274749   3.563   1.917  11.635 -0.4352 -0.1686 -0.2141
17753TIP3    H174750   3.508   1.839  11.633  0.2713 -0.6837 -0.1414
17753TIP3    H274751   3.541   1.960  11.717 -1.4313  0.1616 -0.6444
17754TIP3   OH274752   1.809   0.349   4.471 -0.3141 -0.2456  0.2373
17754TIP3    H174753   1.884   0.311   4.426 -0.2597  1.8163 -1.4705
17754TIP3    H274754   1.734   0.298   4.441 -0.2434  0.9479 -2.0158
17755TIP3   OH274755   6.466   4.981   2.719  0.5513 -0.0269 -0.0229
17755TIP3    H174756   6.474   5.075   2.730  1.0919 -0.1857  0.9845
17755TIP3    H274757   6.544   4.956   2.670  0.1024  0.1307 -0.8257
17756TIP3   OH274758   3.033   2.782   4.515 -0.3105  0.2277 -0.1678
17756TIP3    H174759   3.058   2.691   4.500 -0.8889 -0.0699  0.6307
17756TIP3    H274760   2.995   2.782   4.603 -1.1820  1.0560 -0.5351
17757TIP3   OH274761   0.980   1.041   4.889 -0.2049 -0.3391  0.7695
17757TIP3    H174762   1.031   0.961   4.906 -0.9842 -0.6137  1.9280
17757TIP3    H274763   1.040   1.113   4.908  0.1167 -0.6562  0.9592
17758TIP3   OH274764   6.039   3.831   2.496  0.1357 -0.2450 -0.1896
17758TIP3    H174765   6.100   3.903   2.512 -1.0881  0.5381  1.1129
17758TIP3    H274766   5.954   3.865   2.525 -0.6203 -1.8923 -0.4266
17759TIP3   OH274767   0.051   2.973  13.862 -0.1067 -0.0934 -0.4833
17759TIP3    H174768   0.040   2.909  13.791 -2.4156  0.5251 -0.7171
17759TIP3    H274769   0.074   3.054  13.818  0.8356 -0.2585 -0.3221
17760TIP3   OH274770   3.029   6.236   5.098  0.1417  0.1239 -0.2567
17760TIP3    H174771   3.106   6.186   5.072 -0.0528  0.0737 -0.7426
17760TIP3    H274772   2.998   6.276   5.017 -0.2498  0.2778 -0.0334
17761TIP3   OH274773   6.063   0.929   0.374 -0.5504  0.5281  0.2375
17761TIP3    H174774   6.066   1.025   0.376 -0.4676  0.5308 -0.0381
17761TIP3    H274775   6.048   0.904   0.465 -0.1122  0.7910  0.3863
17762TIP3   OH274776   0.250   3.862  12.299  0.2123 -0.1675  0.4462
17762TIP3    H174777   0.269   3.776  12.336  0.4908 -1.7633 -3.1768
17762TIP3    H274778   0.154   3.865  12.294  0.0812  0.8444  2.9510
17763TIP3   OH274779   4.717   4.900   3.393  0.1472 -0.2019  0.4574
17763TIP3    H174780   4.709   4.916   3.487 -3.2109 -2.3992  0.6342
17763TIP3    H274781   4.800   4.854   3.383  0.6067  0.1972  2.3191
17764TIP3   OH274782   1.117   6.432   0.527  0.4333  0.3992  0.1523
17764TIP3    H174783   1.208   6.409   0.543 -0.2580 -2.1506  0.5898
17764TIP3    H274784   1.104   6.413   0.434  0.1555  0.1111  0.2508
17765TIP3   OH274785   0.010   1.577   3.871  0.3473  0.4610 -0.2780
17765TIP3    H174786  -0.082   1.553   3.862  0.6466 -0.5287 -0.8030
17765TIP3    H274787   0.055   1.495   3.890  0.7696  1.3677  2.8951
17766TIP3   OH274788   4.334   1.053  14.619 -0.4417  0.1911 -0.1180
17766TIP3    H174789   4.390   1.076  14.693 -0.2714 -3.1193  0.8614
17766TIP3    H274790   4.392   1.005  14.559 -1.2113  0.5616 -1.1780
17767TIP3   OH274791   4.990   0.596   2.419  0.0415 -0.0249  0.0717
17767TIP3    H174792   5.007   0.663   2.353 -2.2332  0.3697 -0.1637
17767TIP3    H274793   5.067   0.599   2.476  1.4506  0.5207 -1.7953
17768TIP3   OH274794   1.003   1.787  15.092 -0.1086  0.0517 -0.7127
17768TIP3    H174795   0.973   1.732  15.020 -1.1731  1.4223 -1.3397
17768TIP3    H274796   1.027   1.870  15.051  0.6048  0.3857  0.3377
17769TIP3   OH274797   4.208   5.954  12.614  0.6316 -0.3233  0.2060
17769TIP3    H174798   4.244   6.013  12.681 -3.0517  1.9884  0.2986
17769TIP3    H274799   4.211   6.006  12.533 -1.7290 -0.2951  0.0943
17770TIP3   OH274800   0.248   6.014  17.116 -0.2015  0.0810  0.6133
17770TIP3    H174801   0.232   5.924  17.089 -1.6303  1.2342 -2.6359
17770TIP3    H274802   0.310   6.007  17.189  1.0387 -3.4221 -0.6821
17771TIP3   OH274803   4.228   5.756   1.949 -0.2852  0.0116  0.0039
17771TIP3    H174804   4.272   5.682   1.907  1.3587  2.4308 -2.7274
17771TIP3    H274805   4.156   5.778   1.889 -1.4186 -0.0336  1.3337
17772TIP3   OH274806   2.194   1.559   0.647 -0.0137 -0.7679  0.3106
17772TIP3    H174807   2.116   1.521   0.687  0.0036 -0.6834  0.4262
17772TIP3    H274808   2.250   1.583   0.721 -0.9770  1.5122  0.3566
17773TIP3   OH274809   4.402   2.573  17.025 -0.2364 -0.2316 -0.3617
17773TIP3    H174810   4.386   2.647  17.083 -0.5669 -0.1825 -0.5133
17773TIP3    H274811   4.407   2.612  16.938 -1.9822 -0.5837 -0.6223
17774TIP3   OH274812   2.482   0.483  16.341 -0.3704  0.2823 -0.1143
17774TIP3    H174813   2.448   0.489  16.252 -0.7247  0.9364  0.0597
17774TIP3    H274814   2.489   0.389  16.357  0.5238  0.1643 -1.1430
17775TIP3   OH274815   0.220   1.714  13.490  0.1128  1.1756  0.2617
17775TIP3    H174816   0.307   1.753  13.482  1.7999 -2.5595 -1.0922
17775TIP3    H274817   0.197   1.725  13.583  3.0666  0.3014  1.1526
17776TIP3   OH274818   4.084   5.468   1.959  0.1309  0.0711  0.3132
17776TIP3    H174819   4.116   5.392   2.008  0.6144 -0.4170 -0.7454
17776TIP3    H274820   4.163   5.507   1.921 -0.4336 -0.7121 -1.7025
17777TIP3   OH274821   0.128   2.411   6.022  0.4276  0.1550 -0.1079
17777TIP3    H174822   0.131   2.391   5.928  1.1715  0.4330 -0.1499
17777TIP3    H274823   0.191   2.352   6.061  1.2162  1.0636  0.0162
17778TIP3   OH274824   1.215   2.964  12.899  0.6183  0.0748 -0.0643
17778TIP3    H174825   1.233   2.883  12.947 -0.4210 -1.1459 -1.7038
17778TIP3    H274826   1.215   3.032  12.967  1.0562 -1.3523  1.3948
17779TIP3   OH274827   4.874   2.310   1.651  0.0856  0.2412  0.3015
17779TIP3    H174828   4.842   2.245   1.714  0.2357  0.0795  0.2127
17779TIP3    H274829   4.904   2.382   1.705 -0.7046  0.5241  0.3753
17780TIP3   OH274830   4.754   1.645  16.681  0.1739 -0.1086  0.7519
17780TIP3    H174831   4.673   1.649  16.630  1.2312 -1.0669 -1.0556
17780TIP3    H274832   4.816   1.599  16.624  1.8615  0.2121  2.2850
17781TIP3   OH274833   0.038   4.947  15.693  0.3402 -0.7604 -0.2926
17781TIP3    H174834   0.082   5.003  15.630  2.1102 -0.1410  1.4165
17781TIP3    H274835   0.065   4.858  15.670  1.5738 -0.4740  0.0222
17782TIP3   OH274836   1.548   2.773   0.630  0.1382  0.6718 -0.0005
17782TIP3    H174837   1.573   2.784   0.722 -1.5149 -0.6862  0.6134
17782TIP3    H274838   1.610   2.829   0.582  1.8366  0.3950  1.8142
17783TIP3   OH274839   0.642   6.125  15.311 -0.0382  0.2893 -0.1992
17783TIP3    H174840   0.733   6.108  15.284  0.4274  1.7950  0.3902
17783TIP3    H274841   0.644   6.212  15.349 -1.6997  0.2262  0.0656
17784TIP3   OH274842   2.001   4.258  12.945 -0.1901 -0.2933  0.3771
17784TIP3    H174843   1.953   4.241  12.864 -0.1026  1.0191  0.0266
17784TIP3    H274844   2.078   4.201  12.940  0.0415  0.1015 -0.6863
17785TIP3   OH274845   0.703   5.544   0.140  0.2721 -0.1907 -0.1284
17785TIP3    H174846   0.786   5.591   0.136  0.2794 -0.2516 -0.8806
17785TIP3    H274847   0.681   5.541   0.233  1.9260 -1.6194  0.2390
17786TIP3   OH274848   4.924   3.049  12.410  0.4532 -1.0063 -0.4711
17786TIP3    H174849   4.985   2.977  12.396  0.0634 -1.1244 -1.6300
17786TIP3    H274850   4.917   3.092  12.325 -0.7480 -0.7350 -0.2512
17787TIP3   OH274851   3.858   4.769  12.286  0.4684 -0.4062 -0.1115
17787TIP3    H174852   3.801   4.695  12.265 -0.4624  0.5261 -0.8809
17787TIP3    H274853   3.943   4.745  12.247 -0.0538 -0.6864 -1.0902
17788TIP3   OH274854   1.259   1.553  11.578  0.1561 -0.3175 -0.3289
17788TIP3    H174855   1.253   1.587  11.489  0.9792  2.0971  0.4967
17788TIP3    H274856   1.168   1.534  11.602 -0.0455 -1.2398 -1.7478
17789TIP3   OH274857   1.633   5.083  11.906  0.3873  0.6558 -0.1054
17789TIP3    H174858   1.569   5.154  11.893  0.0388  0.5717  1.0911
17789TIP3    H274859   1.598   5.032  11.979  0.8818 -0.4889 -0.6549
17790TIP3   OH274860   1.941   2.185   3.226  0.1760  0.0726  0.1947
17790TIP3    H174861   1.937   2.130   3.148  2.7226  0.3322 -0.1566
17790TIP3    H274862   1.977   2.268   3.195  1.4756  0.0741  1.6912
17791TIP3   OH274863   0.062   3.464  16.012  0.5808  0.0718 -0.1866
17791TIP3    H174864   0.019   3.547  16.032 -0.5877 -0.2276 -1.4108
17791TIP3    H274865   0.129   3.485  15.947 -1.8419 -0.4317 -2.8919
17792TIP3   OH274866   4.454   4.653   5.997 -0.2788 -0.3678 -0.1201
17792TIP3    H174867   4.458   4.714   5.923  0.6786  2.0313  1.8516
17792TIP3    H274868   4.360   4.639   6.012 -0.5069  0.9007 -0.3526
17793TIP3   OH274869   4.384   5.651  16.340  0.0506  0.0056 -0.3678
17793TIP3    H174870   4.408   5.691  16.424  0.3672  0.2817 -0.5888
17793TIP3    H274871   4.372   5.558  16.360  2.1248 -0.2780 -0.4184
17794TIP3   OH274872   3.612   2.802  15.186  0.4028 -1.0337 -0.0866
17794TIP3    H174873   3.533   2.822  15.237 -0.8888 -0.8344 -2.1378
17794TIP3    H274874   3.615   2.707  15.183 -0.2641 -1.0338 -0.7767
17795TIP3   OH274875   0.603   3.873  15.473 -0.0107  0.0325 -0.6741
17795TIP3    H174876   0.617   3.852  15.381  1.7838 -0.3495 -0.3239
17795TIP3    H274877   0.669   3.940  15.493 -0.1001 -0.2069  0.4524
17796TIP3   OH274878   0.161   3.562   2.718  0.0198  0.1454  0.4933
17796TIP3    H174879   0.181   3.553   2.625 -1.0919 -1.5928  0.4215
17796TIP3    H274880   0.192   3.651   2.740  1.1936  0.2022 -1.2767
17797TIP3   OH274881   2.665   1.765  12.140 -0.3227 -0.4800 -0.2227
17797TIP3    H174882   2.718   1.685  12.129 -1.6093 -1.5734  1.2793
17797TIP3    H274883   2.685   1.794  12.229  0.0916  0.8650 -0.7437
17798TIP3   OH274884   1.520   4.448   1.709  0.2530  0.0712 -0.4728
17798TIP3    H174885   1.475   4.515   1.656 -0.0603  0.0446 -0.2418
17798TIP3    H274886   1.596   4.423   1.657  1.1540  1.6236  0.0527
17799TIP3   OH274887   1.994   3.383  16.287  0.2694  0.0139 -0.5761
17799TIP3    H174888   1.921   3.432  16.251  0.8360  0.7982 -0.6650
17799TIP3    H274889   1.953   3.308  16.331 -0.8126  2.1278  2.1355
17800TIP3   OH274890   2.901   2.949  13.918 -0.0468  0.0145  0.2242
17800TIP3    H174891   2.895   2.854  13.906 -1.5156 -0.1451  2.1092
17800TIP3    H274892   2.820   2.983  13.880  0.4920  0.5378 -0.4746
17801TIP3   OH274893   3.768   3.967  11.188 -0.7238  0.9488  0.2041
17801TIP3    H174894   3.755   3.972  11.094 -0.2784  0.8297  0.1343
17801TIP3    H274895   3.858   3.934  11.198 -0.8654  0.6991  0.6649
17802TIP3   OH274896   5.943   4.445  15.196 -0.1112  0.2662 -0.2565
17802TIP3    H174897   6.031   4.481  15.194 -0.3773  1.0083  0.9057
17802TIP3    H274898   5.892   4.503  15.139  0.0602  0.0833 -0.5944
17803TIP3   OH274899   1.276   6.277  14.404  0.5507 -0.3817 -0.0336
17803TIP3    H174900   1.205   6.318  14.354  0.1378 -0.0455  0.8266
17803TIP3    H274901   1.336   6.244  14.337 -1.2734 -2.2318 -0.7908
17804TIP3   OH274902   5.302   1.421   2.880  0.1797 -0.1615  0.0396
17804TIP3    H174903   5.215   1.383   2.875 -0.7285  1.8354 -0.0854
17804TIP3    H274904   5.299   1.477   2.958  1.6413 -0.7646  0.5450
17805TIP3   OH274905   2.768   0.357   0.706  0.2814 -0.6369  0.1013
17805TIP3    H174906   2.800   0.322   0.622 -1.3371  1.3977 -1.4193
17805TIP3    H274907   2.794   0.449   0.705 -2.3291  0.1495  0.4710
17806TIP3   OH274908   5.702   2.374   4.924  0.2152  0.4653  0.6425
17806TIP3    H174909   5.691   2.387   5.019 -1.1203  0.5944  0.4900
17806TIP3    H274910   5.693   2.462   4.887 -0.3836  0.2695  0.3121
17807TIP3   OH274911   1.688   4.263  15.503  0.6162  0.2422  0.6507
17807TIP3    H174912   1.648   4.346  15.476  1.9308  0.3417 -1.0323
17807TIP3    H274913   1.613   4.208  15.527 -0.3371  1.5559  0.7823
17808TIP3   OH274914   5.772   1.185  16.219  0.3958 -0.1327  0.0319
17808TIP3    H174915   5.806   1.119  16.279  0.2509 -0.0296  0.2301
17808TIP3    H274916   5.689   1.212  16.258  0.3930  0.0734 -0.1150
17809TIP3   OH274917   3.078   0.251  14.946  0.5064  0.5579 -0.7112
17809TIP3    H174918   3.070   0.157  14.965  0.1245  0.4938 -1.1869
17809TIP3    H274919   3.099   0.255  14.853 -0.4185  0.9750 -0.9017
17810TIP3   OH274920   0.584   3.208   4.338  0.7698 -0.1257  0.3077
17810TIP3    H174921   0.663   3.254   4.367  1.3456  0.4909 -2.1241
17810TIP3    H274922   0.523   3.278   4.313  1.1576 -0.6303 -2.1386
17811TIP3   OH274923   0.573   1.781   3.948  0.0545 -0.5284 -0.2954
17811TIP3    H174924   0.496   1.778   3.890  1.0718 -0.3763 -1.6808
17811TIP3    H274925   0.578   1.872   3.977  0.3062 -0.2984 -1.0428
17812TIP3   OH274926   3.812   1.635  13.177  0.2679  0.3121 -0.4127
17812TIP3    H174927   3.815   1.730  13.166 -1.6113  0.4375 -0.0280
17812TIP3    H274928   3.764   1.622  13.259  1.8760 -0.9562  0.3772
17813TIP3   OH274929   4.785   2.397  15.300  0.3680 -0.5066  0.2840
17813TIP3    H174930   4.715   2.340  15.331 -2.0321  0.9026 -2.3847
17813TIP3    H274931   4.779   2.475  15.355 -0.5178 -0.1493 -0.3235
17814TIP3   OH274932   4.963   0.574   3.407  0.4271 -0.1026 -0.0992
17814TIP3    H174933   5.003   0.624   3.336 -1.1759  1.4427  0.0430
17814TIP3    H274934   5.032   0.513   3.435  1.0705 -0.7467 -2.9504
17815TIP3   OH274935   3.309   0.624  15.111  0.0189 -0.1161 -0.7890
17815TIP3    H174936   3.372   0.661  15.173 -0.7025 -2.1599  1.2508
17815TIP3    H274937   3.363   0.595  15.037  1.3382 -0.6134  0.3354
17816TIP3   OH274938   2.588   2.987  16.856  0.8851  0.1853 -0.0969
17816TIP3    H174939   2.499   3.001  16.891  0.2821 -0.7743 -1.2127
17816TIP3    H274940   2.626   3.075  16.851 -1.2503  1.0438 -2.8211
17817TIP3   OH274941   2.262   3.161  13.957 -0.3318  0.1869 -0.0272
17817TIP3    H174942   2.206   3.172  14.033 -1.3951  0.6942 -0.8734
17817TIP3    H274943   2.203   3.136  13.886  0.7803 -1.3460 -0.4512
17818TIP3   OH274944   6.817   6.811  15.647 -0.4612 -0.5025 -0.0277
17818TIP3    H174945   6.805   6.780  15.737 -1.4052 -0.1242 -0.0179
17818TIP3    H274946   6.821   6.730  15.595 -1.1519 -0.6906  0.2082
17819TIP3   OH274947   0.175   0.456  15.764  0.3195 -0.5849  0.1257
17819TIP3    H174948   0.218   0.525  15.715  1.0973 -0.3189  1.1622
17819TIP3    H274949   0.123   0.409  15.699  0.5959  0.3347 -0.7680
17820TIP3   OH274950   1.241   0.704  12.225  0.3111  0.4846  0.4526
17820TIP3    H174951   1.320   0.650  12.232 -0.1646 -0.8326 -3.1572
17820TIP3    H274952   1.267   0.778  12.169 -0.9369  0.0599 -0.7341
17821TIP3   OH274953   1.194   1.721  16.531  0.5191 -0.1126 -0.4756
17821TIP3    H174954   1.107   1.742  16.566 -0.2386  0.7696 -2.8080
17821TIP3    H274955   1.243   1.803  16.540  1.6236 -0.9911  2.1587
17822TIP3   OH274956   3.823   1.686  16.587  0.1342  0.0374 -0.2381
17822TIP3    H174957   3.840   1.592  16.598 -2.2243 -0.0282  3.8793
17822TIP3    H274958   3.893   1.729  16.636  1.3497  0.4672 -2.3227
17823TIP3   OH274959   2.182   1.438  12.161 -0.0868  0.0262  0.4394
17823TIP3    H174960   2.230   1.479  12.232  0.8457  0.2073 -0.2858
17823TIP3    H274961   2.178   1.504  12.092 -2.8116  0.5946  1.0937
17824TIP3   OH274962   3.247   4.715  12.011  0.1496  0.6618 -0.8273
17824TIP3    H174963   3.171   4.772  12.026  0.1008  0.6912 -1.1952
17824TIP3    H274964   3.293   4.756  11.938  1.0687  1.2140  0.0449
17825TIP3   OH274965   2.688   4.346  11.821 -0.0772  0.1994 -0.3302
17825TIP3    H174966   2.680   4.428  11.871 -1.2848  1.1513 -2.0463
17825TIP3    H274967   2.637   4.283  11.872  0.0644  0.7413  0.5014
17826TIP3   OH274968   2.630   1.110   6.629 -0.3211  0.0699  0.1330
17826TIP3    H174969   2.580   1.058   6.691 -1.7844  0.3864 -0.7570
17826TIP3    H274970   2.691   1.160   6.683 -1.9360  0.7418  1.3641
17827TIP3   OH274971   3.165   5.318   1.235 -0.3513 -0.4952 -0.6593
17827TIP3    H174972   3.168   5.370   1.315  1.7708 -0.1654 -0.9432
17827TIP3    H274973   3.093   5.256   1.250 -2.1620  1.7347  0.1345
17828TIP3   OH274974   0.587   3.427  13.911  0.4071 -0.1952 -0.1563
17828TIP3    H174975   0.515   3.376  13.947  1.5866 -0.0422  2.5044
17828TIP3    H274976   0.545   3.488  13.849 -1.8000  0.1677  1.6352
17829TIP3   OH274977   1.946   0.026   5.812  0.2113  0.7560 -0.2493
17829TIP3    H174978   1.970  -0.065   5.794 -1.2077  0.6270 -1.5729
17829TIP3    H274979   2.030   0.072   5.820  0.9595 -0.8389  1.4046
17830TIP3   OH274980   0.010   1.691  13.322 -0.1672 -0.5085 -0.6223
17830TIP3    H174981  -0.028   1.774  13.349  0.9236  0.1153 -0.9852
17830TIP3    H274982   0.088   1.680  13.376 -0.0810 -1.0985 -0.8536
17831TIP3   OH274983   2.906   5.520   5.466  0.0779 -0.5751 -0.1524
17831TIP3    H174984   2.963   5.573   5.521  1.2314 -3.4731  1.5194
17831TIP3    H274985   2.965   5.471   5.409 -0.9488 -0.4847 -1.3251
17832TIP3   OH274986   6.428   1.416  16.262  0.1355 -0.0006 -0.9156
17832TIP3    H174987   6.339   1.402  16.231 -0.2252 -2.3498  1.0675
17832TIP3    H274988   6.425   1.502  16.304 -1.1363 -0.0046 -0.9785
17833TIP3   OH274989   5.570   1.678   3.945  0.2057 -0.3871  0.8876
17833TIP3    H174990   5.606   1.744   3.886 -0.8048 -0.1994  0.4805
17833TIP3    H274991   5.604   1.703   4.032  0.9849 -0.1707  0.5282
17834TIP3   OH274992   1.455   4.702   5.544  0.8436 -0.4706  0.1109
17834TIP3    H174993   1.407   4.780   5.515 -0.2022 -1.1735 -0.0958
17834TIP3    H274994   1.534   4.736   5.586 -0.2075  0.7659  1.1573
17835TIP3   OH274995   0.498   3.019  11.913  0.6539  0.5112 -1.1808
17835TIP3    H174996   0.469   3.104  11.947 -0.4893 -0.2895 -0.0965
17835TIP3    H274997   0.417   2.976  11.886  1.0627 -0.9130 -0.1315
17836TIP3   OH274998   0.284   4.126  16.798  0.5677 -0.1076  0.6070
17836TIP3    H174999   0.346   4.062  16.763 -0.3230  0.0403 -1.3130
17836TIP3    H275000   0.294   4.202  16.740 -1.3778 -0.0874  0.2730
17837TIP3   OH275001   1.583   5.067  12.748 -0.0787  0.5898 -0.4064
17837TIP3    H175002   1.544   5.054  12.662 -1.4036 -0.3210  0.3216
17837TIP3    H275003   1.632   5.148  12.740  1.4305 -0.4809 -2.5992
17838TIP3   OH275004   1.234   3.371   4.722 -0.1425  0.5739  0.3682
17838TIP3    H175005   1.145   3.403   4.710  0.3453  2.1988  0.8909
17838TIP3    H275006   1.253   3.387   4.815  1.0154  1.1463  0.0500
17839TIP3   OH275007   4.000   0.851  15.989  0.3821  0.4325 -0.1383
17839TIP3    H175008   4.084   0.820  15.955  1.1005  1.4962  0.6257
17839TIP3    H275009   3.994   0.942  15.959 -0.2762  0.5051  0.2045
17840TIP3   OH275010   5.439   5.337  15.367 -0.1048  0.0348  0.9552
17840TIP3    H175011   5.474   5.261  15.415  1.4928 -0.3822 -0.8266
17840TIP3    H275012   5.358   5.305  15.327 -0.8151  0.0404  2.3723
17841TIP3   OH275013   6.729   2.183  15.574  0.5181  0.1463  0.3955
17841TIP3    H175014   6.697   2.228  15.496  1.9479  1.4727  0.5616
17841TIP3    H275015   6.687   2.229  15.647  0.6997  0.1587  0.4921
17842TIP3   OH275016   0.478   1.747  13.382  0.3504  0.5032  0.3327
17842TIP3    H175017   0.481   1.776  13.291 -0.0643  0.2165  0.2269
17842TIP3    H275018   0.567   1.760  13.415  0.6325  0.1214 -0.2690
17843TIP3   OH275019   1.104   0.375   6.337 -0.3341 -0.4629 -0.1100
17843TIP3    H175020   1.069   0.290   6.311 -0.4827 -0.2900 -0.4793
17843TIP3    H275021   1.128   0.364   6.429 -4.0745  0.2737  1.0361
17844TIP3   OH275022   2.555   0.715   2.037 -0.6601  0.2834 -0.1894
17844TIP3    H175023   2.474   0.666   2.047 -1.5620  1.2722 -2.3646
17844TIP3    H275024   2.598   0.675   1.962 -0.3620  1.3795 -0.6186
17845TIP3   OH275025   6.481   2.658   5.387 -0.4333 -0.4631 -0.2234
17845TIP3    H175026   6.504   2.582   5.441  2.1621 -0.8148 -1.7138
17845TIP3    H275027   6.470   2.621   5.299  1.6671  0.9791 -1.1232
17846TIP3   OH275028   0.406   1.475  13.417  0.0473 -0.2773  0.2802
17846TIP3    H175029   0.412   1.554  13.363 -0.4235 -0.5097 -0.1217
17846TIP3    H275030   0.450   1.498  13.499 -0.3620  0.5094  0.2880
17847TIP3   OH275031   2.702   2.081  15.300  0.6322  0.6545 -0.1900
17847TIP3    H175032   2.624   2.050  15.254 -0.6053 -0.9736  2.8517
17847TIP3    H275033   2.669   2.150  15.358  1.3431 -0.3288  1.4177
17848TIP3   OH275034   6.334   2.473   3.491  0.4615 -0.1831 -0.0654
17848TIP3    H175035   6.366   2.527   3.563 -1.1144  0.2924  0.3114
17848TIP3    H275036   6.302   2.394   3.532 -1.4880  0.5652 -0.0916
17849TIP3   OH275037   2.901   3.407  11.105  0.3094  0.4089  0.5073
17849TIP3    H175038   2.964   3.338  11.088  0.3271  0.5057  0.1781
17849TIP3    H275039   2.845   3.408  11.028 -0.1292  0.2848  0.8205
17850TIP3   OH275040   3.590   5.688  16.112  0.3200  0.0404  1.1042
17850TIP3    H175041   3.641   5.613  16.143  0.3843  0.0362  0.9907
17850TIP3    H275042   3.611   5.694  16.019  1.5983  1.2058  1.4403
17851TIP3   OH275043   1.825   2.495  12.695  0.1974 -0.2452  0.3682
17851TIP3    H175044   1.738   2.512  12.658 -0.2309 -0.7844  1.0954
17851TIP3    H275045   1.866   2.436  12.632  1.4214  2.8167 -1.7945
17852TIP3   OH275046   6.523   2.652   2.215 -0.4652 -0.3026  0.0564
17852TIP3    H175047   6.535   2.569   2.261  0.4356 -0.7473 -0.9561
17852TIP3    H275048   6.572   2.641   2.133 -1.0284  0.9225 -0.4529
17853TIP3   OH275049   2.149   5.358   2.118 -0.0631  0.0985  0.7911
17853TIP3    H175050   2.079   5.294   2.125  1.4275 -1.4439  2.1728
17853TIP3    H275051   2.214   5.329   2.182  1.2807  2.1860  0.4164
17854TIP3   OH275052   4.743   4.458  11.065  0.0427 -0.0506  0.1127
17854TIP3    H175053   4.726   4.382  11.010 -0.3588  1.6758 -2.2404
17854TIP3    H275054   4.715   4.533  11.012  0.8058  1.7704  2.1899
17855TIP3   OH275055   0.485   1.057   4.077 -1.1543 -0.0061 -0.9513
17855TIP3    H175056   0.493   1.115   4.153  0.3599  0.0932 -1.1783
17855TIP3    H275057   0.480   0.969   4.114  2.8776 -0.2556 -0.8057
17856TIP3   OH275058   3.931   2.154   6.690  0.1298 -0.0032 -0.1471
17856TIP3    H175059   3.844   2.117   6.706  0.0440  0.8244  1.5046
17856TIP3    H275060   3.989   2.102   6.745  0.5447 -0.0073 -0.5941
17857TIP3   OH275061   0.813   1.462  11.135  0.3720 -0.3181 -0.2371
17857TIP3    H175062   0.826   1.380  11.087  0.3008 -1.2030  1.2246
17857TIP3    H275063   0.879   1.521  11.099  0.0029 -0.8010 -1.7548
17858TIP3   OH275064   5.775   5.615  16.139  0.2739 -0.4034 -0.6080
17858TIP3    H175065   5.743   5.622  16.050 -0.4275  1.6379 -0.2232
17858TIP3    H275066   5.700   5.582  16.189 -0.8398  2.8501  0.0066
17859TIP3   OH275067   5.329   5.652   3.254  0.2253  1.0968  0.2013
17859TIP3    H175068   5.306   5.688   3.339 -0.4593  1.7857 -0.2650
17859TIP3    H275069   5.422   5.630   3.261 -0.7004 -2.3822  2.3241
17860TIP3   OH275070   4.072   5.038  11.729 -0.5386  0.6212 -0.1263
17860TIP3    H175071   4.097   5.127  11.704  0.3350  0.1528 -0.9266
17860TIP3    H275072   4.040   5.046  11.819  2.1009  1.2898  0.7768
17861TIP3   OH275073   3.715   4.500   6.658  0.0827  0.4889 -0.1092
17861TIP3    H175074   3.738   4.580   6.611  0.3957  0.3136 -0.2547
17861TIP3    H275075   3.699   4.435   6.589 -0.5982  0.5424 -0.0036
17862TIP3   OH275076   5.523   0.748  12.878 -0.4818  0.2666  0.1480
17862TIP3    H175077   5.566   0.672  12.838 -0.0666 -0.5605  2.1162
17862TIP3    H275078   5.546   0.743  12.970 -0.2239  2.9603  0.2844
17863TIP3   OH275079   2.886   4.152   1.802 -0.0605  0.7416 -1.1567
17863TIP3    H175080   2.954   4.209   1.767  1.5178 -1.2447 -1.4367
17863TIP3    H275081   2.922   4.120   1.885 -0.4227 -0.7074 -1.5397
17864TIP3   OH275082   3.000   1.723   4.541 -0.4324 -0.6311 -0.3450
17864TIP3    H175083   2.905   1.735   4.538 -0.5649 -1.8972 -1.5254
17864TIP3    H275084   3.034   1.809   4.568 -1.8463  0.0988 -0.8230
17865TIP3   OH275085   4.547   1.505  15.896  0.4770 -0.1967 -0.0739
17865TIP3    H175086   4.576   1.557  15.971 -1.8867  0.1030  0.6579
17865TIP3    H275087   4.506   1.569  15.837  1.8080 -0.5202 -1.3785
17866TIP3   OH275088   2.248   2.551  11.369 -0.6739 -0.0334  0.1845
17866TIP3    H175089   2.180   2.526  11.306  1.1228 -1.2981 -1.3205
17866TIP3    H275090   2.314   2.595  11.316  0.0643  0.4242  1.4859
17867TIP3   OH275091   4.536   5.624   4.379  0.1384  0.2150 -0.5158
17867TIP3    H175092   4.564   5.558   4.315 -0.5271  0.3184 -0.9247
17867TIP3    H275093   4.543   5.581   4.464 -0.4944 -0.4577 -0.8006
17868TIP3   OH275094   3.475   6.226   3.577 -0.1293 -0.1335 -0.1461
17868TIP3    H175095   3.458   6.136   3.548 -2.4326 -0.6652  2.6077
17868TIP3    H275096   3.566   6.225   3.605 -0.0611 -1.5558 -0.3470
17869TIP3   OH275097   5.300   1.595  10.233  0.5192  0.4778  0.6409
17869TIP3    H175098   5.227   1.642  10.275 -0.5905  0.2659 -1.0116
17869TIP3    H275099   5.372   1.657  10.234 -0.6885  1.9388 -0.7762
17870TIP3   OH275100   6.583   5.046   0.993 -0.7184 -0.1207  0.6864
17870TIP3    H175101   6.627   5.127   1.017  0.3350 -0.7582  0.9419
17870TIP3    H275102   6.652   4.991   0.955 -2.1658  0.5343 -3.0775
17871TIP3   OH275103   4.050   3.236   5.194 -0.3751  0.1120 -0.1558
17871TIP3    H175104   4.046   3.143   5.174 -2.2129 -0.1081  1.1263
17871TIP3    H275105   3.969   3.272   5.159 -0.1795  1.0362  0.3186
17872TIP3   OH275106   2.726   0.968  13.407 -0.7117 -0.4207  1.7223
17872TIP3    H175107   2.671   0.929  13.339 -2.1042  1.8094  1.5105
17872TIP3    H275108   2.671   0.967  13.485  0.0408 -0.8458  2.2525
17873TIP3   OH275109   1.206   3.317  12.417  0.2012  0.0456 -0.2110
17873TIP3    H175110   1.110   3.325  12.424  0.3452  2.4657 -0.5151
17873TIP3    H275111   1.236   3.312  12.507  0.0213  3.3499  0.1190
17874TIP3   OH275112   6.335   5.048  15.091 -0.4737  0.1642 -0.0621
17874TIP3    H175113   6.399   5.114  15.065 -0.4808 -0.4376 -1.6650
17874TIP3    H275114   6.261   5.062  15.033  1.0604 -3.7141 -3.2477
17875TIP3   OH275115   3.538   3.924   0.257 -0.4129  0.0284 -0.0084
17875TIP3    H175116   3.484   3.994   0.294  0.5498  1.2903 -0.9531
17875TIP3    H275117   3.485   3.845   0.267 -1.8859  1.0329  0.2569
17876TIP3   OH275118   6.280   2.433   3.788  0.0423 -0.4719  0.2047
17876TIP3    H175119   6.209   2.375   3.815  0.1514 -1.0325 -0.7291
17876TIP3    H275120   6.281   2.502   3.856 -0.9410 -0.8266  0.5866
17877TIP3   OH275121   4.388   2.855  15.098 -0.1195  0.8493 -0.2976
17877TIP3    H175122   4.293   2.853  15.111 -0.1783  1.7051 -0.6360
17877TIP3    H275123   4.424   2.857  15.187 -0.3498 -2.1274 -0.0851
17878TIP3   OH275124   5.444   2.712   5.528 -0.4618 -0.6992  0.2354
17878TIP3    H175125   5.432   2.682   5.619  2.0824 -0.0536  0.8277
17878TIP3    H275126   5.518   2.661   5.496 -1.6526 -1.2625 -1.6697
17879TIP3   OH275127   0.544   6.398  13.975 -0.5565  0.0002 -0.8732
17879TIP3    H175128   0.622   6.448  14.000 -1.0776  0.3315  0.0970
17879TIP3    H275129   0.481   6.414  14.045 -1.1972 -0.9675 -1.2113
17880TIP3   OH275130   1.245   3.418   2.285  0.3084  0.5042  0.0147
17880TIP3    H175131   1.294   3.493   2.319 -0.6607  0.6970  1.0376
17880TIP3    H275132   1.311   3.350   2.273  1.3180  1.7288 -1.6192
17881TIP3   OH275133   3.212   0.545  16.603 -0.6798  0.0937  0.0813
17881TIP3    H175134   3.177   0.493  16.676 -0.8260  0.9374  0.6124
17881TIP3    H275135   3.156   0.521  16.528  0.9254 -2.5465 -0.3565
17882TIP3   OH275136   0.074   1.253  16.715 -0.6182  0.9411 -0.4427
17882TIP3    H175137   0.037   1.260  16.627  1.5893  3.1714 -1.2654
17882TIP3    H275138   0.110   1.340  16.733  1.2662 -0.1946  1.5851
17883TIP3   OH275139   5.039   1.035   1.401 -0.2993 -0.0940  0.3585
17883TIP3    H175140   4.970   1.009   1.340  0.8144 -2.2189 -0.0455
17883TIP3    H275141   5.097   0.959   1.406  1.9564  1.5882  0.7845
17884TIP3   OH275142   3.164   5.431   3.386 -0.0634  0.3756  0.3080
17884TIP3    H175143   3.202   5.432   3.474 -1.0616  0.2046  0.7477
17884TIP3    H275144   3.101   5.503   3.386  0.2930  0.6955 -0.4376
17885TIP3   OH275145   4.600   2.617  15.097  0.3321  0.2376 -0.4640
17885TIP3    H175146   4.584   2.700  15.143 -0.4002 -0.7226  1.0536
17885TIP3    H275147   4.693   2.618  15.078  0.3390  1.3941 -0.4284
17886TIP3   OH275148   1.136   0.305  16.916 -0.2036  0.1667 -0.4730
17886TIP3    H175149   1.132   0.401  16.918 -1.0205  0.1364  2.5376
17886TIP3    H275150   1.044   0.278  16.909 -0.1747 -0.3790  1.0478
17887TIP3   OH275151   3.108   3.757   1.728 -0.3342  0.0951 -0.0598
17887TIP3    H175152   3.166   3.833   1.730  0.2236 -0.3308  0.1841
17887TIP3    H275153   3.158   3.688   1.772 -1.1032 -0.2229  0.3180
17888TIP3   OH275154   3.364   1.767   4.494 -0.0773  0.3590 -0.2400
17888TIP3    H175155   3.280   1.791   4.454 -0.6401 -1.1810 -0.0067
17888TIP3    H275156   3.427   1.774   4.422 -0.4355  1.3385 -0.4629
17889TIP3   OH275157   1.447   1.690  13.022  0.4280 -0.3917  0.2452
17889TIP3    H175158   1.424   1.642  12.943 -2.1434  0.6792  0.2860
17889TIP3    H275159   1.386   1.657  13.089  1.3121  0.0442  1.2811
17890TIP3   OH275160   3.309   3.219   1.843  0.2515  0.1601 -0.2039
17890TIP3    H175161   3.390   3.171   1.831 -0.1343 -1.1891  2.2384
17890TIP3    H275162   3.241   3.152   1.842 -0.2686  0.4800  3.5645
17891TIP3   OH275163   5.596   1.918  15.155  0.4656 -0.2503 -0.4888
17891TIP3    H175164   5.639   1.977  15.216  1.4681  0.0951 -1.5046
17891TIP3    H275165   5.640   1.834  15.167 -1.5301 -1.0434  1.5572
17892TIP3   OH275166   1.623   6.019   5.026  0.0555  0.1094 -0.5001
17892TIP3    H175167   1.703   5.980   5.061  0.5286  0.4441 -1.2045
17892TIP3    H275168   1.621   6.107   5.063 -0.7447 -0.3950  0.6769
17893TIP3   OH275169   2.307   1.033   3.776  0.7083 -0.3154  0.1364
17893TIP3    H175170   2.265   1.044   3.861 -0.5496 -1.6054 -0.3093
17893TIP3    H275171   2.354   0.950   3.783  1.0756 -0.1459 -0.2525
17894TIP3   OH275172   0.288   4.190  17.122 -0.5812 -0.0081  0.5224
17894TIP3    H175173   0.274   4.284  17.109  0.4309  0.2246  1.0343
17894TIP3    H275174   0.231   4.148  17.058 -1.1389  0.9543  0.3794
17895TIP3   OH275175   0.364   2.772  15.429  0.0856  0.4342 -0.6158
17895TIP3    H175176   0.292   2.715  15.456  1.4356 -1.1668 -0.2985
17895TIP3    H275177   0.325   2.859  15.424 -1.5649 -0.1873  0.8015
17896TIP3   OH275178   1.584   4.339   2.991  0.1416 -0.2541  0.5036
17896TIP3    H175179   1.675   4.319   2.971  0.8024  2.7963  0.2818
17896TIP3    H275180   1.588   4.405   3.061 -1.8666  0.1645  0.2716
17897TIP3   OH275181   2.437   6.125   0.608  0.1125 -0.4258  0.8619
17897TIP3    H175182   2.470   6.131   0.698  1.4224 -0.5857  0.4131
17897TIP3    H275183   2.343   6.110   0.617 -0.3506  2.8780  2.1777
17898TIP3   OH275184   3.856   5.950   1.647 -0.0426  0.0011 -0.1755
17898TIP3    H175185   3.896   5.890   1.710  0.1900 -0.4349 -0.7296
17898TIP3    H275186   3.916   6.025   1.645 -0.6534  0.5360  0.9723
17899TIP3   OH275187   4.616   1.828  14.191  0.2696  0.3197  0.0674
17899TIP3    H175188   4.671   1.754  14.218 -1.5852 -0.6413  1.2712
17899TIP3    H275189   4.678   1.891  14.154  1.9907 -1.4266 -0.1113
17900TIP3   OH275190   6.153   1.047   6.246 -0.1616  0.3544 -0.5370
17900TIP3    H175191   6.153   1.141   6.228  0.8135  0.5941  0.6611
17900TIP3    H275192   6.116   1.008   6.167 -0.9764  1.7679 -0.8855
17901TIP3   OH275193   1.539   0.962  16.520 -0.6031  0.1027  0.2227
17901TIP3    H175194   1.466   1.019  16.497  1.1655  2.1160 -0.5323
17901TIP3    H275195   1.567   0.924  16.436  0.1039  0.4321  0.3036
17902TIP3   OH275196   6.598   1.494  11.631  0.2844 -0.0202  0.5463
17902TIP3    H175197   6.656   1.422  11.605  1.4334  1.2944 -0.5428
17902TIP3    H275198   6.619   1.565  11.571 -1.4186  0.9710  1.1089
17903TIP3   OH275199   6.070   6.587  14.964 -0.4733  0.1097  0.1675
17903TIP3    H175200   5.983   6.550  14.948 -0.4233 -0.0125  0.1745
17903TIP3    H275201   6.054   6.679  14.985 -0.4583  0.5991 -1.8197
17904TIP3   OH275202   2.340   5.503  10.897  0.6321  0.2911  0.9071
17904TIP3    H175203   2.270   5.441  10.877  0.8380 -0.4330  2.3326
17904TIP3    H275204   2.375   5.528  10.812 -0.4693 -0.3711  0.2399
17905TIP3   OH275205   6.627   0.850  14.408  0.0719 -0.5215  0.4093
17905TIP3    H175206   6.637   0.939  14.442 -0.1710 -0.9181  1.5359
17905TIP3    H275207   6.535   0.844  14.383 -0.2800 -0.9492  1.7739
17906TIP3   OH275208   3.815   0.074  14.506  0.2562 -0.0574 -0.2750
17906TIP3    H175209   3.762   0.018  14.563  0.3693  0.1116 -0.0039
17906TIP3    H275210   3.866   0.012  14.453  1.0856 -0.2106  0.6828
17907TIP3   OH275211   4.417   5.792  16.604  0.2924 -0.2668 -0.5005
17907TIP3    H175212   4.344   5.828  16.654  0.3850 -0.5272 -0.1758
17907TIP3    H275213   4.492   5.847  16.628  0.7678 -1.5921  1.1712
17908TIP3   OH275214   6.622   1.530  12.326 -0.5945 -0.4935 -0.5835
17908TIP3    H175215   6.601   1.517  12.233 -0.2441 -2.3398 -0.4223
17908TIP3    H275216   6.543   1.501  12.372 -0.8477  0.6271 -0.3089
17909TIP3   OH275217   3.964   0.019   2.668 -0.1926 -0.1390 -0.0541
17909TIP3    H175218   4.001  -0.060   2.626  2.1793  1.8405 -1.8427
17909TIP3    H275219   4.015   0.029   2.748 -0.9804 -0.8303  0.5319
17910TIP3   OH275220   4.773   4.084   3.830 -0.1907 -0.2464 -0.4539
17910TIP3    H175221   4.746   4.175   3.840  1.1714  0.0417  0.9068
17910TIP3    H275222   4.738   4.039   3.907  0.7304 -0.4680 -0.1561
17911TIP3   OH275223   3.961   5.185   4.299  0.4343 -0.2403 -0.3830
17911TIP3    H175224   3.928   5.259   4.248  3.9618  2.3713  0.8439
17911TIP3    H275225   3.948   5.212   4.390  2.3802 -0.7799  0.0799
17912TIP3   OH275226   0.107   4.265   1.366  0.4295  0.1050 -0.3456
17912TIP3    H175227   0.179   4.203   1.381  1.2007  1.4242  1.7774
17912TIP3    H275228   0.151   4.347   1.344 -0.3245  1.2964  2.3661
17913TIP3   OH275229   0.619   1.689   0.305 -0.2958  0.3645  0.0917
17913TIP3    H175230   0.575   1.730   0.379  2.5421  0.9542  1.5365
17913TIP3    H275231   0.628   1.759   0.240  1.3018  1.0831  1.0764
17914TIP3   OH275232   4.624   2.018  14.712 -0.0593  0.5103  0.1711
17914TIP3    H175233   4.618   2.111  14.733 -1.0139  0.3478  0.6247
17914TIP3    H275234   4.673   2.015  14.630  1.3148  1.3200  0.9372
17915TIP3   OH275235   4.569   1.861  12.381  0.7951  0.0122 -0.3495
17915TIP3    H175236   4.632   1.924  12.416  0.4665 -0.1983  0.6503
17915TIP3    H275237   4.597   1.776  12.416 -0.7710  0.0882  1.1944
17916TIP3   OH275238   5.586   5.302  11.730 -0.0655 -0.0985 -0.5225
17916TIP3    H175239   5.533   5.228  11.757  0.4498 -0.5542 -0.7515
17916TIP3    H275240   5.568   5.312  11.636 -0.6188  0.4703 -0.3654
17917TIP3   OH275241   1.754   0.754  11.559  0.5933 -0.3949  0.1913
17917TIP3    H175242   1.732   0.676  11.508 -0.6653 -0.4401  0.7650
17917TIP3    H275243   1.776   0.821  11.494  2.7667 -1.5355 -0.2666
17918TIP3   OH275244   2.293   0.885   2.151  0.1346  0.2618  0.1522
17918TIP3    H175245   2.333   0.801   2.129  1.0545  0.3914  1.3074
17918TIP3    H275246   2.298   0.935   2.069 -0.1768 -0.7096 -0.4672
17919TIP3   OH275247   2.747   4.348  14.849  0.6072 -0.4602  0.5524
17919TIP3    H175248   2.840   4.355  14.869  0.6115 -4.9822  2.6934
17919TIP3    H275249   2.703   4.389  14.924  0.8595 -0.5439  0.7472
17920TIP3   OH275250   5.048   2.809  14.693 -0.5603  0.4704 -0.1981
17920TIP3    H175251   5.064   2.897  14.727 -1.0635  0.3352  0.3940
17920TIP3    H275252   4.964   2.783  14.731 -1.8023  0.8266 -2.5784
17921TIP3   OH275253   4.694   3.648   5.445  0.0431  0.1801 -0.2153
17921TIP3    H175254   4.699   3.681   5.535 -0.7398 -0.3412  0.0229
17921TIP3    H275255   4.783   3.658   5.411  1.2239 -2.7905  1.7436
17922TIP3   OH275256   0.248   2.405   2.818 -0.5316  0.3453  0.3007
17922TIP3    H175257   0.246   2.498   2.793  0.9439  0.6577  1.2595
17922TIP3    H275258   0.339   2.390   2.843 -1.0886 -0.9979  1.5448
17923TIP3   OH275259   3.667   4.124   1.741  0.7950  0.3129  0.1609
17923TIP3    H175260   3.651   4.051   1.800  0.3127  0.4470  0.2002
17923TIP3    H275261   3.611   4.194   1.774 -0.9136 -0.1969 -1.5252
17924TIP3   OH275262   1.245   6.642  16.938  0.1458  0.2599 -0.6315
17924TIP3    H175263   1.289   6.678  16.861  0.5821  0.1257 -0.4447
17924TIP3    H275264   1.277   6.694  17.011  0.4745 -0.2362 -0.4124
17925TIP3   OH275265   5.311   3.644  14.627  0.0561  0.5459 -0.0918
17925TIP3    H175266   5.384   3.585  14.607  0.6683  1.3689 -0.3366
17925TIP3    H275267   5.320   3.663  14.720  0.3362  0.8892 -0.1889
17926TIP3   OH275268   1.339   5.405   4.563  0.2213  0.1618 -0.1462
17926TIP3    H175269   1.417   5.411   4.619  2.2113 -1.1701 -2.6466
17926TIP3    H275270   1.374   5.385   4.476 -2.9821 -0.9231 -1.2560
17927TIP3   OH275271   3.631   6.767   0.751 -0.2031  0.0734  0.0197
17927TIP3    H175272   3.548   6.749   0.794 -1.2156  1.0310 -1.4975
17927TIP3    H275273   3.615   6.747   0.659  1.8317 -1.6412  0.0092
17928TIP3   OH275274   0.063   2.944  15.190 -0.0256  0.2337  0.1033
17928TIP3    H175275   0.011   2.925  15.268  0.7933  1.6155  1.0014
17928TIP3    H275276   0.089   2.858  15.157 -1.6434 -0.4146  0.4835
17929TIP3   OH275277   5.971   1.316   1.008  0.2112  0.3739  0.3846
17929TIP3    H175278   6.010   1.280   1.088 -1.1143 -0.8918  0.4671
17929TIP3    H275279   5.932   1.399   1.036  2.4161  1.4587  0.3938
17930TIP3   OH275280   4.966   4.978   2.016  0.0563 -0.1893 -0.3498
17930TIP3    H175281   4.898   4.927   1.972 -0.4744 -0.2883  0.5660
17930TIP3    H275282   4.928   5.066   2.025  0.7024  0.1979 -1.3183
17931TIP3   OH275283   1.052   1.303  11.386  0.1338 -0.7287  0.3107
17931TIP3    H175284   1.035   1.391  11.421 -1.4599 -1.3173  1.0289
17931TIP3    H275285   1.070   1.250  11.464 -0.8453 -1.4742  0.0286
17932TIP3   OH275286   3.900   1.462   0.497  0.4258  0.2694  0.3878
17932TIP3    H175287   3.920   1.508   0.579  1.6653  0.1855  0.1380
17932TIP3    H275288   3.985   1.454   0.453 -0.1459 -0.2220 -0.6271
17933TIP3   OH275289   1.052   4.731   4.410  0.5881  0.4851 -0.4258
17933TIP3    H175290   1.041   4.668   4.481  0.2146  0.5727 -0.4010
17933TIP3    H275291   0.963   4.745   4.377  0.9154 -0.5820 -1.8076
17934TIP3   OH275292   3.038   6.089   0.330  0.2725 -0.1544 -0.2352
17934TIP3    H175293   2.967   6.131   0.282 -1.1858 -1.3326  0.8316
17934TIP3    H275294   2.995   6.049   0.406  1.6028 -3.4206 -1.1073
17935TIP3   OH275295   6.052   3.850  11.841 -0.3494  0.0153  0.0895
17935TIP3    H175296   6.033   3.779  11.779 -1.0185  0.2872 -0.0222
17935TIP3    H275297   6.144   3.838  11.864 -0.5985 -1.1993  0.4643
17936TIP3   OH275298   2.659   2.598   0.567 -0.1032  0.1845  0.4435
17936TIP3    H175299   2.577   2.636   0.535  0.5114 -0.1026 -1.4824
17936TIP3    H275300   2.684   2.534   0.501  1.6017  0.1443  1.1039
17937TIP3   OH275301   1.179   6.535   0.130 -0.0249 -0.5155  0.3191
17937TIP3    H175302   1.199   6.509   0.040  0.9124 -0.1625  0.4172
17937TIP3    H275303   1.210   6.461   0.183  0.2838 -0.3150  0.4172
17938TIP3   OH275304   5.707   0.447   3.034 -0.2089 -0.5338  0.5190
17938TIP3    H175305   5.660   0.396   3.100  0.0909 -2.7012 -0.9080
17938TIP3    H275306   5.664   0.424   2.951 -0.3242  1.8464 -0.1188
17939TIP3   OH275307   1.301   2.732   5.392  0.3808 -0.8246 -0.3328
17939TIP3    H175308   1.385   2.696   5.364  0.9335 -0.0709  0.3413
17939TIP3    H275309   1.243   2.656   5.399  0.9205 -1.3088 -1.0903
17940TIP3   OH275310   1.839   6.302   6.083  0.7824  0.3887  0.2137
17940TIP3    H175311   1.845   6.373   6.147  0.4383 -0.0935  0.8029
17940TIP3    H275312   1.759   6.255   6.108  0.9424 -0.1286 -0.2370
17941TIP3   OH275313   2.156   4.250  16.392  0.5140  0.2674 -0.1420
17941TIP3    H175314   2.071   4.284  16.420  0.1657  0.0625 -0.9291
17941TIP3    H275315   2.138   4.210  16.307  1.5397  0.8080 -0.6109
17942TIP3   OH275316   1.799   0.289   1.522 -0.4904 -0.5104  0.3892
17942TIP3    H175317   1.787   0.276   1.617  1.7667 -1.7807  0.5290
17942TIP3    H275318   1.829   0.379   1.514 -1.5193 -0.1216  0.7957
17943TIP3   OH275319   0.948   3.136   3.770  0.2703  0.0555 -0.3633
17943TIP3    H175320   1.004   3.177   3.837  0.4558 -1.7889  0.6172
17943TIP3    H275321   0.966   3.187   3.690  0.2338  2.1084  0.9054
17944TIP3   OH275322   1.065   0.624  15.658  0.5018  0.0002  0.1804
17944TIP3    H175323   1.029   0.694  15.713 -0.0851 -0.9786  1.0527
17944TIP3    H275324   1.141   0.664  15.615  1.0218  0.7555  1.7618
17945TIP3   OH275325   6.313   4.298  12.084 -0.1852 -0.0005  0.5853
17945TIP3    H175326   6.349   4.330  12.002 -0.2767 -0.0170  0.5393
17945TIP3    H275327   6.252   4.366  12.112 -0.3310 -0.1031  0.5188
17946TIP3   OH275328   3.810   3.551  11.988  0.1165 -0.9545 -0.1711
17946TIP3    H175329   3.790   3.592  12.072 -1.1468  0.2949 -1.0449
17946TIP3    H275330   3.726   3.519  11.956  0.3709 -0.3211 -1.5191
17947TIP3   OH275331   5.899   1.923   5.676  0.1789 -0.5658  0.2009
17947TIP3    H175332   5.850   1.860   5.730  2.4208 -1.6099  1.0766
17947TIP3    H275333   5.868   1.906   5.587 -0.7251 -1.5046  0.6789
17948TIP3   OH275334   6.504   5.476  13.846 -0.1179  0.6084  0.3474
17948TIP3    H175335   6.597   5.493  13.863  0.8518 -1.4065 -2.5668
17948TIP3    H275336   6.470   5.560  13.814  0.8510  1.1988  0.8318
17949TIP3   OH275337   6.246   2.058   1.776 -0.0941 -0.3493  0.1736
17949TIP3    H175338   6.197   2.065   1.694 -1.3593 -0.6468  0.8959
17949TIP3    H275339   6.267   1.965   1.784  4.2683  0.2940 -2.2208
17950TIP3   OH275340   6.666   3.381  16.855  0.5609 -1.0388 -0.5409
17950TIP3    H175341   6.599   3.326  16.897 -1.5563  1.9926  0.2413
17950TIP3    H275342   6.635   3.391  16.764 -0.2262  0.5191 -0.1292
17951TIP3   OH275343   5.461   0.051  16.396  0.0842  0.6451  0.4090
17951TIP3    H175344   5.385   0.107  16.378  1.2942  2.0631 -0.4081
17951TIP3    H275345   5.427  -0.016  16.456 -1.8155  1.2162  0.0280
17952TIP3   OH275346   5.707   0.379   1.174  0.6969  0.2029  0.4013
17952TIP3    H175347   5.740   0.433   1.102  1.0432 -1.7421 -0.9430
17952TIP3    H275348   5.614   0.401   1.180  0.2724 -0.8259 -1.8003
17953TIP3   OH275349   5.473   1.488  15.474  0.3913  0.1166  0.2769
17953TIP3    H175350   5.404   1.457  15.414  0.4741  0.1708  0.1553
17953TIP3    H275351   5.469   1.427  15.548  0.4000 -0.0477  0.1411
17954TIP3   OH275352   1.194   1.838  15.975 -0.2518  0.0814 -0.4407
17954TIP3    H175353   1.126   1.854  15.910 -2.0258  1.5786  1.7396
17954TIP3    H275354   1.263   1.901  15.954 -1.4362  1.5323 -0.0092
17955TIP3   OH275355   5.962   1.266   2.153  0.5708  0.4755  0.1011
17955TIP3    H175356   5.891   1.312   2.199  1.0107  1.1022  0.1561
17955TIP3    H275357   5.928   1.252   2.065 -0.3316 -0.8547  0.6468
17956TIP3   OH275358   1.409   1.360   2.200  0.2789 -0.3142 -0.3275
17956TIP3    H175359   1.487   1.345   2.147  1.2347  2.1955  0.3061
17956TIP3    H275360   1.410   1.453   2.219 -1.0072 -0.8330  2.6267
17957TIP3   OH275361   2.648   0.511   6.329  0.5754 -0.2020  0.2192
17957TIP3    H175362   2.593   0.579   6.291  1.6384  1.0164  0.8314
17957TIP3    H275363   2.645   0.528   6.423  1.3295 -0.6241  0.3239
17958TIP3   OH275364   3.547   1.327  11.396 -0.5818 -0.1054 -0.2779
17958TIP3    H175365   3.544   1.256  11.460 -1.5857 -0.6380 -0.9017
17958TIP3    H275366   3.639   1.333  11.371 -0.5076 -1.2400 -0.2805
17959TIP3   OH275367   4.833   1.954  13.179  0.0299  0.0735 -0.4365
17959TIP3    H175368   4.829   2.043  13.144  0.9526 -0.1631 -1.1746
17959TIP3    H275369   4.745   1.919  13.166 -0.7043  1.3073  1.0351
17960TIP3   OH275370   6.312   6.813   3.363 -0.1196 -0.2294  0.3666
17960TIP3    H175371   6.362   6.739   3.329 -0.8612 -0.7568  0.4212
17960TIP3    H275372   6.220   6.786   3.356 -0.6627  2.1032 -3.1463
17961TIP3   OH275373   3.247   2.869   1.788  0.2210 -0.2354 -0.3587
17961TIP3    H175374   3.188   2.795   1.778 -0.3745 -0.1222  1.9018
17961TIP3    H275375   3.205   2.923   1.856  1.9126  0.8668 -0.1733
17962TIP3   OH275376   3.717   2.891   6.054  0.4727  0.1942  0.4002
17962TIP3    H175377   3.671   2.904   6.137 -0.0268  1.5396 -0.0741
17962TIP3    H275378   3.738   2.797   6.053  1.1284  0.2871  2.3649
17963TIP3   OH275379   4.599   2.910  12.260 -0.0843  0.2210  0.5670
17963TIP3    H175380   4.654   2.968  12.209 -1.9422 -1.2185 -3.2514
17963TIP3    H275381   4.642   2.824  12.253 -1.5196 -0.4235 -0.4444
17964TIP3   OH275382   5.720   3.919  11.826  0.4645 -0.5755  0.0555
17964TIP3    H175383   5.624   3.927  11.830  0.3910 -0.4842 -1.5126
17964TIP3    H275384   5.738   3.833  11.864 -0.3067 -0.9082 -0.3148
17965TIP3   OH275385   0.434   1.806  16.517  0.5630 -0.8810  0.6079
17965TIP3    H175386   0.499   1.831  16.452 -0.2131  1.7824  0.7889
17965TIP3    H275387   0.438   1.875  16.584 -2.2034 -0.7781  0.7526
17966TIP3   OH275388   4.923   1.951  17.260  0.6527 -0.0949 -0.0503
17966TIP3    H175389   5.009   1.956  17.219  0.2083  1.2891 -0.8710
17966TIP3    H275390   4.912   1.859  17.283  1.3141 -0.7442 -2.1996
17967TIP3   OH275391   2.942   5.102   0.304 -0.0876 -0.3039 -0.1368
17967TIP3    H175392   3.007   5.103   0.234 -0.2294  0.8758 -0.2725
17967TIP3    H275393   2.916   5.194   0.313  0.3673 -0.3468  1.8620
17968TIP3   OH275394   1.596   4.556   3.169 -0.0158  0.1141  0.0780
17968TIP3    H175395   1.665   4.588   3.227 -0.2873  0.6401  0.1194
17968TIP3    H275396   1.515   4.575   3.216 -0.1994 -0.2052 -0.1134
17969TIP3   OH275397   6.704   1.757  15.821  0.9284 -0.2685  0.8449
17969TIP3    H175398   6.641   1.824  15.847  0.0174  0.3712 -2.6733
17969TIP3    H275399   6.780   1.807  15.790  0.9105 -0.8643 -0.2067
17970TIP3   OH275400   2.531   2.406   3.748 -0.5431 -0.3064  0.2110
17970TIP3    H175401   2.626   2.395   3.754 -0.3591  0.8338 -0.3323
17970TIP3    H275402   2.501   2.410   3.839  0.1354  0.8812  0.3926
17971TIP3   OH275403   3.030   5.374  13.021  0.7096 -0.0277 -0.1919
17971TIP3    H175404   2.944   5.390  13.058  0.4931  0.3515 -0.8394
17971TIP3    H275405   3.065   5.300  13.071 -0.3741 -0.7893 -0.5320
17972TIP3   OH275406   2.690   1.504   0.713 -0.2162  0.4588 -0.3115
17972TIP3    H175407   2.677   1.431   0.774  1.4255  1.3138  1.0928
17972TIP3    H275408   2.693   1.462   0.627 -0.0713 -1.0558  0.4086
17973TIP3   OH275409   6.037   6.304   3.586  0.1257 -0.3858 -0.0925
17973TIP3    H175410   5.968   6.312   3.520  1.1087 -1.0698 -1.2352
17973TIP3    H275411   6.001   6.243   3.650 -1.0999  0.7937  0.3664
17974TIP3   OH275412   1.050   0.173   0.804  0.8431 -0.1411  0.1567
17974TIP3    H175413   1.068   0.088   0.765  4.0591 -0.0380  1.3422
17974TIP3    H275414   1.084   0.237   0.741 -1.7497  0.3463 -0.8345
17975TIP3   OH275415   6.631   6.393  17.085 -0.4348 -0.3140  0.5321
17975TIP3    H175416   6.686   6.460  17.125 -0.1053 -2.0494  3.0974
17975TIP3    H275417   6.692   6.335  17.040 -0.6340  0.5081 -0.8274
17976TIP3   OH275418   5.413   5.487   5.128 -0.0829 -0.1138  0.2593
17976TIP3    H175419   5.420   5.563   5.185 -0.5443 -1.1840  1.7904
17976TIP3    H275420   5.320   5.463   5.131  0.0669 -0.7828 -0.1557
17977TIP3   OH275421   3.595   6.016   1.627  0.7338  0.0629 -0.0964
17977TIP3    H175422   3.688   6.009   1.646  0.9193  0.9705 -0.6432
17977TIP3    H275423   3.586   5.977   1.540  0.7980  1.0685 -0.5552
17978TIP3   OH275424   6.261   2.506  12.632 -0.2298  0.2819  0.3045
17978TIP3    H175425   6.305   2.539  12.710  0.7781  0.9039 -0.5095
17978TIP3    H275426   6.324   2.446  12.593 -0.6509  0.1231 -0.1261
17979TIP3   OH275427   1.398   1.375  15.511  0.0512  0.5125 -0.1916
17979TIP3    H175428   1.310   1.374  15.472  0.4961  1.9395 -1.2681
17979TIP3    H275429   1.450   1.427  15.451  0.8273  2.5590  2.1940
17980TIP3   OH275430   3.867   0.715  14.300  0.2719  0.0503 -0.0704
17980TIP3    H175431   3.941   0.776  14.296 -1.1126  1.7428 -0.4458
17980TIP3    H275432   3.837   0.719  14.391  0.8013 -0.8331  0.1454
17981TIP3   OH275433   5.114   2.314  14.280  0.1824 -0.1068  0.0400
17981TIP3    H175434   5.134   2.367  14.358  1.1753 -1.7170  0.9149
17981TIP3    H275435   5.041   2.359  14.239  1.2295  2.1429  0.5538
17982TIP3   OH275436   0.159   1.436   4.761  0.1385 -0.4215 -0.1353
17982TIP3    H175437   0.100   1.510   4.776  0.1627 -0.5484  0.5773
17982TIP3    H275438   0.212   1.463   4.685  0.7957  0.6977  0.6917
17983TIP3   OH275439   4.969   4.904   3.841  0.2784 -0.6316  0.1834
17983TIP3    H175440   4.978   4.885   3.935 -0.6436  2.1420  0.9030
17983TIP3    H275441   5.058   4.923   3.812  0.4029 -0.1600  0.8474
17984TIP3   OH275442   4.673   4.374  13.548  0.2258  0.3116 -0.5741
17984TIP3    H175443   4.744   4.330  13.595  0.9021  1.1741 -0.7693
17984TIP3    H275444   4.663   4.458  13.592 -2.6125 -0.9225  1.2550
17985TIP3   OH275445   5.417   1.079  13.768  0.0439 -0.1724 -0.4455
17985TIP3    H175446   5.485   1.012  13.776 -0.7450 -0.9857 -0.4222
17985TIP3    H275447   5.413   1.120  13.855  1.0405  0.4143 -0.6690
17986TIP3   OH275448   4.609   2.938   2.952  0.7512 -0.2844 -0.0195
17986TIP3    H175449   4.622   3.033   2.947 -0.0122 -0.1713 -0.0419
17986TIP3    H275450   4.693   2.903   2.980  0.7491  0.5039  0.9966
17987TIP3   OH275451   0.669   6.463   3.731 -0.3878  0.0172 -0.0058
17987TIP3    H175452   0.680   6.375   3.697  0.8106  0.4456 -0.7874
17987TIP3    H275453   0.751   6.508   3.708 -1.4730  1.6873 -0.7360
17988TIP3   OH275454   5.093   0.708  11.757  0.6336  0.2011  0.1690
17988TIP3    H175455   5.112   0.656  11.835  1.0895  1.0927  0.6703
17988TIP3    H275456   5.059   0.791  11.792  0.0923  0.3108 -0.6046
17989TIP3   OH275457   4.285   5.862   2.445 -0.4561  0.5329  0.4508
17989TIP3    H175458   4.331   5.808   2.509 -1.9843 -0.0034  1.1310
17989TIP3    H275459   4.263   5.802   2.374 -0.5636  0.6700  0.3666
17990TIP3   OH275460   3.198   5.086   6.838  0.0051 -0.2879  0.2587
17990TIP3    H175461   3.242   5.024   6.779  2.1352  0.8495  0.6173
17990TIP3    H275462   3.125   5.036   6.876  0.4606 -1.9401 -1.0066
17991TIP3   OH275463   5.582   5.413  16.207  0.0723 -0.6841 -0.3945
17991TIP3    H175464   5.505   5.404  16.263 -0.5502  0.7487 -1.0003
17991TIP3    H275465   5.648   5.357  16.248 -1.2482 -1.8283  0.2039
17992TIP3   OH275466   0.722   2.983   3.871 -0.4798  0.2711  0.3218
17992TIP3    H175467   0.792   3.043   3.845 -0.1766 -0.8817 -1.5381
17992TIP3    H275468   0.661   2.983   3.798  0.2626 -2.8196 -0.3589
17993TIP3   OH275469   4.165   1.296  13.330 -0.1296  0.5190  0.3158
17993TIP3    H175470   4.234   1.356  13.358 -0.4740  1.4230 -0.7216
17993TIP3    H275471   4.096   1.353  13.298 -0.1594 -0.4335 -1.3931
17994TIP3   OH275472   1.623   6.121   6.165 -0.0405  0.2259  0.3065
17994TIP3    H175473   1.543   6.160   6.199  0.5519  1.3928  0.3818
17994TIP3    H275474   1.649   6.057   6.231  0.4360  1.6094  1.4801
17995TIP3   OH275475   6.809   4.592   1.251 -0.1662 -0.2689  0.7935
17995TIP3    H175476   6.716   4.607   1.233  0.0448  1.9800  1.3850
17995TIP3    H275477   6.811   4.569   1.344 -0.1767 -0.6675  0.6929
17996TIP3   OH275478   0.613   5.080  14.489 -0.1369 -0.5493 -0.0671
17996TIP3    H175479   0.549   5.098  14.420 -0.2054 -0.7013 -0.0441
17996TIP3    H275480   0.577   5.123  14.567 -0.1987 -0.6139 -0.0601
17997TIP3   OH275481   4.347   1.528   6.185  0.5297  0.2387  0.2683
17997TIP3    H175482   4.263   1.481   6.189 -0.2407  1.3916 -1.5979
17997TIP3    H275483   4.390   1.492   6.108  0.6768  1.3695 -0.1842
17998TIP3   OH275484   1.071   1.730   4.136 -0.0558 -0.1757  0.0816
17998TIP3    H175485   1.152   1.779   4.125 -0.3059  0.1827 -0.1382
17998TIP3    H275486   1.084   1.650   4.085 -0.1872  0.2838 -0.6753
17999TIP3   OH275487   4.666   4.370   5.571 -0.3321  0.1054  0.3767
17999TIP3    H175488   4.707   4.453   5.545 -1.0834  0.0776 -0.9901
17999TIP3    H275489   4.713   4.304   5.519 -1.7680  0.0275 -0.8616
18000TIP3   OH275490   5.470   3.004  15.634 -0.6347 -0.2445  0.2950
18000TIP3    H175491   5.542   2.953  15.598 -0.1230  2.9304 -3.6248
18000TIP3    H275492   5.392   2.950  15.619  0.2839 -1.3548 -0.5936
18001TIP3   OH275493   0.359   2.216   2.114 -0.5392 -0.3078  0.1327
18001TIP3    H175494   0.454   2.207   2.103 -0.3157  1.5806  0.4130
18001TIP3    H275495   0.328   2.249   2.030 -0.7208  0.5823  0.5419
18002TIP3   OH275496   4.140   2.386  15.897 -0.3300 -0.4341  0.0844
18002TIP3    H175497   4.122   2.479  15.887  0.2704 -0.4015 -0.6857
18002TIP3    H275498   4.224   2.382  15.942 -0.0550 -0.6061 -0.4417
18003TIP3   OH275499   5.936   5.428   0.179 -0.0777 -0.0668  0.3218
18003TIP3    H175500   5.845   5.400   0.165 -0.6012  1.3105  0.9261
18003TIP3    H275501   5.929   5.510   0.227  1.4739  0.5501 -0.4663
18004TIP3   OH275502   5.267   3.870  13.618  0.2348  0.4015 -0.3079
18004TIP3    H175503   5.306   3.955  13.638 -2.0983  2.1059 -2.7289
18004TIP3    H275504   5.187   3.868  13.670  0.4250 -0.4576 -0.0384
18005TIP3   OH275505   6.809   4.696   4.779  0.1862  0.1014  0.2096
18005TIP3    H175506   6.807   4.655   4.866  1.6827  0.8879  0.6267
18005TIP3    H275507   6.858   4.634   4.725 -1.2584 -0.6687 -0.2347
18006TIP3   OH275508   0.800   6.633   2.257 -0.0319 -0.5962  0.2180
18006TIP3    H175509   0.722   6.655   2.205  1.4139 -0.5126 -1.9917
18006TIP3    H275510   0.776   6.552   2.302 -1.8980  0.1838  0.6749
18007TIP3   OH275511   6.780   4.504   1.521  0.0830 -0.5928  0.0225
18007TIP3    H175512   6.832   4.562   1.576  0.9457 -0.8301 -0.5352
18007TIP3    H275513   6.832   4.424   1.514  0.2396 -0.3780 -1.5552
18008TIP3   OH275514   1.201   6.400   4.594  0.1458  0.4904  0.0361
18008TIP3    H175515   1.223   6.493   4.603  0.6609  0.3686  0.0434
18008TIP3    H275516   1.273   6.362   4.545  0.6333 -0.1785  1.2412
18009TIP3   OH275517   4.177   4.493  13.814 -0.4122 -0.5719 -0.1578
18009TIP3    H175518   4.236   4.540  13.755 -0.9614  0.3347  0.0025
18009TIP3    H275519   4.200   4.523  13.901  0.6355 -2.1764  0.1421
18010TIP3   OH275520   3.976   0.199   0.895  0.4057 -0.4304  0.0439
18010TIP3    H175521   3.888   0.228   0.871  1.8251  2.7280 -1.8009
18010TIP3    H275522   3.986   0.226   0.986 -0.8499 -1.6563  0.5523
18011TIP3   OH275523   0.848   4.040   0.817 -0.1542  0.1279 -0.0248
18011TIP3    H175524   0.891   4.093   0.883  0.4150 -0.9346  0.4789
18011TIP3    H275525   0.812   3.965   0.865 -0.1228 -0.4287 -0.8410
18012TIP3   OH275526   5.978   4.112   1.614 -0.3857 -0.6716 -0.3899
18012TIP3    H175527   5.916   4.179   1.644  2.4851  2.1989 -0.6841
18012TIP3    H275528   6.015   4.076   1.695 -0.2963 -0.3742 -0.3012
18013TIP3   OH275529   2.463   6.114  11.477 -0.5180  0.1598 -0.0706
18013TIP3    H175530   2.511   6.041  11.515  1.0530  0.6467 -1.0794
18013TIP3    H275531   2.496   6.121  11.388 -0.6103  2.1218  0.0252
18014TIP3   OH275532   0.146   6.449   3.652 -0.3224  0.1118  0.3040
18014TIP3    H175533   0.079   6.474   3.715 -0.5497 -0.1938  0.1831
18014TIP3    H275534   0.229   6.468   3.697 -0.4721  2.0626 -0.1676
18015TIP3   OH275535   0.671   2.455  13.590  0.1126 -0.6947 -0.3504
18015TIP3    H175536   0.608   2.419  13.528 -0.9972  0.0283  0.3369
18015TIP3    H275537   0.648   2.415  13.674  0.2824 -0.0888 -0.0102
18016TIP3   OH275538   6.329   4.585  14.251  0.2049 -0.0631  0.2712
18016TIP3    H175539   6.247   4.549  14.217  0.7263 -0.9462 -0.0718
18016TIP3    H275540   6.303   4.638  14.327 -0.6483 -0.5432  0.3165
18017TIP3   OH275541   2.054   0.831   0.591 -0.0512  0.0643 -0.0712
18017TIP3    H175542   2.022   0.898   0.651 -1.4132 -1.3962  0.8508
18017TIP3    H275543   2.145   0.817   0.617  0.0369  1.0517  0.1737
18018TIP3   OH275544   5.494   5.143  13.821 -0.1165  0.4207 -0.3754
18018TIP3    H175545   5.580   5.104  13.842 -0.1605  0.1947 -0.6116
18018TIP3    H275546   5.496   5.228  13.864 -0.8630 -0.7190  2.0187
18019TIP3   OH275547   5.599   1.800   3.696  0.1668  0.0672 -0.5063
18019TIP3    H175548   5.590   1.761   3.609 -0.5992  0.2931 -0.5283
18019TIP3    H275549   5.547   1.881   3.692 -0.2398 -0.1484  0.2948
18020TIP3   OH275550   5.436   5.704  13.567  0.7292 -0.5382  0.1287
18020TIP3    H175551   5.388   5.786  13.566  0.2853 -0.7583 -3.2760
18020TIP3    H275552   5.528   5.729  13.575  0.4501  0.1991  0.9805
18021TIP3   OH275553   2.539   4.102  17.102  0.3532  0.0533  0.2536
18021TIP3    H175554   2.465   4.044  17.086  0.0531  0.3723  0.4687
18021TIP3    H275555   2.529   4.173  17.038 -0.4537  0.9604  1.3505
18022TIP3   OH275556   2.434   0.669   4.195  0.2401  0.3138  0.3004
18022TIP3    H175557   2.459   0.743   4.139  0.6575  0.9330  1.2882
18022TIP3    H275558   2.418   0.597   4.134  1.4923  0.7411 -0.5607
18023TIP3   OH275559   3.872   5.241  17.125  0.3153  0.3390 -0.1939
18023TIP3    H175560   3.961   5.229  17.158  0.1851 -1.6002 -0.4637
18023TIP3    H275561   3.829   5.296  17.190  0.8711 -1.1537  1.4627
18024TIP3   OH275562   2.196   3.755  12.697 -0.3573 -0.1228 -0.0456
18024TIP3    H175563   2.268   3.709  12.739 -0.4200  1.1714  1.5379
18024TIP3    H275564   2.226   3.771  12.608  1.2710  0.3029  0.5643
18025TIP3   OH275565   4.745   5.149   6.478 -0.0678 -0.1516 -0.7020
18025TIP3    H175566   4.681   5.085   6.509  1.8086 -1.8039 -0.1727
18025TIP3    H275567   4.693   5.227   6.457 -2.2414 -1.4691 -0.3062
18026TIP3   OH275568   6.246   4.649  12.145 -0.3414 -0.3944  1.0779
18026TIP3    H175569   6.157   4.664  12.114 -0.6780  0.8767  2.6591
18026TIP3    H275570   6.243   4.665  12.239  1.8996  1.2803  0.9110
18027TIP3   OH275571   4.850   4.717  11.994 -0.3212  0.3004  0.1263
18027TIP3    H175572   4.887   4.630  12.010  0.0469  0.7277  1.7429
18027TIP3    H275573   4.891   4.747  11.913  1.4446 -0.0314  0.8779
18028TIP3   OH275574   0.189   0.001  11.134 -0.1877 -0.1644  0.5310
18028TIP3    H175575   0.195   0.069  11.066  0.4006 -0.4914  0.2568
18028TIP3    H275576   0.236  -0.073  11.098 -0.5881 -0.6277  0.9559
18029TIP3   OH275577   4.100   4.141   2.028  0.4469  0.4246  0.1072
18029TIP3    H175578   4.012   4.126   2.061 -0.2702  0.6085 -1.6758
18029TIP3    H275579   4.109   4.236   2.025  0.7700  0.4057  0.4305
18030TIP3   OH275580   6.256   0.101   6.582 -0.0350  0.6481 -0.1682
18030TIP3    H175581   6.326   0.158   6.612 -1.6153  1.8684  1.3257
18030TIP3    H275582   6.218   0.066   6.662  0.0024 -1.4026 -1.0269
18031TIP3   OH275583   4.741   1.984   3.880  0.0308 -0.0842 -0.4051
18031TIP3    H175584   4.654   2.001   3.916  0.7317  1.4966  0.6290
18031TIP3    H275585   4.799   2.040   3.932  1.9257 -2.5902  0.2347
18032TIP3   OH275586   6.662   4.418   0.190 -0.1145 -0.6814  0.3112
18032TIP3    H175587   6.743   4.466   0.207 -0.8468  0.7915 -0.2114
18032TIP3    H275588   6.690   4.337   0.147  1.0232  0.1953 -0.6229
18033TIP3   OH275589   3.832   1.123   2.990 -0.8841 -0.6753 -0.3259
18033TIP3    H175590   3.877   1.070   3.057 -0.9406 -0.2318  0.0655
18033TIP3    H275591   3.903   1.165   2.942 -0.8520 -0.6667 -0.2717
18034TIP3   OH275592   3.731   3.721   2.694  0.1522  0.5452  0.6514
18034TIP3    H175593   3.712   3.631   2.719  0.4461 -0.3467 -2.2000
18034TIP3    H275594   3.812   3.742   2.740  1.0696 -1.2912 -0.0559
18035TIP3   OH275595   6.537   0.761  11.287  0.0000  0.3338  0.9034
18035TIP3    H175596   6.490   0.724  11.213  3.1092  0.5762 -1.2536
18035TIP3    H275597   6.513   0.854  11.287  0.7493  0.5388 -0.4338
18036TIP3   OH275598   4.753   0.631   2.211 -0.3547  0.2992 -0.4275
18036TIP3    H175599   4.838   0.676   2.219 -0.2814  0.1339 -0.2739
18036TIP3    H275600   4.694   0.698   2.177 -0.9783  1.3786  2.6521
18037TIP3   OH275601   0.068   5.066   3.999  0.8523 -0.7833  0.1389
18037TIP3    H175602   0.085   5.063   4.093 -0.6066  1.7761  0.5302
18037TIP3    H275603  -0.024   5.088   3.992  0.6562 -2.1133 -1.9202
18038TIP3   OH275604   5.615   1.755   4.772  0.0999 -0.2591 -0.1493
18038TIP3    H175605   5.641   1.791   4.687  0.3242  0.8070  0.3580
18038TIP3    H275606   5.534   1.801   4.794  1.0724  0.8934  1.1029
18039TIP3   OH275607   4.633   6.785  11.715 -0.5558 -0.1558  0.5014
18039TIP3    H175608   4.589   6.768  11.632  0.5313  2.5710 -0.7066
18039TIP3    H275609   4.624   6.704  11.764  0.6051 -2.6167 -3.1116
18040TIP3   OH275610   1.860   5.923  16.628 -0.5045  0.0850 -0.1047
18040TIP3    H175611   1.954   5.940  16.628 -0.3699 -0.3097  2.7966
18040TIP3    H275612   1.826   5.970  16.552  1.9245  0.9101 -0.6991
18041TIP3   OH275613   1.334   4.865   5.893  0.1092 -0.6657  0.1553
18041TIP3    H175614   1.302   4.775   5.901 -0.5054 -0.6029 -1.3707
18041TIP3    H275615   1.257   4.919   5.908  0.1829 -0.4252 -0.3335
18042TIP3   OH275616   2.756   2.972   2.190 -0.3164 -0.0082  0.3888
18042TIP3    H175617   2.689   2.930   2.244 -0.2517 -0.6107  0.0003
18042TIP3    H275618   2.711   3.048   2.151 -1.6500 -2.0506 -2.2083
18043TIP3   OH275619   0.520   4.179  15.776 -0.2197 -0.0491 -0.0711
18043TIP3    H175620   0.502   4.129  15.856 -0.2721  1.2301  0.7244
18043TIP3    H275621   0.541   4.267  15.807 -2.2199  0.9943 -1.5663
18044TIP3   OH275622   1.060   3.267  14.702  0.5205 -0.0452 -0.3005
18044TIP3    H175623   1.026   3.355  14.713  0.4896 -0.0353 -0.4806
18044TIP3    H275624   1.155   3.278  14.695  0.5588 -0.0681  0.1490
18045TIP3   OH275625   1.430   3.792  11.274 -0.4704  0.2366 -1.0943
18045TIP3    H175626   1.469   3.748  11.199 -1.3235  1.3567 -2.1926
18045TIP3    H275627   1.400   3.876  11.241  0.7978  1.5429  0.9105
18046TIP3   OH275628   2.777   5.594   6.377  0.0371 -0.3115  0.1845
18046TIP3    H175629   2.759   5.504   6.407 -0.6294  0.4552  2.1600
18046TIP3    H275630   2.771   5.647   6.456  1.0349  1.4067 -0.8757
18047TIP3   OH275631   6.605   0.414   0.369 -0.3064 -0.1711 -0.3282
18047TIP3    H175632   6.545   0.475   0.411  1.0432  1.1816 -0.3098
18047TIP3    H275633   6.680   0.410   0.428  1.7054  1.9149 -2.6300
18048TIP3   OH275634   1.683   1.331  17.218  0.9732 -0.3574  0.1853
18048TIP3    H175635   1.673   1.250  17.268  1.3362 -0.5035  0.0217
18048TIP3    H275636   1.714   1.302  17.132  2.5158  0.0611  0.5877
18049TIP3   OH275637   5.804   2.776   2.631 -0.6556 -0.4689  0.5001
18049TIP3    H175638   5.860   2.826   2.572 -0.1675  0.1749  1.4924
18049TIP3    H275639   5.717   2.781   2.592 -0.5314  0.7978  0.3595
18050TIP3   OH275640   1.912   4.753   6.237  0.2605  0.2525 -0.3322
18050TIP3    H175641   1.911   4.688   6.307  0.0299  1.3309  0.6999
18050TIP3    H275642   1.875   4.708   6.162 -1.0316 -0.4519  0.6976
18051TIP3   OH275643   2.827   0.614  14.258  0.2285  0.5520  0.3455
18051TIP3    H175644   2.775   0.685  14.296 -0.7251  0.1662 -0.2343
18051TIP3    H275645   2.768   0.539  14.257  1.3792 -0.4010  1.4126
18052TIP3   OH275646   6.162   2.882   0.371 -0.6202  0.2308 -0.2609
18052TIP3    H175647   6.186   2.791   0.385 -0.2885  0.3076 -0.3192
18052TIP3    H275648   6.203   2.906   0.288 -0.8584  0.3793 -0.3378
18053TIP3   OH275649   0.500   4.952   5.975 -0.1213 -0.0281  0.1207
18053TIP3    H175650   0.471   5.043   5.980  0.1663  0.0885 -0.3527
18053TIP3    H275651   0.420   4.903   5.955 -0.2579  0.1299  0.2702
18054TIP3   OH275652   6.716   6.799  13.541 -0.3379  0.7531 -0.2615
18054TIP3    H175653   6.722   6.819  13.447 -2.2012  2.7649  0.0040
18054TIP3    H275654   6.799   6.830  13.577  0.1411  0.5342 -1.1691
18055TIP3   OH275655   5.303   2.803  14.162 -0.7582  0.1569  0.2464
18055TIP3    H175656   5.317   2.879  14.107 -1.4022 -1.0290 -1.6176
18055TIP3    H275657   5.260   2.739  14.104  0.1092 -1.7491  1.6518
18056TIP3   OH275658   5.850   0.189   6.334 -0.2205  0.0344  0.0761
18056TIP3    H175659   5.769   0.141   6.353 -1.5471  1.7207 -1.1195
18056TIP3    H275660   5.828   0.280   6.351  0.9521  0.6902 -1.7628
18057TIP3   OH275661   0.802   3.395  12.184 -0.5695 -0.5520  0.2631
18057TIP3    H175662   0.891   3.407  12.150  0.0158 -0.6142  1.7279
18057TIP3    H275663   0.745   3.421  12.112  0.6329  2.5292  0.3501
18058TIP3   OH275664   1.693   0.161  11.472 -0.1891  0.2285  0.1514
18058TIP3    H175665   1.614   0.210  11.493  0.5348  1.9625 -1.0741
18058TIP3    H275666   1.706   0.175  11.378  0.6544 -1.4129  0.0034
18059TIP3   OH275667   3.695   1.045  15.724  0.3014  0.1596  0.0991
18059TIP3    H175668   3.763   1.100  15.685  1.9736 -0.7832  1.6340
18059TIP3    H275669   3.648   1.104  15.784 -1.8344  1.4339 -2.6542
18060TIP3   OH275670   2.558   4.915  17.160 -0.3937  0.5854  0.2111
18060TIP3    H175671   2.568   4.844  17.096  1.9797 -0.9417  2.1510
18060TIP3    H275672   2.604   4.989  17.121 -2.4447  0.9553 -1.6056
18061TIP3   OH275673   5.984   0.975   5.689  0.4119 -0.0779  0.0337
18061TIP3    H175674   5.973   0.951   5.781 -0.6182 -0.5440 -0.2080
18061TIP3    H275675   6.013   1.066   5.691 -0.0142  0.0405  0.8029
18062TIP3   OH275676   1.482   0.977  13.615 -0.0891 -0.2170 -0.0559
18062TIP3    H175677   1.575   0.995  13.601 -0.0596 -0.8145 -0.6254
18062TIP3    H275678   1.441   0.996  13.531 -0.6428  1.0867  0.5000
18063TIP3   OH275679   1.540   5.952   5.522 -0.4365  0.1891  0.3533
18063TIP3    H175680   1.485   5.926   5.596  1.1617 -0.7762  1.2259
18063TIP3    H275681   1.498   5.914   5.446 -0.9695 -0.5485  1.0156
18064TIP3   OH275682   3.225   2.760   5.193 -0.1108  0.0596 -0.3850
18064TIP3    H175683   3.194   2.830   5.250  0.2511 -0.8004  0.8827
18064TIP3    H275684   3.207   2.791   5.104 -1.4450  1.0482  0.2253
18065TIP3   OH275685   0.043   0.776   2.750  0.4719  0.0881  0.5079
18065TIP3    H175686   0.094   0.845   2.707 -0.8695  0.3159 -0.7635
18065TIP3    H275687   0.086   0.695   2.724 -0.5256  0.2020 -1.5820
18066TIP3   OH275688   0.576   0.806   5.137  0.3185 -0.1996  0.3495
18066TIP3    H175689   0.657   0.856   5.139  0.6907 -0.6135 -2.6079
18066TIP3    H275690   0.514   0.857   5.190  1.3470  2.1904 -0.7226
18067TIP3   OH275691   1.352   2.782   2.579 -0.4135  0.1068 -0.0586
18067TIP3    H175692   1.278   2.843   2.569 -1.9542 -1.9245 -1.3457
18067TIP3    H275693   1.404   2.794   2.500  0.4570  1.2515  0.6667
18068TIP3   OH275694   1.420   2.307  11.221  0.0527 -0.1300 -0.3600
18068TIP3    H175695   1.413   2.240  11.153 -3.9613 -0.0741 -0.1466
18068TIP3    H275696   1.434   2.388  11.172 -2.1660 -0.1795 -1.1414
18069TIP3   OH275697   1.736   2.539  15.516  0.0102  0.6133  0.9100
18069TIP3    H175698   1.796   2.600  15.559 -0.3017  0.8254  1.0469
18069TIP3    H275699   1.793   2.481  15.466  0.1995  2.2072 -0.7858
18070TIP3   OH275700   1.217   4.871   0.081  0.1034 -0.2152 -0.0200
18070TIP3    H175701   1.162   4.942   0.114 -0.6127 -1.3063  1.1504
18070TIP3    H275702   1.160   4.820   0.024  1.1602  1.2906 -2.5354
18071TIP3   OH275703   5.004   6.230  14.253 -0.1859  0.3187 -0.3015
18071TIP3    H175704   5.058   6.305  14.276 -1.8862  1.6105 -0.4699
18071TIP3    H275705   5.057   6.154  14.280  2.1721  1.4834 -1.4648
18072TIP3   OH275706   2.497   1.597   1.058 -0.2375  0.9324  0.5499
18072TIP3    H175707   2.473   1.562   1.144 -1.2601  0.5233  0.1040
18072TIP3    H275708   2.542   1.680   1.078 -1.2665  1.2944  1.4491
18073TIP3   OH275709   4.088   5.501   1.649  0.0454  0.1579 -1.0480
18073TIP3    H175710   4.046   5.506   1.563  2.1678  0.3061 -2.1067
18073TIP3    H275711   4.080   5.590   1.684  0.7622  0.5479 -1.8653
18074TIP3   OH275712   0.791   4.896   4.007 -0.6316  0.7534  0.4037
18074TIP3    H175713   0.728   4.865   4.072 -1.2170  3.6851  1.2731
18074TIP3    H275714   0.740   4.950   3.947  0.2998 -0.2267 -1.3624
18075TIP3   OH275715   0.768   6.435  11.533  0.5123 -0.4555  0.6808
18075TIP3    H175716   0.765   6.354  11.584 -0.6867  0.3582  1.9444
18075TIP3    H275717   0.810   6.498  11.591 -0.4189  0.3538  0.4856
18076TIP3   OH275718   2.900   2.338  11.045 -0.1033  0.4750  0.4638
18076TIP3    H175719   2.960   2.301  11.110  0.1108 -0.9979 -0.5509
18076TIP3    H275720   2.956   2.362  10.971 -0.4099  1.7097  0.6106
18077TIP3   OH275721   6.642   3.781  15.624  0.9119 -0.0596 -0.0238
18077TIP3    H175722   6.673   3.785  15.714  0.7455 -0.5140  0.0548
18077TIP3    H275723   6.636   3.873  15.597  0.7083  0.0917  0.5150
18078TIP3   OH275724   1.098   2.155  14.700 -0.0118  0.0013 -0.1442
18078TIP3    H175725   1.113   2.114  14.615 -1.0230 -1.1936  0.2261
18078TIP3    H275726   1.128   2.245  14.690 -0.7988  0.0666 -1.9931
18079TIP3   OH275727   1.857   2.807  15.310  0.2275  0.2162 -0.2177
18079TIP3    H175728   1.764   2.830  15.302 -0.1543 -1.0386  0.4201
18079TIP3    H275729   1.861   2.714  15.286  1.1928  0.0621  0.5020
18080TIP3   OH275730   0.292   1.209   5.151 -0.2503 -0.1826  0.6388
18080TIP3    H175731   0.335   1.125   5.168 -1.1402 -0.4771  1.4910
18080TIP3    H275732   0.200   1.193   5.173 -0.4193  1.0323  0.8216
18081TIP3   OH275733   3.329   5.535   3.057  0.2462 -0.1739 -0.7111
18081TIP3    H175734   3.371   5.524   3.142 -0.4960 -0.5295 -0.3862
18081TIP3    H275735   3.249   5.483   3.063  1.0207 -1.6270 -2.2143
18082TIP3   OH275736   4.203   2.052   1.053 -0.6389 -0.0292 -0.1446
18082TIP3    H175737   4.225   2.021   1.141 -0.0494 -1.7208 -0.8689
18082TIP3    H275738   4.138   1.989   1.021  0.2048 -0.2277 -1.4630
18083TIP3   OH275739   4.682   5.886  13.126 -0.7952 -0.3749  0.3334
18083TIP3    H175740   4.746   5.911  13.192 -1.5571  0.2148  0.8580
18083TIP3    H275741   4.732   5.880  13.044  0.1405 -1.0425  0.9462
18084TIP3   OH275742   4.066   5.417  15.668 -0.1863 -0.2907  0.1925
18084TIP3    H175743   4.134   5.445  15.607  0.1320 -0.1697  0.6049
18084TIP3    H275744   4.091   5.328  15.693 -0.6738 -0.5843 -0.3674
18085TIP3   OH275745   4.580   5.015   5.350 -0.1171  0.0156 -0.2645
18085TIP3    H175746   4.492   5.017   5.311  0.0865 -0.0053 -0.7200
18085TIP3    H275747   4.627   4.950   5.298 -0.0367 -0.4737  0.4105
18086TIP3   OH275748   2.400   0.847   0.962  0.0652 -0.1016 -0.0788
18086TIP3    H175749   2.450   0.768   0.982 -0.1778  0.5060  3.1612
18086TIP3    H275750   2.308   0.818   0.963  0.1108 -0.3749 -1.9592
18087TIP3   OH275751   6.035   4.489  11.153 -0.2577  0.2958  0.1111
18087TIP3    H175752   6.122   4.528  11.156 -1.2099  2.4063  1.3162
18087TIP3    H275753   6.036   4.435  11.074  1.4019  2.0733 -1.1486
18088TIP3   OH275754   5.841   5.687   5.480 -0.4393  0.1150 -0.2852
18088TIP3    H175755   5.857   5.763   5.535 -0.1558  1.1945 -1.8270
18088TIP3    H275756   5.909   5.624   5.504  0.6643  1.2017 -0.5314
18089TIP3   OH275757   1.330   0.237   2.572 -0.1095  0.2862 -0.2994
18089TIP3    H175758   1.248   0.229   2.523  0.2099  0.9961 -0.9524
18089TIP3    H275759   1.346   0.149   2.606 -0.1718 -0.2912 -1.7173
18090TIP3   OH275760   0.460   2.967  13.514 -0.6115 -0.6305 -0.3552
18090TIP3    H175761   0.402   3.043  13.514  0.4277  0.2012  1.8160
18090TIP3    H275762   0.459   2.936  13.605  1.1846 -1.4834 -0.6035
18091TIP3   OH275763   0.518   2.397  11.960 -0.4231 -0.3209  0.1477
18091TIP3    H175764   0.424   2.404  11.943 -0.1228 -0.6635 -1.7916
18091TIP3    H275765   0.534   2.303  11.972 -0.3813 -0.2387  0.7106
18092TIP3   OH275766   5.973   1.367  13.642 -0.3426 -0.7021  0.1557
18092TIP3    H175767   6.042   1.314  13.603 -1.9218 -1.8276 -1.2187
18092TIP3    H275768   6.014   1.451  13.660  1.2057 -1.1390 -1.2080
18093TIP3   OH275769   4.795   6.201  16.575 -0.4892 -0.1694  0.3767
18093TIP3    H175770   4.783   6.128  16.514 -0.7845  0.8599 -0.8274
18093TIP3    H275771   4.851   6.262  16.528 -0.2017  0.3634  1.3953
18094TIP3   OH275772   2.101   3.417   1.992  0.5102 -0.2683 -0.2886
18094TIP3    H175773   2.189   3.416   1.954  0.9943 -0.5586  0.8277
18094TIP3    H275774   2.044   3.387   1.921  1.6649 -3.0113 -0.1320
18095TIP3   OH275775   0.231   5.818   4.442  0.1078  0.2392  0.2088
18095TIP3    H175776   0.183   5.792   4.364  3.2582 -1.3076 -1.2979
18095TIP3    H275777   0.293   5.884   4.411  0.6535  0.3936  1.5987
18096TIP3   OH275778   2.703   4.637   2.925  0.0822  0.4413  0.5911
18096TIP3    H175779   2.654   4.576   2.869  1.5255  1.4114 -1.8062
18096TIP3    H275780   2.639   4.704   2.949  0.0944  1.4939 -2.1864
18097TIP3   OH275781   0.998   2.063  12.935 -0.2481  0.2448  0.0412
18097TIP3    H175782   0.926   2.002  12.921  0.1519 -0.3345  0.5121
18097TIP3    H275783   1.070   2.027  12.884  0.2281 -0.1034  0.9611
18098TIP3   OH275784   1.944   6.120   0.760  0.3972 -0.5463 -0.5275
18098TIP3    H175785   1.894   6.194   0.728  1.0588  0.2683  0.2952
18098TIP3    H275786   2.000   6.156   0.829  1.1945 -1.6775 -0.5552
18099TIP3   OH275787   1.541   5.360   5.329  0.4703  0.2471 -0.0573
18099TIP3    H175788   1.599   5.314   5.268 -0.6006 -0.1682 -0.7630
18099TIP3    H275789   1.453   5.334   5.304  0.0034  0.2155  1.5566
18100TIP3   OH275790   4.439   2.841   1.660 -0.5974  0.1670  0.3834
18100TIP3    H175791   4.518   2.846   1.714  0.2180  0.4241 -0.8201
18100TIP3    H275792   4.458   2.774   1.595 -1.4585  0.0805  0.2158
18101TIP3   OH275793   4.990   4.864   4.777 -0.0663 -0.8099 -0.4785
18101TIP3    H175794   4.930   4.937   4.771 -0.9433 -1.5456 -0.7206
18101TIP3    H275795   5.065   4.898   4.826 -1.5877 -0.5090  1.6565
18102TIP3   OH275796   2.403   5.898   1.746 -0.2727 -0.2248  0.7336
18102TIP3    H175797   2.371   5.986   1.765  1.6515  0.3506  1.4670
18102TIP3    H275798   2.424   5.862   1.832 -1.0311 -1.3977  0.4310
18103TIP3   OH275799   1.909   2.234   5.503 -0.0874 -0.4161  0.4627
18103TIP3    H175800   1.958   2.222   5.585  0.4003 -0.0139  0.2314
18103TIP3    H275801   1.834   2.175   5.511  0.2691 -0.8020  0.9552
18104TIP3   OH275802   2.038   6.744  14.923  0.0958 -0.1032 -0.0054
18104TIP3    H175803   2.133   6.750  14.932  0.6136 -0.9485 -3.7285
18104TIP3    H275804   2.023   6.657  14.886 -2.0840  0.2421 -0.0011
18105TIP3   OH275805   4.713   5.440  11.482  0.4016 -0.4036 -0.0398
18105TIP3    H175806   4.713   5.495  11.404  0.1603 -1.3092 -0.6820
18105TIP3    H275807   4.701   5.501  11.554  0.3838  0.4127 -0.7292
18106TIP3   OH275808   6.452   4.747   2.320  0.5652  0.1529  0.1597
18106TIP3    H175809   6.386   4.695   2.274 -0.2868  0.5800  0.8818
18106TIP3    H275810   6.510   4.780   2.251 -0.6535  0.7231 -0.6078
18107TIP3   OH275811   4.786   2.518  14.811  0.3650  0.2191 -0.0431
18107TIP3    H175812   4.840   2.443  14.835  1.6764  0.6852 -1.4845
18107TIP3    H275813   4.828   2.592  14.855  0.1401  0.3813 -0.1034
18108TIP3   OH275814   3.161   0.135  13.564  0.0726  0.2148  0.0822
18108TIP3    H175815   3.178   0.066  13.627  0.1376 -0.2748 -0.4692
18108TIP3    H275816   3.066   0.150  13.570  0.0667  0.1126  0.2427
18109TIP3   OH275817   2.661   2.567   1.975 -0.4518 -0.0949  0.6958
18109TIP3    H175818   2.628   2.477   1.982  1.5841 -0.7975  1.5546
18109TIP3    H275819   2.597   2.619   2.023 -0.2710 -1.4664  2.4763
18110TIP3   OH275820   1.834   5.273  11.356 -0.5588  0.0555  0.4226
18110TIP3    H175821   1.785   5.192  11.364 -0.0117 -0.1290  2.1628
18110TIP3    H275822   1.926   5.247  11.363 -0.4191  0.9245  2.2321
18111TIP3   OH275823   5.870   6.000   4.468 -0.5375 -0.1178 -0.1539
18111TIP3    H175824   5.807   6.071   4.459  1.7523  2.0773  0.7070
18111TIP3    H275825   5.845   5.956   4.550 -1.1539  0.5274  0.0054
18112TIP3   OH275826   0.302   6.064   6.016  0.2424 -0.3469  0.0494
18112TIP3    H175827   0.288   5.971   6.035  0.7769 -0.5762 -0.6679
18112TIP3    H275828   0.371   6.065   5.950 -1.0773  0.4622 -1.3587
18113TIP3   OH275829   1.719   3.857   1.725  0.5295  0.5521 -0.0263
18113TIP3    H175830   1.625   3.848   1.705  0.5533 -1.3420  0.6301
18113TIP3    H275831   1.723   3.853   1.820  1.6139 -3.3946 -0.1479
18114TIP3   OH275832   2.361   1.431   1.829 -0.1304 -0.7006 -0.6704
18114TIP3    H175833   2.326   1.414   1.917 -0.3111  2.2860 -0.1265
18114TIP3    H275834   2.428   1.363   1.817 -0.9834 -1.9312  1.2606
18115TIP3   OH275835   0.963   5.885   6.003  0.4702  0.5897  0.3675
18115TIP3    H175836   0.950   5.860   6.094 -3.0905  1.3261  0.1488
18115TIP3    H275837   0.888   5.849   5.957  0.9534  2.2678 -1.8481
18116TIP3   OH275838   2.310   5.882   4.818 -0.5630  0.3365  0.3156
18116TIP3    H175839   2.232   5.936   4.807 -0.5157  0.3006 -0.1830
18116TIP3    H275840   2.371   5.937   4.868  0.2167  1.4676 -1.8193
18117TIP3   OH275841   2.662   5.182   2.278 -0.3799  0.2271  0.2209
18117TIP3    H175842   2.687   5.231   2.356 -2.0928 -0.0388  0.9580
18117TIP3    H275843   2.709   5.099   2.286  0.9669  0.9695 -0.0164
18118TIP3   OH275844   2.494   6.293   3.534 -0.7841 -0.1796 -0.0983
18118TIP3    H175845   2.563   6.360   3.532 -2.6496  1.7993  0.0858
18118TIP3    H275846   2.414   6.341   3.514 -2.0520 -2.5496 -0.8885
18119TIP3   OH275847   0.729   1.283   2.238  0.0721  0.0045 -0.1564
18119TIP3    H175848   0.793   1.260   2.305  0.0662 -3.0377 -1.1523
18119TIP3    H275849   0.649   1.305   2.288  0.3227 -1.3555  0.8591
18120TIP3   OH275850   3.894   1.607   4.107 -0.5324 -0.5089  0.7195
18120TIP3    H175851   3.961   1.674   4.091  0.0603 -0.6940  2.2872
18120TIP3    H275852   3.866   1.579   4.020  0.4189  0.5930  0.0509
18121TIP3   OH275853   3.174   2.840   0.151  0.2333 -0.4508 -0.2770
18121TIP3    H175854   3.096   2.864   0.200  1.0260  0.3739  0.6064
18121TIP3    H275855   3.142   2.815   0.064 -0.8585  1.4177 -0.4307
18122TIP3   OH275856   1.908   0.649   4.275  0.3145 -0.5234 -0.2568
18122TIP3    H175857   1.998   0.616   4.271  0.3096 -0.4554 -0.9462
18122TIP3    H275858   1.862   0.584   4.328  1.2913  0.6808  2.1305
18123TIP3   OH275859   4.063   6.311   4.145 -0.5116 -0.4332  0.2315
18123TIP3    H175860   4.027   6.272   4.065  0.1610 -1.3171  0.3404
18123TIP3    H275861   4.138   6.255   4.166  0.9643  1.4016 -0.0371
18124TIP3   OH275862   1.894   6.114  14.489  0.1898 -0.4104  0.1243
18124TIP3    H175863   1.865   6.025  14.507 -0.1484 -0.1932  0.6687
18124TIP3    H275864   1.986   6.105  14.465  0.7605 -0.6774  2.3526
18125TIP3   OH275865   0.018   0.559   3.444 -0.2233 -0.2055  0.4325
18125TIP3    H175866  -0.052   0.495   3.458  0.0593 -0.6883 -0.3977
18125TIP3    H275867   0.019   0.575   3.350 -0.2716  1.0012  0.6206
18126TIP3   OH275868   2.191   0.858  13.487  0.3308  0.9414  0.0625
18126TIP3    H175869   2.115   0.802  13.500 -0.0588  1.2775 -0.7245
18126TIP3    H275870   2.155   0.942  13.459  1.0314  0.7664 -1.4573
18127TIP3   OH275871   2.969   0.872  15.597  0.2540  0.0883  0.4485
18127TIP3    H175872   2.953   0.947  15.655 -1.3490  1.2875 -1.4973
18127TIP3    H275873   3.002   0.910  15.516  1.4048 -1.4912  0.1531
18128TIP3   OH275874   0.477   2.957   3.661  0.5266  0.2950  0.0817
18128TIP3    H175875   0.387   2.950   3.630  0.2504 -2.4765  1.3115
18128TIP3    H275876   0.506   3.044   3.635 -2.3030  0.9750 -0.8691
18129TIP3   OH275877   1.332   0.287  12.404  0.3099  0.3961  0.0766
18129TIP3    H175878   1.246   0.250  12.425  1.1219 -1.2282  0.6413
18129TIP3    H275879   1.369   0.225  12.341  0.3438  2.0672 -1.6177
18130TIP3   OH275880   6.317   1.101  12.109 -0.2608 -0.4912 -0.0446
18130TIP3    H175881   6.280   1.025  12.153  1.6976 -0.3040  2.0204
18130TIP3    H275882   6.412   1.090  12.117  0.0636  1.8306 -0.2763
18131TIP3   OH275883   3.856   4.244  16.331 -0.1353 -0.5152  0.6022
18131TIP3    H175884   3.839   4.201  16.415 -1.2412 -1.3425 -0.0302
18131TIP3    H275885   3.794   4.318  16.329  2.9116  2.2176  2.4413
18132TIP3   OH275886   1.381   0.726  14.642 -0.0194 -0.1510 -0.3811
18132TIP3    H175887   1.407   0.812  14.610  2.6005 -0.4675  0.7282
18132TIP3    H275888   1.391   0.668  14.566  3.4296 -0.3959  0.1943
18133TIP3   OH275889   2.569   0.430  12.084 -0.1946 -0.2954  0.4237
18133TIP3    H175890   2.520   0.438  12.165 -1.3112 -1.5592 -0.1154
18133TIP3    H275891   2.505   0.400  12.019  0.9945 -0.7135 -0.5886
18134TIP3   OH275892   1.711   6.578  14.969 -0.5092 -0.5099 -0.0988
18134TIP3    H175893   1.743   6.564  14.879 -2.1846 -2.7746 -0.3753
18134TIP3    H275894   1.776   6.535  15.024  0.2509  0.4305 -0.2508
18135TIP3   OH275895   1.899   0.848   3.602 -0.5931 -0.1198 -0.4046
18135TIP3    H175896   1.900   0.864   3.696 -0.8866 -1.5402 -0.1415
18135TIP3    H275897   1.812   0.876   3.574 -1.1200 -1.2465  0.0535
18136TIP3   OH275898   6.371   1.850   3.861 -0.2832  0.3477 -0.6421
18136TIP3    H175899   6.447   1.860   3.917  0.0658 -0.1939 -1.0176
18136TIP3    H275900   6.341   1.940   3.844  0.8990  0.6076 -1.3631
18137TIP3   OH275901   2.269   2.721   2.963  0.0770 -0.5166 -0.1371
18137TIP3    H175902   2.303   2.632   2.971  0.1172 -0.5593 -0.7437
18137TIP3    H275903   2.250   2.731   2.870  0.2239  0.1676 -0.0964
18138TIP3   OH275904   2.843   5.737   2.437 -0.2301 -0.0729 -0.4151
18138TIP3    H175905   2.842   5.642   2.451 -2.0066  0.1108  0.9207
18138TIP3    H275906   2.813   5.749   2.347  1.4707 -0.8405 -1.0937
18139TIP3   OH275907   4.502   1.677  13.339 -0.3732 -0.1098  0.2216
18139TIP3    H175908   4.556   1.672  13.260 -0.4199 -2.4341  0.3034
18139TIP3    H275909   4.545   1.744  13.393  0.7540  0.1352 -0.9456
18140TIP3   OH275910   1.498   6.531  15.255 -0.0541 -0.0592  0.3508
18140TIP3    H175911   1.576   6.543  15.200  0.0430 -0.0164  0.4991
18140TIP3    H275912   1.530   6.485  15.332 -0.4881 -1.6281 -0.3736
18141TIP3   OH275913   5.345   5.130   2.006  0.0387  0.1887  0.1760
18141TIP3    H175914   5.432   5.090   2.017  0.4210  0.8230 -0.5817
18141TIP3    H275915   5.294   5.094   2.079  0.0619 -2.5283 -1.0632
18142TIP3   OH275916   4.801   6.355  14.088  0.1292 -0.0827  0.5943
18142TIP3    H175917   4.877   6.331  14.140 -1.8421 -0.5123  3.4242
18142TIP3    H275918   4.757   6.422  14.140 -2.0388 -0.6970 -0.3914
18143TIP3   OH275919   6.444   4.485  17.194 -0.2230 -0.5265 -0.3041
18143TIP3    H175920   6.457   4.429  17.271 -1.8998 -0.1452  0.2671
18143TIP3    H275921   6.356   4.521  17.205  0.5882  1.7493 -0.9574
18144TIP3   OH275922   6.651   5.086  14.452 -0.6771  0.0974 -0.1121
18144TIP3    H175923   6.675   5.108  14.542  0.4652  1.1614 -0.6637
18144TIP3    H275924   6.653   5.170  14.406 -1.2342 -0.4460 -1.1335
18145TIP3   OH275925   0.107   0.308   5.494 -0.1900  0.1811 -0.2438
18145TIP3    H175926   0.032   0.250   5.483 -1.6124  1.8989  0.2019
18145TIP3    H275927   0.081   0.369   5.563  1.2104  1.4303 -0.7753
18146TIP3   OH275928   2.549   0.988   1.770  0.3008 -0.3364 -0.1058
18146TIP3    H175929   2.565   1.020   1.681 -0.8002 -0.1544 -0.2550
18146TIP3    H275930   2.614   1.032   1.824  1.2039 -0.7085 -0.8703
18147TIP3   OH275931   4.636   4.943  10.796 -0.1137 -0.9596  0.0460
18147TIP3    H175932   4.553   4.942  10.844 -0.1251  0.6508  0.0780
18147TIP3    H275933   4.610   4.941  10.704 -0.2936  2.1608 -0.0081
18148TIP3   OH275934   4.887   6.471   0.693  0.6985  0.7456  0.0030
18148TIP3    H175935   4.819   6.498   0.755  0.8276  0.7650  0.1358
18148TIP3    H275936   4.857   6.505   0.608  0.0004 -0.1938 -0.1326
18149TIP3   OH275937   4.489   6.395  10.423 -0.3536  0.0761  0.3164
18149TIP3    H175938   4.413   6.449  10.399 -0.3445  0.8047  1.8626
18149TIP3    H275939   4.460   6.346  10.500  1.2184  1.5357  1.9002
18150TIP3   OH275940   5.898   4.516   1.599 -0.0430  0.3830  0.1605
18150TIP3    H175941   5.875   4.609   1.607  0.8528  0.6293 -0.0319
18150TIP3    H275942   5.895   4.498   1.505 -1.6400 -0.1674  0.2996
18151TIP3   OH275943   2.488   4.488   1.036  0.0903  0.0155 -0.4767
18151TIP3    H175944   2.418   4.529   0.985 -0.6760 -1.3909 -0.5714
18151TIP3    H275945   2.452   4.481   1.125  0.3384 -0.1617 -0.3904
18152TIP3   OH275946   1.013   4.001  13.287  0.0207  0.2758  0.0248
18152TIP3    H175947   1.011   4.025  13.194 -1.7794 -0.7263 -0.2294
18152TIP3    H275948   1.102   3.971  13.302  0.5399  1.1574 -1.2024
18153TIP3   OH275949   0.072   1.365   5.503  0.1573 -0.3759  0.3860
18153TIP3    H175950   0.004   1.328   5.446 -0.2783  0.8008  0.1306
18153TIP3    H275951   0.120   1.426   5.448  1.4587 -1.2240  0.5635
18154TIP3   OH275952   5.460   6.778   0.625 -0.2030  0.0500  0.1889
18154TIP3    H175953   5.501   6.693   0.609 -2.5874 -0.6787 -2.5738
18154TIP3    H275954   5.397   6.762   0.695  0.2824 -0.1214  0.5913
18155TIP3   OH275955   3.298   0.083  12.150  0.5152 -0.4224 -0.2021
18155TIP3    H175956   3.291   0.008  12.091 -1.7193 -1.1605  0.9479
18155TIP3    H275957   3.237   0.147  12.115 -1.5867 -1.2554  1.8289
18156TIP3   OH275958   1.635   2.083  12.228  0.0987 -0.2749 -0.2287
18156TIP3    H175959   1.627   1.988  12.235  1.0522 -0.4373 -1.1836
18156TIP3    H275960   1.655   2.113  12.317 -0.6536 -0.9115  0.1600
18157TIP3   OH275961   6.087   4.693  13.154 -0.3680  0.0430  0.4368
18157TIP3    H175962   6.043   4.617  13.191  1.6999 -1.6741 -0.5295
18157TIP3    H275963   6.061   4.692  13.062  2.4603 -1.6185 -0.3908
18158TIP3   OH275964   1.087   0.739  13.190 -0.3863  1.0894 -0.3317
18158TIP3    H175965   1.047   0.824  13.209 -0.3804  0.9254  0.4310
18158TIP3    H275966   1.174   0.761  13.155 -0.0282  1.3851  0.7210
18159TIP3   OH275967   2.576   1.106   5.880 -0.2250  0.0462 -0.4800
18159TIP3    H175968   2.663   1.146   5.883 -1.1064  2.3149 -2.9781
18159TIP3    H275969   2.526   1.152   5.947  0.1047 -0.2887 -0.0014
18160TIP3   OH275970   5.785   3.561  13.556 -0.4235  0.0577 -0.3593
18160TIP3    H175971   5.799   3.655  13.561 -0.2913 -0.0738  2.0718
18160TIP3    H275972   5.873   3.524  13.551 -0.5087  0.1052 -2.6919
18161TIP3   OH275973   4.111   4.194  15.695 -0.5661  0.2150 -0.5679
18161TIP3    H175974   4.135   4.286  15.682  3.2878 -0.5488  0.4239
18161TIP3    H275975   4.109   4.183  15.790 -1.8996 -0.5323 -0.6741
18162TIP3   OH275976   3.841   2.991  17.127  0.0223  0.6609  0.3435
18162TIP3    H175977   3.934   3.010  17.139  0.3978 -0.5530 -0.5365
18162TIP3    H275978   3.831   2.903  17.162 -1.0319  1.2106  1.4516
18163TIP3   OH275979   2.854   2.786  14.975 -0.2533 -0.2111 -0.2402
18163TIP3    H175980   2.853   2.843  14.898  2.2916  0.0042 -0.1557
18163TIP3    H275981   2.911   2.831  15.038 -0.2939 -1.5950  0.8183
18164TIP3   OH275982   0.027   6.649   4.960  0.0187 -0.1231  0.3072
18164TIP3    H175983   0.113   6.611   4.940 -0.0906 -0.3352  0.2524
18164TIP3    H275984  -0.034   6.576   4.957 -0.7164  0.5375 -2.9734
18165TIP3   OH275985   4.219   0.221   5.106 -0.4962  1.0589  0.1499
18165TIP3    H175986   4.130   0.254   5.097 -0.3265  1.2480 -0.9911
18165TIP3    H275987   4.214   0.155   5.174 -0.8567  3.3644  2.4208
18166TIP3   OH275988   5.031   1.280   5.859 -0.5906 -0.2134  1.0350
18166TIP3    H175989   5.080   1.354   5.822 -1.1358 -1.0106 -1.3806
18166TIP3    H275990   4.941   1.292   5.827 -0.7953 -1.6376  1.0308
18167TIP3   OH275991   6.026   5.294   4.548 -0.0638  0.0023  0.3436
18167TIP3    H175992   6.091   5.339   4.494 -1.1952 -0.3126 -1.2964
18167TIP3    H275993   5.953   5.276   4.489 -0.3394 -2.5067  1.3894
18168TIP3   OH275994   3.450   6.583  14.778  0.3227  0.1797  0.4242
18168TIP3    H175995   3.512   6.540  14.836 -0.9641  1.2596  2.7004
18168TIP3    H275996   3.388   6.515  14.754  0.8428 -0.2732  0.3633
18169TIP3   OH275997   3.430   0.369   6.012  0.4068  0.3982 -1.0192
18169TIP3    H175998   3.365   0.326   6.068  0.0910  0.4009 -1.3864
18169TIP3    H275999   3.423   0.462   6.035  1.0922  0.2634 -0.2215
18170TIP3   OH276000   4.272   5.432  16.110 -0.4412  0.5403 -0.0928
18170TIP3    H176001   4.309   5.420  16.198  1.4974  1.2148 -0.8078
18170TIP3    H276002   4.222   5.352  16.095 -0.7293  0.3691  1.5863
18171TIP3   OH276003   3.745   0.196   0.770 -0.1531 -0.1960  0.0956
18171TIP3    H176004   3.718   0.104   0.768  0.1327 -0.2568 -0.9462
18171TIP3    H276005   3.676   0.242   0.721 -1.1049  0.3649  1.9108
18172TIP3   OH276006   6.654   2.979   4.611 -0.3861 -0.3355  0.2513
18172TIP3    H176007   6.691   2.923   4.542  1.5836  0.4166  0.6503
18172TIP3    H276008   6.593   3.036   4.565  0.7926  0.0621 -0.8614
18173TIP3   OH276009   0.448   1.160  14.485 -0.2237 -0.7049  0.5001
18173TIP3    H176010   0.443   1.198  14.573 -1.8579 -1.3293  0.6943
18173TIP3    H276011   0.362   1.120  14.471  0.5065 -1.8701 -0.8098
18174TIP3   OH276012   4.911   5.249  14.740 -0.5849  0.3481 -0.1804
18174TIP3    H176013   4.920   5.277  14.649  1.3430 -0.5302 -0.2842
18174TIP3    H276014   4.967   5.171  14.747 -0.4681  0.5901  1.8385
18175TIP3   OH276015   0.445   1.811  15.591 -0.4312 -0.2812 -0.4399
18175TIP3    H176016   0.368   1.821  15.535 -0.6323  0.8785  0.0361
18175TIP3    H276017   0.422   1.739  15.650 -0.8881 -0.3770 -0.7302
18176TIP3   OH276018   6.803   5.312  14.129 -0.4320  0.4507 -0.4160
18176TIP3    H176019   6.872   5.246  14.134 -0.6467  0.2421 -0.1728
18176TIP3    H276020   6.847   5.395  14.141 -0.1712  0.3441 -0.6224
18177TIP3   OH276021   5.937   6.060   2.108  0.1888  0.5454 -0.3355
18177TIP3    H176022   5.866   6.075   2.046 -0.2140  0.5184  0.1150
18177TIP3    H276023   5.944   5.965   2.115 -0.6452  0.5424  0.6459
18178TIP3   OH276024   1.474   6.619   5.294 -0.1360  0.4653  0.9005
18178TIP3    H176025   1.566   6.641   5.303  0.2635 -0.3651 -0.9743
18178TIP3    H276026   1.440   6.684   5.232  0.7501 -3.0896 -3.6377
18179TIP3   OH276027   1.354   0.394   6.239  0.0754 -0.1522 -0.1938
18179TIP3    H176028   1.280   0.409   6.298  0.2813 -0.6864  0.2043
18179TIP3    H276029   1.393   0.481   6.226 -1.4289  0.3613 -1.4967
18180TIP3   OH276030   0.073   1.344   2.044 -0.0488  0.0232 -0.1014
18180TIP3    H176031   0.115   1.405   1.984 -0.3368 -1.7477 -2.1540
18180TIP3    H276032   0.143   1.284   2.071 -0.8454 -1.8945 -2.1961
18181TIP3   OH276033   4.422   1.068   6.519 -0.1328  0.2443 -0.0254
18181TIP3    H176034   4.445   1.003   6.453  1.0742 -1.4689  1.9805
18181TIP3    H276035   4.505   1.109   6.541 -0.7282  1.7094 -0.4923
18182TIP3   OH276036   2.634   6.174  11.810 -0.1062 -1.0705 -0.5569
18182TIP3    H176037   2.622   6.081  11.790 -0.2781 -0.9857 -0.8700
18182TIP3    H276038   2.680   6.209  11.733 -0.7125 -0.7478 -0.7783
18183TIP3   OH276039   2.214   2.193  10.982  0.5782 -0.1868 -0.2034
18183TIP3    H176040   2.245   2.130  10.917  0.5393  0.1264 -0.5306
18183TIP3    H276041   2.205   2.143  11.062 -0.6983 -0.8844 -0.7650
18184TIP3   OH276042   0.736   6.230   2.403  0.1466  0.1975  0.2299
18184TIP3    H176043   0.771   6.300   2.459  1.2806  1.0087 -1.4478
18184TIP3    H276044   0.743   6.264   2.314 -0.7447 -1.4456 -0.4969
18185TIP3   OH276045   4.211   4.552  14.900  0.1968  0.2943  0.5960
18185TIP3    H176046   4.122   4.515  14.897 -0.5956  2.2196 -0.1732
18185TIP3    H276047   4.260   4.501  14.836 -0.4070 -0.6244  0.8516
18186TIP3   OH276048   4.870   6.403   2.394  0.0981  0.6894  0.6245
18186TIP3    H176049   4.903   6.492   2.403 -0.3097  0.8727  0.3435
18186TIP3    H276050   4.824   6.385   2.476 -1.6104  1.5017 -0.1192
18187TIP3   OH276051   0.419   0.628   1.290  0.1941  0.0791  0.7119
18187TIP3    H176052   0.400   0.688   1.362 -0.8751 -0.6149  1.0111
18187TIP3    H276053   0.337   0.623   1.240  0.1784 -1.3467  0.8502
18188TIP3   OH276054   4.518   6.593  15.273 -0.2050 -0.4466 -0.0825
18188TIP3    H176055   4.596   6.556  15.232  0.4328 -0.0646  0.7646
18188TIP3    H276056   4.528   6.688  15.262 -0.3294 -0.3744  0.4306
18189TIP3   OH276057   6.640   2.743   3.912  0.0695 -0.5208  0.4769
18189TIP3    H176058   6.601   2.677   3.855  0.5371 -0.4445  0.0639
18189TIP3    H276059   6.574   2.811   3.921  0.7137  0.4000 -1.5540
18190TIP3   OH276060   5.309   4.606   0.430  0.0896  0.4325 -0.3067
18190TIP3    H176061   5.389   4.554   0.420 -0.7071 -0.9356  0.3334
18190TIP3    H276062   5.240   4.542   0.441 -1.3615  1.5518 -2.4388
18191TIP3   OH276063   4.854   1.699   4.715  0.2174  0.0197  0.6746
18191TIP3    H176064   4.767   1.712   4.754  0.8101  0.7634  1.7806
18191TIP3    H276065   4.911   1.759   4.763  1.2364 -0.0351 -0.4390
18192TIP3   OH276066   5.996   3.475  15.030 -0.2082  0.1346 -0.0548
18192TIP3    H176067   5.952   3.428  15.100 -0.3209 -0.9409 -0.8323
18192TIP3    H276068   5.974   3.426  14.950 -1.4608  2.2758 -1.0751
18193TIP3   OH276069   0.454   1.321  10.944 -0.2102 -0.8091  0.2791
18193TIP3    H176070   0.403   1.328  10.863  0.3835  0.4114  0.0023
18193TIP3    H276071   0.535   1.277  10.918 -0.0187 -0.4153  0.1977
18194TIP3   OH276072   3.253   2.047  14.800 -0.4682  0.4650  0.1223
18194TIP3    H176073   3.223   2.108  14.867 -0.9835 -0.0500  0.3577
18194TIP3    H276074   3.290   1.974  14.849 -0.1226  0.4516 -0.1597
18195TIP3   OH276075   6.214   5.018  12.700  0.1161 -0.4775  0.7297
18195TIP3    H176076   6.218   5.098  12.753 -0.7350  0.2286 -0.2504
18195TIP3    H276077   6.303   4.982  12.704  0.7957  1.0863  0.3299
18196TIP3   OH276078   6.797   4.706   0.367  0.4459  0.2810 -0.4150
18196TIP3    H176079   6.876   4.732   0.415  0.6944  0.8155 -1.1105
18196TIP3    H276080   6.750   4.788   0.353 -1.6786 -0.3325  2.4884
18197TIP3   OH276081   4.372   5.632  15.145 -0.2177  0.1843  0.2343
18197TIP3    H176082   4.436   5.572  15.106 -1.2400 -0.3509 -0.6573
18197TIP3    H276083   4.411   5.719  15.135 -0.4524  0.0643 -2.0677
18198TIP3   OH276084   0.360   1.419  16.474 -0.3573 -0.2484 -0.0703
18198TIP3    H176085   0.336   1.509  16.450  0.4937 -0.1461 -0.5686
18198TIP3    H276086   0.358   1.418  16.569 -0.5332  0.2616 -0.0658
18199TIP3   OH276087   4.659   1.835  15.335 -0.0824 -0.3577  0.6047
18199TIP3    H176088   4.623   1.923  15.332  0.4942 -0.1039  0.9055
18199TIP3    H276089   4.724   1.833  15.265  0.9880 -0.0401  1.5591
18200TIP3   OH276090   1.457   0.592  15.971 -0.0359 -0.0375  0.6326
18200TIP3    H176091   1.492   0.527  16.032  0.1965 -1.7986 -1.3129
18200TIP3    H276092   1.408   0.540  15.907  0.6272  1.6442 -1.2820
18201TIP3   OH276093   0.054   2.787  13.637 -0.2870 -0.6535 -0.1270
18201TIP3    H176094  -0.021   2.758  13.586 -0.9156 -0.1020  0.4683
18201TIP3    H276095   0.086   2.865  13.591 -0.3216 -0.6601 -0.1616
18202TIP3   OH276096   3.737   5.009  12.389  0.0742  0.0824 -0.2935
18202TIP3    H176097   3.774   4.921  12.378  0.2690 -0.0481  1.2349
18202TIP3    H276098   3.651   4.994  12.429  0.4288  0.6182  0.6748
18203TIP3   OH276099   5.247   3.890   3.108  0.5654  0.3037  0.2092
18203TIP3    H176100   5.165   3.843   3.120  0.0671  0.0851 -3.4837
18203TIP3    H276101   5.233   3.975   3.150 -1.3462  0.0922  0.0109
18204TIP3   OH276102   1.486   1.833  17.189 -0.2389  0.5569  0.1526
18204TIP3    H176103   1.461   1.741  17.195 -1.2628  0.7279 -1.2007
18204TIP3    H276104   1.574   1.832  17.152 -0.8531  0.1654 -1.3366
18205TIP3   OH276105   5.426   5.797   2.825  1.0690 -0.3017  0.4637
18205TIP3    H176106   5.336   5.828   2.823  1.4452  0.8956  1.0924
18205TIP3    H276107   5.422   5.712   2.869  0.0947 -0.8668 -0.6933
18206TIP3   OH276108   1.223   0.691  11.592  0.3195  0.1880  0.2964
18206TIP3    H176109   1.304   0.663  11.635 -0.0457 -1.4168 -0.0436
18206TIP3    H276110   1.216   0.636  11.514 -0.5821  1.0065 -0.2169
18207TIP3   OH276111   4.003   4.156  17.288  0.2861  0.2221 -0.1232
18207TIP3    H176112   3.932   4.187  17.231 -0.4172 -1.6680 -0.2901
18207TIP3    H276113   4.049   4.091  17.235  0.1158 -0.9695  1.1699
18208TIP3   OH276114   1.268   5.979  14.718  0.4851  0.2533  0.4694
18208TIP3    H176115   1.217   5.966  14.638  0.1691 -0.6831  0.8168
18208TIP3    H276116   1.294   6.071  14.715  1.3314 -0.0229 -1.2092
18209TIP3   OH276117   6.655   4.829   2.179  0.4586  0.0192  0.0294
18209TIP3    H176118   6.706   4.910   2.188  0.6444 -0.1509  0.4952
18209TIP3    H276119   6.707   4.774   2.121  0.9571 -0.2757  0.7471
18210TIP3   OH276120   2.936   4.925  15.875 -0.3984  0.3481  0.0638
18210TIP3    H176121   2.953   5.007  15.829  1.2248 -0.2426 -0.3997
18210TIP3    H276122   2.975   4.937  15.962 -1.7102  0.7121  0.6182
18211TIP3   OH276123   1.095   6.322  13.455 -0.0387  0.0171  0.4163
18211TIP3    H176124   1.137   6.375  13.522 -0.4662 -0.2696  0.9097
18211TIP3    H276125   1.160   6.255  13.434  0.0332  0.0089  0.6635
18212TIP3   OH276126   6.612   1.350  16.704 -0.3060  0.3614  0.3281
18212TIP3    H176127   6.661   1.348  16.786 -0.9613  0.0791  0.7174
18212TIP3    H276128   6.678   1.368  16.637  0.0626  1.7399  1.0452
18213TIP3   OH276129   5.973   2.240   5.384 -0.4420 -0.4428 -0.5664
18213TIP3    H176130   6.058   2.227   5.427 -0.7618  1.2267  0.6217
18213TIP3    H276131   5.940   2.152   5.369  0.0826 -1.0685  1.8258
18214TIP3   OH276132   6.235   4.333   5.224 -0.5239  0.2765 -0.4409
18214TIP3    H176133   6.324   4.304   5.245 -0.4703  1.1290  0.5535
18214TIP3    H276134   6.248   4.417   5.179 -0.6889 -1.0791 -3.0400
18215TIP3   OH276135   0.138   0.959   4.337  0.0709 -0.1995  0.1889
18215TIP3    H176136   0.225   0.965   4.377  1.5444  0.8636 -2.9801
18215TIP3    H276137   0.118   0.866   4.335  1.1961 -0.4597  0.8322
18216TIP3   OH276138   3.699   0.771  14.548  0.1989  0.0447 -0.0198
18216TIP3    H176139   3.622   0.818  14.578 -0.6939 -0.2906 -1.6955
18216TIP3    H276140   3.729   0.722  14.625 -1.0717  0.4249  0.7340
18217TIP3   OH276141   0.247   1.390  15.165 -0.2876 -0.2117 -0.2061
18217TIP3    H176142   0.311   1.432  15.223  1.2159  0.9711 -2.6177
18217TIP3    H276143   0.168   1.444  15.173  0.1693  0.4173  0.1505
18218TIP3   OH276144   5.012   4.924  15.428 -0.5475 -0.2567 -0.2568
18218TIP3    H176145   5.100   4.946  15.459 -0.0341 -2.1077 -0.3319
18218TIP3    H276146   4.968   5.008  15.419  0.8958  0.6255  0.7407
18219TIP3   OH276147   2.014   3.201  13.439  0.2748  0.1766  0.5461
18219TIP3    H176148   1.940   3.237  13.388  0.1722 -0.6409  0.1111
18219TIP3    H276149   2.026   3.264  13.510 -0.5159  0.5903  0.3301
18220TIP3   OH276150   6.041   0.033  14.964  0.7603 -0.5535  0.1824
18220TIP3    H176151   6.019   0.094  14.894  0.7806  1.8761  2.1949
18220TIP3    H276152   6.135   0.041  14.975  0.5503  0.4043  1.5739
18221TIP3   OH276153   0.163   2.310   1.147 -0.6418  0.1449 -0.5574
18221TIP3    H176154   0.247   2.355   1.143 -0.4246  0.0009  1.8524
18221TIP3    H276155   0.099   2.380   1.160 -0.8768  0.2316 -2.1403
18222TIP3   OH276156   5.124   1.793  17.012  0.1354  0.2395 -0.5698
18222TIP3    H176157   5.043   1.748  17.036 -0.1251  1.4265  0.8314
18222TIP3    H276158   5.189   1.760  17.073 -0.0086  1.5541  0.3267
18223TIP3   OH276159   5.586   0.600  13.385 -0.2714 -0.0702  0.1901
18223TIP3    H176160   5.613   0.513  13.354 -0.8513 -0.5595  1.0366
18223TIP3    H276161   5.503   0.585  13.429 -1.2366  1.2078 -1.1572
18224TIP3   OH276162   1.304   5.263   0.284 -0.3471  0.0406 -0.1218
18224TIP3    H176163   1.234   5.246   0.221 -0.3103  0.0912 -0.1753
18224TIP3    H276164   1.331   5.175   0.313 -2.2459  0.0784  1.8811
18225TIP3   OH276165   0.628   6.105  12.127  0.5123 -0.1019  0.0296
18225TIP3    H176166   0.679   6.024  12.123 -0.8547 -1.0433  1.0362
18225TIP3    H276167   0.691   6.172  12.152  2.0663 -0.4747 -2.7309
18226TIP3   OH276168   5.274   1.283   5.128 -0.4081 -0.1929 -0.5336
18226TIP3    H176169   5.334   1.350   5.096 -2.4215  1.8574 -0.1275
18226TIP3    H276170   5.303   1.202   5.085  0.4356  1.4306 -3.1053
18227TIP3   OH276171   4.149   1.740  12.281 -0.0945 -0.0788  0.5786
18227TIP3    H176172   4.067   1.695  12.301  0.4008 -1.1929  0.1571
18227TIP3    H276173   4.141   1.765  12.189  0.1726 -0.4931  0.4403
18228TIP3   OH276174   3.567   3.273  12.730 -0.4615  0.3486  0.1217
18228TIP3    H176175   3.554   3.187  12.689 -0.9760  0.1398  0.7216
18228TIP3    H276176   3.636   3.314  12.677 -0.4206 -0.3129 -0.3498
18229TIP3   OH276177   3.186   2.171  14.561 -0.8468 -0.3198  0.0641
18229TIP3    H176178   3.195   2.139  14.651 -2.0239  0.1140  0.3315
18229TIP3    H276179   3.092   2.170  14.544 -0.8207  2.0355 -0.2892
18230TIP3   OH276180   6.252   1.066   2.361 -0.3089  0.1979 -0.0689
18230TIP3    H176181   6.338   1.081   2.320 -1.7680 -0.4664 -3.5497
18230TIP3    H276182   6.218   1.153   2.379  0.3404  0.4962 -0.2918
18231TIP3   OH276183   0.132   6.251   2.033  0.1416 -0.0142  0.3547
18231TIP3    H176184   0.073   6.182   2.004  0.1303 -0.0726  0.5179
18231TIP3    H276185   0.075   6.327   2.046 -0.0172 -0.2722  1.2301
18232TIP3   OH276186   2.549   1.265   5.139  0.1479  0.1652 -0.1083
18232TIP3    H176187   2.473   1.226   5.182 -0.0585 -0.2902 -0.8826
18232TIP3    H276188   2.601   1.190   5.110  0.1875  0.4650 -0.8219
18233TIP3   OH276189   1.037   4.481   0.097  0.1150  0.0790  0.1557
18233TIP3    H176190   1.071   4.548   0.038 -0.2933  0.0322 -0.1387
18233TIP3    H276191   1.099   4.478   0.170  0.6260  0.1333 -0.2763
18234TIP3   OH276192   2.997   0.953   4.366 -0.2251 -0.1591 -0.6707
18234TIP3    H176193   3.037   0.996   4.441 -0.1262 -1.6899  0.1684
18234TIP3    H276194   3.071   0.911   4.321 -0.6850 -1.7712  0.0704
18235TIP3   OH276195   3.827   6.044  12.673 -0.2432 -1.2448  0.3281
18235TIP3    H176196   3.742   6.013  12.642  0.9188 -1.3135 -2.9481
18235TIP3    H276197   3.874   5.964  12.699 -0.5563 -1.3525  0.5690
18236TIP3   OH276198   2.322   1.479  16.565 -0.5159 -0.3031 -0.2420
18236TIP3    H176199   2.330   1.409  16.629 -0.1613 -1.5022 -1.5546
18236TIP3    H276200   2.383   1.547  16.594  0.7808 -1.4914 -0.1394
18237TIP3   OH276201   6.540   1.073  11.308  0.2727  0.2512 -0.3273
18237TIP3    H176202   6.629   1.062  11.343 -0.1058  0.3477  0.7026
18237TIP3    H276203   6.489   1.103  11.384 -0.8946 -0.9694 -0.6258
18238TIP3   OH276204   3.573   4.723  13.708  0.3783 -0.0092  0.1352
18238TIP3    H176205   3.638   4.652  13.707 -0.9323 -1.2458  1.4258
18238TIP3    H276206   3.625   4.803  13.698  2.2700 -0.8785  2.6721
18239TIP3   OH276207   2.373   2.924  16.242 -0.3888 -0.6737  0.2321
18239TIP3    H176208   2.369   2.846  16.298 -1.7632 -0.0352  1.0448
18239TIP3    H276209   2.410   2.892  16.160 -1.8763 -2.4169  0.2030
18240TIP3   OH276210   1.076   0.737  14.394 -0.7707 -0.0634  0.2550
18240TIP3    H176211   1.052   0.762  14.483 -0.3123  1.0619  0.0746
18240TIP3    H276212   1.003   0.682  14.364 -1.1615 -0.0397  1.1454
18241TIP3   OH276213   1.593   1.921  14.137  0.1090  0.3368 -0.1235
18241TIP3    H176214   1.625   1.845  14.185 -0.2369 -0.4766 -1.1672
18241TIP3    H276215   1.577   1.988  14.204 -0.8383 -0.9464  0.9466
18242TIP3   OH276216   4.839   4.444   3.382 -0.5829 -0.2451 -0.3743
18242TIP3    H176217   4.916   4.499   3.365 -0.7806 -0.2136 -1.2065
18242TIP3    H276218   4.779   4.465   3.311 -2.2225  1.2545  1.3863
18243TIP3   OH276219   5.907   6.709  13.635  0.3200  0.0565  0.2563
18243TIP3    H176220   5.881   6.618  13.652 -0.2943  0.4550  1.4852
18243TIP3    H276221   6.001   6.703  13.617 -0.0880 -1.0653 -1.6660
18244TIP3   OH276222   4.736   5.942  16.138  0.5256 -0.5500 -0.4905
18244TIP3    H176223   4.706   5.995  16.065 -2.8217  0.7825  1.7287
18244TIP3    H276224   4.706   5.853  16.118 -1.2678 -0.0078 -0.3267
18245TIP3   OH276225   0.446   1.260   2.384  0.2697  0.1641  0.4137
18245TIP3    H176226   0.466   1.323   2.453 -1.9764 -1.5682  2.7679
18245TIP3    H276227   0.508   1.188   2.399  0.7495  0.4241 -0.3028
18246TIP3   OH276228   3.555   1.790   4.704  0.1438 -0.3467 -0.3004
18246TIP3    H176229   3.586   1.705   4.732 -1.1155 -0.6709  0.1742
18246TIP3    H276230   3.493   1.771   4.633 -2.5522 -0.0891  1.9056
18247TIP3   OH276231   5.938   6.217   2.679 -0.4080 -0.0094  0.3120
18247TIP3    H176232   5.926   6.300   2.726  0.6631 -0.0289  0.6242
18247TIP3    H276233   5.918   6.239   2.588  0.7262  0.8093  0.2451
18248TIP3   OH276234   0.747   6.334   2.140  0.4048 -0.2369 -0.3904
18248TIP3    H176235   0.831   6.369   2.111  0.3456  0.6599  0.4977
18248TIP3    H276236   0.683   6.373   2.082  0.7431 -2.3508 -2.2769
18249TIP3   OH276237   4.609   2.222   2.519 -0.1191 -0.0290 -0.2174
18249TIP3    H176238   4.574   2.158   2.458  0.4058  0.7736 -1.3677
18249TIP3    H276239   4.647   2.170   2.590 -0.3615 -0.9623 -0.7726
18250TIP3   OH276240   0.615   0.419   1.381  0.2429  0.2366  1.2323
18250TIP3    H176241   0.610   0.478   1.306  0.1177  0.6036  1.5255
18250TIP3    H276242   0.641   0.475   1.454 -0.5414  0.0637  1.6559
18251TIP3   OH276243   5.569   3.658  16.628 -0.1195 -0.3505  0.2280
18251TIP3    H176244   5.639   3.650  16.693  0.0145 -0.6952  0.0369
18251TIP3    H276245   5.610   3.637  16.545 -0.2530  0.2583  0.0055
18252TIP3   OH276246   0.221   2.599  13.897  0.6490  0.1164  0.0326
18252TIP3    H176247   0.217   2.551  13.980  0.5620 -0.8222 -0.5117
18252TIP3    H276248   0.137   2.645  13.892  0.0604 -0.9737 -0.2201
18253TIP3   OH276249   1.978   6.417  16.318 -0.2988 -0.2313 -0.2748
18253TIP3    H176250   1.965   6.493  16.262 -1.7277 -0.7063 -0.6129
18253TIP3    H276251   1.960   6.342  16.262 -0.0211 -0.7771  0.3530
18254TIP3   OH276252   0.212   2.265   4.613  0.8492 -0.2956 -0.4238
18254TIP3    H176253   0.304   2.244   4.626  0.9579 -1.0053 -2.1432
18254TIP3    H276254   0.179   2.193   4.559 -0.8077 -0.2370  0.4925
18255TIP3   OH276255   5.006   6.358  12.151 -0.4455 -0.7130  0.1984
18255TIP3    H176256   4.921   6.340  12.112  0.3013 -1.7987 -0.9965
18255TIP3    H276257   5.065   6.367  12.076  1.1932 -3.7071  1.0185
18256TIP3   OH276258   5.876   3.712   4.897 -1.1703 -0.8313 -0.0770
18256TIP3    H176259   5.876   3.651   4.970 -2.0933 -0.9218 -0.1446
18256TIP3    H276260   5.860   3.657   4.820  0.5802 -0.8435 -0.4451
18257TIP3   OH276261   4.092   1.077  13.487 -0.0885  0.5370 -0.2233
18257TIP3    H176262   4.054   1.128  13.559 -0.6880  2.1050 -1.6184
18257TIP3    H276263   4.119   1.143  13.423  1.1727 -0.7976 -1.0965
18258TIP3   OH276264   5.048   1.276   3.173  0.4344  0.2192 -0.0825
18258TIP3    H176265   5.079   1.354   3.218  1.1813 -0.8569  1.3167
18258TIP3    H276266   4.955   1.273   3.192  0.4177  0.7172 -0.0755
18259TIP3   OH276267   4.187   1.486  11.519 -0.2122 -0.3549 -0.1549
18259TIP3    H176268   4.179   1.524  11.431  1.5266 -2.0845 -1.0939
18259TIP3    H276269   4.096   1.473  11.548 -0.7980  0.4719 -1.5776
18260TIP3   OH276270   3.316   2.965  14.142  0.8715 -0.1872  0.1904
18260TIP3    H176271   3.372   2.890  14.121  0.8188 -0.5237  1.2120
18260TIP3    H276272   3.356   3.002  14.221 -0.5691 -0.6624  1.1552
18261TIP3   OH276273   0.400   2.092   3.684 -0.0231  0.3010  0.2231
18261TIP3    H176274   0.410   2.171   3.736 -1.2583  0.2153  0.6020
18261TIP3    H276275   0.349   2.119   3.607 -0.8530 -0.2137  0.5834
18262TIP3   OH276276   1.889   3.573  11.361  0.0838 -0.3526  0.1671
18262TIP3    H176277   1.834   3.643  11.396  2.4477  1.3145  0.6712
18262TIP3    H276278   1.952   3.618  11.305  0.1781 -2.3516 -1.3646
18263TIP3   OH276279   0.119   2.947   4.294 -0.3998 -0.6403  0.2324
18263TIP3    H176280   0.060   2.876   4.317  0.0905 -1.5823 -1.3179
18263TIP3    H276281   0.122   2.945   4.198  0.3607  0.8553  0.2155
18264TIP3   OH276282   6.298   4.658  13.760 -0.6525  0.2710 -0.3573
18264TIP3    H176283   6.311   4.731  13.821 -0.9227 -0.5853  0.7549
18264TIP3    H276284   6.205   4.638  13.766 -0.2795 -1.2660  0.6507
18265TIP3   OH276285   4.905   2.326  11.764 -0.4630  0.2225  0.2628
18265TIP3    H176286   4.996   2.298  11.755  0.0903  1.7560  0.9985
18265TIP3    H276287   4.899   2.406  11.712 -1.5428 -0.1786 -0.2429
18266TIP3   OH276288   1.603   6.547  10.714 -0.5457  0.2478  0.4340
18266TIP3    H176289   1.640   6.582  10.633 -1.6327 -0.8212 -0.5426
18266TIP3    H276290   1.669   6.566  10.780  1.2214 -0.5530 -1.0504
18267TIP3   OH276291   3.708   3.430  11.382  0.5045  0.8407  0.6058
18267TIP3    H176292   3.651   3.489  11.333  0.9069  0.1719 -0.7091
18267TIP3    H276293   3.648   3.376  11.433 -0.0329  0.3698 -0.5041
18268TIP3   OH276294   3.610   2.548   3.209 -0.3814 -0.0102  0.1257
18268TIP3    H176295   3.613   2.459   3.245  0.0154  0.2623  0.7604
18268TIP3    H276296   3.521   2.556   3.174 -0.4906 -0.5751  0.2622
18269TIP3   OH276297   3.216   1.301   1.093  0.2245 -0.2500 -0.2606
18269TIP3    H176298   3.259   1.224   1.129  1.4394  0.0993 -0.9283
18269TIP3    H276299   3.256   1.313   1.006 -0.4160  0.7377 -0.4325
18270TIP3   OH276300   4.053   2.724   6.255 -0.0492 -0.2705  0.4316
18270TIP3    H176301   4.033   2.742   6.163  1.2553  0.5076  0.2911
18270TIP3    H276302   4.096   2.639   6.254  1.6547  0.5732  0.0918
18271TIP3   OH276303   2.564   6.795   1.043 -0.8698  0.4032 -0.0137
18271TIP3    H176304   2.507   6.736   0.993  0.3150 -0.8631  0.1033
18271TIP3    H276305   2.572   6.873   0.987 -0.6857 -0.4259 -1.1610
18272TIP3   OH276306   5.364   5.777  17.080 -0.0570  0.3479  0.0175
18272TIP3    H176307   5.389   5.866  17.055 -0.4861  1.2510  2.6897
18272TIP3    H276308   5.268   5.780  17.088 -0.1309 -0.5166 -0.4489
18273TIP3   OH276309   6.639   4.236  12.023 -0.2828 -0.1175 -0.3240
18273TIP3    H176310   6.594   4.242  12.107  0.6470  0.9455  0.1065
18273TIP3    H276311   6.702   4.165  12.036 -1.3492 -1.1646 -0.7188
18274TIP3   OH276312   6.294   4.127  16.233  0.0871 -0.4272  0.6083
18274TIP3    H176313   6.274   4.220  16.232 -2.0854 -0.8634 -0.4915
18274TIP3    H276314   6.320   4.108  16.323 -0.9959  0.9261  1.2210
18275TIP3   OH276315   4.551   3.211   4.900  0.0113 -0.3352  0.5190
18275TIP3    H176316   4.539   3.296   4.943  1.9403 -0.8402  2.1569
18275TIP3    H276317   4.550   3.231   4.806 -1.6731  1.1788  0.8354
18276TIP3   OH276318   0.345   3.023   0.864  0.4621 -0.2285  0.5686
18276TIP3    H176319   0.274   2.993   0.921  0.0446  1.8680  1.2021
18276TIP3    H276320   0.311   3.013   0.775 -0.9563  1.4528  0.8878
18277TIP3   OH276321   0.019   6.321   0.174 -0.1169  0.2062 -0.0339
18277TIP3    H176322  -0.071   6.306   0.146 -0.4262  2.2048 -0.1260
18277TIP3    H276323   0.071   6.313   0.095 -0.3606  0.3638 -0.2091
18278TIP3   OH276324   6.486   3.004   0.464 -0.1521  0.0733  0.3706
18278TIP3    H176325   6.527   3.052   0.392 -0.2123  0.0747  0.3363
18278TIP3    H276326   6.550   2.937   0.488 -0.9520 -1.2203 -1.0213
18279TIP3   OH276327   5.616   2.731   3.822 -0.2094  0.2504 -0.4403
18279TIP3    H176328   5.603   2.785   3.744 -1.8371  0.4830 -0.0294
18279TIP3    H276329   5.646   2.647   3.789 -0.5590  0.4602 -1.2995
18280TIP3   OH276330   2.331   4.263  11.992 -0.1815 -0.1682  0.3066
18280TIP3    H176331   2.417   4.243  12.030  0.2283  0.9440 -0.0007
18280TIP3    H276332   2.276   4.283  12.068  0.6486  2.0863  0.3507
18281TIP3   OH276333   6.195   2.978  10.778 -0.1501  0.0177 -0.0965
18281TIP3    H176334   6.175   3.053  10.834 -1.1717  1.0278 -1.7528
18281TIP3    H276335   6.147   2.905  10.818 -2.3471  1.1170 -0.6206
18282TIP3   OH276336   1.931   0.706   3.081  0.0568  0.6313 -0.8643
18282TIP3    H176337   1.840   0.734   3.082 -0.2380 -0.3311  0.1347
18282TIP3    H276338   1.964   0.726   3.168  1.4361  2.9561 -1.8694
18283TIP3   OH276339   1.480   3.127   0.111 -0.2282 -0.1426 -0.4499
18283TIP3    H176340   1.471   3.135   0.016 -2.8125  0.0145 -0.2319
18283TIP3    H276341   1.471   3.033   0.127  0.9763 -0.2572 -0.4155
18284TIP3   OH276342   6.567   0.662   6.250  0.2748 -0.6698 -0.2503
18284TIP3    H176343   6.607   0.708   6.323 -0.9960  0.4066 -0.2019
18284TIP3    H276344   6.553   0.573   6.282 -1.0570  0.0195  1.1289
18285TIP3   OH276345   5.332   2.766   4.353  0.2319 -0.6181  0.3970
18285TIP3    H176346   5.382   2.688   4.328 -0.1978 -0.5312 -0.7507
18285TIP3    H276347   5.242   2.746   4.330  0.3851  0.9421 -1.7075
18286TIP3   OH276348   0.128   2.302   5.771 -0.3630 -0.2866  0.3368
18286TIP3    H176349   0.166   2.215   5.787  1.4457  0.3796 -0.2272
18286TIP3    H276350   0.123   2.308   5.676 -2.3931 -0.5644  0.4156
18287TIP3   OH276351   3.742   0.027   4.814  0.3904  0.1271 -0.0959
18287TIP3    H176352   3.684   0.096   4.848 -2.0230 -2.1303  0.5693
18287TIP3    H276353   3.767  -0.023   4.892  0.2510 -1.0981 -0.8309
18288TIP3   OH276354   6.567   4.734   1.031  0.3826  0.3613 -0.5408
18288TIP3    H176355   6.549   4.668   1.098 -0.4086 -0.4616 -1.5509
18288TIP3    H276356   6.489   4.734   0.975  0.6803  1.6315 -0.9795
18289TIP3   OH276357   4.120   5.344  12.131 -0.7432 -0.2477  0.1485
18289TIP3    H176358   4.123   5.413  12.197 -0.2798  0.9309 -1.0856
18289TIP3    H276359   4.034   5.354  12.089 -0.9488 -0.8520  0.4187
18290TIP3   OH276360   6.354   1.105  16.034 -0.1316 -0.3729  0.1818
18290TIP3    H176361   6.423   1.109  15.968 -0.8092 -1.2479 -0.6103
18290TIP3    H276362   6.395   1.060  16.108 -0.2745 -2.3431 -0.8809
18291TIP3   OH276363   4.886   1.492   2.466  0.0375 -0.2387  0.7152
18291TIP3    H176364   4.930   1.546   2.400 -2.1749 -0.1956 -0.7804
18291TIP3    H276365   4.911   1.402   2.443 -0.1563 -0.1764  0.2489
18292TIP3   OH276366   4.447   4.817   3.903  0.2187  0.3452 -0.2510
18292TIP3    H176367   4.453   4.742   3.962  2.4741 -0.3232 -1.2937
18292TIP3    H276368   4.444   4.893   3.961 -1.1361 -0.4692  0.7856
18293TIP3   OH276369   3.426   1.462   4.590  0.1479 -0.0649  0.0185
18293TIP3    H176370   3.509   1.508   4.600 -0.2476  0.7307 -0.2596
18293TIP3    H276371   3.429   1.423   4.503 -0.4391  1.3755 -0.6678
18294TIP3   OH276372   2.037   0.878   0.103 -0.0514  0.0007 -0.3422
18294TIP3    H176373   2.101   0.808   0.090  0.6767  0.2673  1.6564
18294TIP3    H276374   1.955   0.832   0.123  0.2092 -0.2962  0.0493
18295TIP3   OH276375   3.904   0.253   5.000 -0.0599 -0.4935 -0.8222
18295TIP3    H176376   3.933   0.280   4.912  1.6595  0.1879 -0.0790
18295TIP3    H276377   3.809   0.256   4.996  0.0030 -0.4663 -2.6731
18296TIP3   OH276378   2.893   4.423   0.100  0.1607 -0.0814 -0.7693
18296TIP3    H176379   2.862   4.463   0.018  0.0734 -0.7387 -1.0639
18296TIP3    H276380   2.971   4.473   0.123 -0.1565  0.4938 -0.9372
18297TIP3   OH276381   6.316   2.159   1.034  0.2519 -0.1766  0.2038
18297TIP3    H176382   6.335   2.080   1.085  1.0260 -1.2188 -1.6394
18297TIP3    H276383   6.394   2.171   0.980 -0.8707  0.4183 -1.3056
18298TIP3   OH276384   6.755   2.184   3.581  0.3802 -0.0478 -0.3001
18298TIP3    H176385   6.746   2.089   3.582 -0.9711  0.0671 -0.7386
18298TIP3    H276386   6.715   2.213   3.664  0.8563  0.1341 -0.1314
18299TIP3   OH276387   6.660   0.532  15.507  0.0853  0.3594 -0.3668
18299TIP3    H176388   6.679   0.481  15.586 -0.2979 -1.9512 -1.7312
18299TIP3    H276389   6.735   0.517  15.450 -0.8312 -0.1439 -1.4784
18300TIP3   OH276390   1.754   3.793   0.100 -0.0471  0.0600 -0.6617
18300TIP3    H176391   1.816   3.784   0.028 -0.1408  1.9009 -0.9808
18300TIP3    H276392   1.696   3.865   0.074 -1.0488 -0.2825  0.5473
18301TIP3   OH276393   0.792   3.123   2.316  0.3177 -0.4717  0.1987
18301TIP3    H176394   0.744   3.173   2.382 -0.9210 -1.4116  0.0191
18301TIP3    H276395   0.845   3.062   2.367  0.3610 -0.3052  0.3559
18302TIP3   OH276396   3.705   5.926   3.122 -0.3525  0.5689  0.2607
18302TIP3    H176397   3.726   5.834   3.141 -2.2696  0.1367  0.4425
18302TIP3    H276398   3.673   5.960   3.206 -0.4706  1.1587 -0.0259
18303TIP3   OH276399   1.888   5.946   2.818 -0.3859  0.2503 -0.0846
18303TIP3    H176400   1.796   5.955   2.841 -0.3501 -1.5824  0.8029
18303TIP3    H276401   1.889   5.886   2.744 -0.0908  2.2838 -1.7913
18304TIP3   OH276402   1.986   3.928  12.750 -0.2302 -0.5775  0.3722
18304TIP3    H176403   2.051   3.857  12.750 -0.2657 -0.6120  1.9298
18304TIP3    H276404   1.929   3.909  12.824 -2.7757 -1.1972 -1.6796
18305TIP3   OH276405   2.725   2.536  11.133 -0.1196  0.4287 -0.1305
18305TIP3    H176406   2.767   2.458  11.096 -0.0238  0.3750  0.0915
18305TIP3    H276407   2.777   2.557  11.210 -0.6511  0.2071  0.2934
18306TIP3   OH276408   1.451   5.977   6.793 -0.2528  0.7166 -0.0070
18306TIP3    H176409   1.434   6.017   6.707  0.3818  0.0939 -0.4239
18306TIP3    H276410   1.512   6.036   6.836 -0.9049  1.2544  0.1927
18307TIP3   OH276411   2.885   5.328  12.252  0.2236 -0.0578  0.3370
18307TIP3    H176412   2.944   5.289  12.187 -1.0157 -2.1227  0.4330
18307TIP3    H276413   2.848   5.404  12.207  1.2686 -0.0268 -0.4995
18308TIP3   OH276414   1.736   3.085   2.257 -0.3698 -0.0566 -0.6795
18308TIP3    H176415   1.832   3.085   2.247 -0.5680  0.2886 -2.9341
18308TIP3    H276416   1.721   3.065   2.350  1.8761 -0.4596 -0.3751
18309TIP3   OH276417   2.285   5.174  16.354  0.7269 -0.3714  0.1663
18309TIP3    H176418   2.191   5.168  16.338  0.8022  1.0197 -0.8939
18309TIP3    H276419   2.323   5.190  16.268  1.8278  0.1900  0.7439
18310TIP3   OH276420   1.924   1.408  11.724  0.0790  0.1350 -0.7310
18310TIP3    H176421   1.980   1.378  11.654 -0.7269 -2.4109 -0.3431
18310TIP3    H276422   1.836   1.378  11.699 -0.4142  0.3203  0.7236
18311TIP3   OH276423   4.158   5.229   0.068  0.4398 -0.0406 -0.5534
18311TIP3    H176424   4.220   5.203   0.001  1.3849 -1.4164  0.8475
18311TIP3    H276425   4.101   5.153   0.080 -0.3364  0.5402 -0.4647
18312TIP3   OH276426   3.312   0.396   3.197  0.0191  0.1683 -0.0145
18312TIP3    H176427   3.385   0.360   3.247 -0.6081 -0.1016  0.7114
18312TIP3    H276428   3.234   0.353   3.232 -0.6153  1.3081  0.0188
18313TIP3   OH276429   5.616   0.386   2.747 -0.2548  0.5726 -0.1523
18313TIP3    H176430   5.657   0.300   2.738 -0.2202  0.6657 -0.8774
18313TIP3    H276431   5.672   0.444   2.695  1.2652  1.5357  2.4557
18314TIP3   OH276432   3.498   4.598   6.019 -0.4198 -0.3918 -0.4665
18314TIP3    H176433   3.476   4.676   6.071 -0.1525  1.1347 -2.5924
18314TIP3    H276434   3.419   4.579   5.969  0.1876 -0.2322 -1.5020
18315TIP3   OH276435   4.814   2.318  12.250 -0.1498 -0.2284 -0.5628
18315TIP3    H176436   4.806   2.364  12.334  0.4834 -2.2720  0.6398
18315TIP3    H276437   4.724   2.297  12.226 -0.2930 -0.2258 -0.0526
18316TIP3   OH276438   6.701   5.972  11.368 -0.1187  0.3927  0.4527
18316TIP3    H176439   6.769   5.925  11.319 -0.7543  0.3524 -0.4130
18316TIP3    H276440   6.666   5.907  11.429  1.0072  0.5752  1.3156
18317TIP3   OH276441   1.948   2.887   4.269 -0.4802 -0.5497 -0.1367
18317TIP3    H176442   1.919   2.883   4.360 -2.5550 -1.1399 -0.7958
18317TIP3    H276443   1.890   2.826   4.223  0.1185  0.2278 -1.9463
18318TIP3   OH276444   0.464   1.933   5.197 -0.1833  0.3553 -0.1024
18318TIP3    H176445   0.511   1.967   5.273 -3.0669  0.6376  1.6196
18318TIP3    H276446   0.501   1.846   5.183  2.4062  1.4193 -0.2376
18319TIP3   OH276447   6.574   3.934  17.109 -0.5267 -0.0067 -0.2633
18319TIP3    H176448   6.530   3.917  17.193 -0.1249 -1.0606 -0.2628
18319TIP3    H276449   6.598   4.027  17.114 -0.7385  0.0109  0.6794
18320TIP3   OH276450   2.394   3.601   4.612  0.2252  0.2488  0.3257
18320TIP3    H176451   2.353   3.686   4.600  0.4899  0.0441 -2.2432
18320TIP3    H276452   2.483   3.621   4.641  0.4002  0.8483 -0.6326
18321TIP3   OH276453   4.911   3.563  13.283  0.0531 -0.1308 -0.1846
18321TIP3    H176454   4.981   3.512  13.243 -1.1509 -1.9333 -0.0349
18321TIP3    H276455   4.832   3.539  13.235 -0.4590  2.1018 -0.5464
18322TIP3   OH276456   1.742   4.139  14.635  0.1701 -0.1124 -0.2555
18322TIP3    H176457   1.653   4.128  14.668  0.8837 -0.2432  1.6869
18322TIP3    H276458   1.780   4.051  14.639  0.1149 -0.2293 -1.9419
18323TIP3   OH276459   4.946   4.645   1.520 -0.6092 -0.0933 -0.3437
18323TIP3    H176460   4.911   4.567   1.477 -0.9105 -0.9837  1.4557
18323TIP3    H276461   4.924   4.632   1.613  0.2457  1.6465  0.1082
18324TIP3   OH276462   1.408   3.166  12.229  0.5720  0.1249  0.7825
18324TIP3    H176463   1.338   3.197  12.286  0.4883 -0.9385  1.2519
18324TIP3    H276464   1.398   3.218  12.149 -0.8109 -0.0920  0.8104
18325TIP3   OH276465   5.443   6.633  16.833  0.1867  0.2693 -0.3141
18325TIP3    H176466   5.513   6.648  16.770  0.9772  3.1319  1.1123
18325TIP3    H276467   5.451   6.707  16.894 -0.3525 -2.5163  3.2781
18326TIP3   OH276468   4.783   5.865   4.469  0.3814  0.5860 -0.3027
18326TIP3    H176469   4.719   5.834   4.406 -0.4928 -0.3051  0.9890
18326TIP3    H276470   4.852   5.905   4.416  0.6730 -1.9528 -1.9590
18327TIP3   OH276471   3.762   4.279   2.023 -0.3444 -0.1571  0.3283
18327TIP3    H176472   3.672   4.254   2.003 -1.0966  1.2767  1.7965
18327TIP3    H276473   3.772   4.367   1.986  0.7810 -0.7008 -0.6933
18328TIP3   OH276474   1.022   4.177  14.084 -0.1706 -1.0100 -0.3363
18328TIP3    H176475   0.989   4.142  14.167 -0.6314 -0.8580 -0.4535
18328TIP3    H276476   0.950   4.229  14.050  0.1981 -0.6723 -0.5972
18329TIP3   OH276477   0.999   4.658   5.687 -0.1760  0.7085  0.2372
18329TIP3    H176478   1.068   4.656   5.753 -0.0535 -1.8408  0.0780
18329TIP3    H276479   1.044   4.687   5.607  0.3314  0.8447  0.5681
18330TIP3   OH276480   1.359   1.644   5.255 -0.3182  0.1210  0.1664
18330TIP3    H176481   1.426   1.705   5.226  0.5414 -1.7189 -1.8584
18330TIP3    H276482   1.277   1.683   5.226  0.1832  0.5461 -0.6859
18331TIP3   OH276483   2.457   2.825  13.856  0.3789  0.3294  0.4692
18331TIP3    H176484   2.410   2.764  13.800 -1.2334  1.3671  0.6706
18331TIP3    H276485   2.527   2.859  13.800  0.3269 -0.5312 -0.1232
18332TIP3   OH276486   5.289   3.541   3.169 -0.3712 -0.3868  0.1337
18332TIP3    H176487   5.334   3.618   3.204 -0.5592 -0.5464  0.7288
18332TIP3    H276488   5.358   3.491   3.125 -0.1454 -0.1724  0.2427
18333TIP3   OH276489   0.209   3.824  12.591  0.1792  0.6355 -0.0175
18333TIP3    H176490   0.261   3.755  12.551  0.2499  0.9128 -0.4096
18333TIP3    H276491   0.118   3.796  12.580  0.1245  1.4731 -1.8025
18334TIP3   OH276492   2.938   0.142  12.348 -0.5682  0.3028  0.0790
18334TIP3    H176493   2.933   0.098  12.263 -0.1238  1.1362 -0.3788
18334TIP3    H276494   2.961   0.232  12.327  0.6794  0.2477  1.1524
18335TIP3   OH276495   6.201   1.351  10.749 -0.2883 -0.2459  0.5904
18335TIP3    H176496   6.218   1.263  10.716  1.3409 -0.2345  1.3306
18335TIP3    H276497   6.132   1.339  10.814  0.0224 -0.9905  0.7910
18336TIP3   OH276498   5.087   4.919  13.445 -0.8135 -0.2430 -0.1894
18336TIP3    H176499   5.010   4.975  13.440 -1.0453 -0.7743 -3.9577
18336TIP3    H276500   5.158   4.973  13.411  0.7336  0.4895  3.9109
18337TIP3   OH276501   0.253   0.209   1.691 -0.3301  0.7248  0.0376
18337TIP3    H176502   0.200   0.136   1.656 -1.0087  1.9611 -1.5882
18337TIP3    H276503   0.269   0.265   1.615  1.3279  1.5973  1.0042
18338TIP3   OH276504   0.269   3.577  11.070 -0.3924  0.2222 -0.1004
18338TIP3    H176505   0.218   3.545  10.996 -1.0245  0.8059  0.0793
18338TIP3    H276506   0.231   3.662  11.091 -0.9741 -0.4263  1.6055
18339TIP3   OH276507   5.915   4.965  12.633  0.5039 -0.2054 -0.0350
18339TIP3    H176508   5.994   4.988  12.585  0.8531 -3.2245 -0.9904
18339TIP3    H276509   5.945   4.906  12.702 -0.6173  0.5074  1.0824
18340TIP3   OH276510   4.417   0.832  14.361  0.0592  0.5120  0.0520
18340TIP3    H176511   4.505   0.871  14.357  0.4442 -0.3166  0.2654
18340TIP3    H276512   4.423   0.766  14.431  0.3564 -2.1845 -2.4185
18341TIP3   OH276513   6.594   0.662  16.827 -0.0047  0.1088  0.1829
18341TIP3    H176514   6.557   0.594  16.884  2.5610 -1.1834  0.3848
18341TIP3    H276515   6.543   0.656  16.746 -0.6007 -1.2372  0.6458
18342TIP3   OH276516   2.848   4.988  14.222 -0.0129  0.2232  0.2485
18342TIP3    H176517   2.891   5.022  14.301 -2.9831  0.1592  1.9913
18342TIP3    H276518   2.917   4.988  14.155  2.7537 -0.2293  2.9602
18343TIP3   OH276519   1.614   3.843   5.494  0.3554  0.7364  0.0638
18343TIP3    H176520   1.624   3.858   5.588  0.0302  2.6320 -0.1788
18343TIP3    H276521   1.589   3.929   5.459 -0.0288 -0.0715 -1.6785
18344TIP3   OH276522   5.592   2.377   3.386 -0.2149  0.7941 -0.1585
18344TIP3    H176523   5.510   2.388   3.337 -1.1255  0.2960  1.2508
18344TIP3    H276524   5.613   2.284   3.377 -0.9452  0.4849  1.2809
18345TIP3   OH276525   3.154   6.139   2.415  0.3565 -0.0429  0.0387
18345TIP3    H176526   3.125   6.048   2.407 -0.4450  0.3201 -1.2840
18345TIP3    H276527   3.246   6.138   2.388  0.7645 -0.6869  1.3879
18346TIP3   OH276528   6.797   0.665  13.859  0.1930  0.0642  0.7064
18346TIP3    H176529   6.736   0.592  13.875  0.5392 -0.5839 -0.8137
18346TIP3    H276530   6.844   0.639  13.779  0.5841  1.7948  0.3685
18347TIP3   OH276531   2.517   4.578   3.410  0.0569  0.0532  0.1228
18347TIP3    H176532   2.604   4.585   3.449  0.2213  0.3171 -0.2867
18347TIP3    H276533   2.461   4.629   3.469  0.0774 -0.5769  0.6894
18348TIP3   OH276534   1.918   2.811   1.944 -0.2933  0.3503  0.2348
18348TIP3    H176535   1.932   2.722   1.912 -0.0763  0.0190  1.2284
18348TIP3    H276536   2.000   2.834   1.989  0.0233  1.4256 -0.8579
18349TIP3   OH276537   4.616   1.247  15.581 -0.3999 -0.0481 -0.4019
18349TIP3    H176538   4.624   1.273  15.489 -1.4235  0.5398 -0.3314
18349TIP3    H276539   4.525   1.267  15.604  0.2799  1.3555  1.2017
18350TIP3   OH276540   0.831   3.139  13.813 -0.2677 -0.5182 -0.6532
18350TIP3    H176541   0.815   3.046  13.830 -3.3690  0.0707 -0.0759
18350TIP3    H276542   0.780   3.158  13.734 -0.0290  0.7890 -0.5070
18351TIP3   OH276543   1.241   3.703   1.511 -0.1021  0.4042 -0.2365
18351TIP3    H176544   1.156   3.727   1.548  0.0390  0.2973  0.1683
18351TIP3    H276545   1.227   3.698   1.417 -1.1394 -2.0383  0.0123
18352TIP3   OH276546   0.106   5.680  15.588 -0.4632 -0.6364  0.1857
18352TIP3    H176547   0.191   5.640  15.571 -1.3394 -1.8020 -1.5633
18352TIP3    H276548   0.114   5.715  15.677  2.0991  0.0040 -0.2476
18353TIP3   OH276549   2.511   5.457   4.587  0.0100 -0.0363 -0.0352
18353TIP3    H176550   2.518   5.528   4.652 -2.1838  1.4853 -1.3973
18353TIP3    H276551   2.529   5.499   4.503  0.3159 -1.4531 -0.6946
18354TIP3   OH276552   0.831   5.549   2.036 -0.2659 -0.2265  0.1282
18354TIP3    H176553   0.770   5.607   2.083  0.1271  0.1804  0.1385
18354TIP3    H276554   0.775   5.500   1.976 -0.9344 -1.5226  1.7645
18355TIP3   OH276555   4.698   2.840  14.715 -0.4084 -0.1161  0.4475
18355TIP3    H176556   4.625   2.810  14.769 -0.3412  0.9610  1.1407
18355TIP3    H276557   4.716   2.929  14.744  1.4881 -0.5114  0.6083
18356TIP3   OH276558   0.920   1.853   3.785 -0.2407 -0.2008 -0.1596
18356TIP3    H176559   0.844   1.801   3.760  0.4019 -1.6301  0.7891
18356TIP3    H276560   0.906   1.874   3.877  0.0517  0.3243 -0.2365
18357TIP3   OH276561   5.862   4.072   4.618  0.6084 -0.5055 -0.2843
18357TIP3    H176562   5.897   4.161   4.620 -1.6722  0.4475 -0.9842
18357TIP3    H276563   5.933   4.018   4.582  1.7355  1.1496 -0.5750
18358TIP3   OH276564   1.719   5.922   6.301  0.5930 -0.1721 -0.3646
18358TIP3    H176565   1.776   5.861   6.253  1.8327  0.2037  0.6172
18358TIP3    H276566   1.685   5.871   6.374 -0.6000 -0.4854 -1.1187
18359TIP3   OH276567   6.384   3.160  15.168  0.0376  0.2053 -0.1798
18359TIP3    H176568   6.322   3.232  15.180 -0.1490 -0.0528  0.4830
18359TIP3    H276569   6.429   3.154  15.253 -0.8960 -1.3218  0.2340
18360TIP3   OH276570   0.256   3.814  11.817 -0.5252 -0.1604 -0.4234
18360TIP3    H176571   0.325   3.789  11.879 -0.3144  1.1311 -0.1198
18360TIP3    H276572   0.175   3.808  11.867 -0.5818 -1.1001 -0.6117
18361TIP3   OH276573   0.174   0.757  13.266  0.0903  0.0372  0.8727
18361TIP3    H176574   0.226   0.828  13.229 -1.6300  0.7084 -0.3214
18361TIP3    H276575   0.141   0.709  13.189 -1.9359  0.2852  1.5650
18362TIP3   OH276576   1.087   0.960  13.524  0.5544  0.2271  0.0684
18362TIP3    H176577   1.014   1.001  13.477  1.7465  1.5474 -0.6520
18362TIP3    H276578   1.049   0.879  13.559 -0.7219 -0.1319 -2.0117
18363TIP3   OH276579   2.265   4.807  12.609 -0.4709  0.0177  0.9118
18363TIP3    H176580   2.304   4.795  12.523  0.4667 -0.7045  1.4287
18363TIP3    H276581   2.302   4.889  12.641 -2.1517  1.2091 -0.0658
18364TIP3   OH276582   2.282   5.590  13.164  0.5819  0.0086 -0.7192
18364TIP3    H176583   2.356   5.529  13.167  1.5056  1.1264  0.3852
18364TIP3    H276584   2.306   5.651  13.094 -0.6198 -1.2178 -2.2240
18365TIP3   OH276585   1.507   0.250  15.032  0.4166 -0.1470  0.1770
18365TIP3    H176586   1.475   0.222  14.946  1.2069 -0.1392 -0.1169
18365TIP3    H276587   1.569   0.182  15.058 -0.3773 -0.5467  1.0852
18366TIP3   OH276588   2.274   6.297   6.163 -0.0611  0.0514  0.2159
18366TIP3    H176589   2.269   6.338   6.250 -0.2790  0.7431 -0.1213
18366TIP3    H276590   2.218   6.219   6.171 -0.1918  0.1862  0.6500
18367TIP3   OH276591   4.931   5.939   0.731 -0.3690  0.4131 -0.7453
18367TIP3    H176592   4.842   5.954   0.762 -0.7096  0.4396 -1.7049
18367TIP3    H276593   4.927   5.958   0.637  0.5651  0.0632 -0.8620
18368TIP3   OH276594   5.536   4.112   3.865 -0.0279  0.3813 -0.6187
18368TIP3    H176595   5.494   4.180   3.917  0.7659  0.6639 -0.3452
18368TIP3    H276596   5.544   4.037   3.925 -1.8061 -0.3191 -1.2020
18369TIP3   OH276597   4.202   3.458  13.088  0.1648  0.4241  0.0622
18369TIP3    H176598   4.205   3.451  13.183  1.9487 -0.6610 -0.0596
18369TIP3    H276599   4.266   3.394  13.057 -0.9441  0.2224 -1.8915
18370TIP3   OH276600   4.599   5.770   0.037 -0.5036  0.1793 -0.2073
18370TIP3    H176601   4.568   5.682   0.016  0.8786 -0.3760  0.0385
18370TIP3    H276602   4.690   5.771   0.007 -0.4063  1.4054  0.1279
18371TIP3   OH276603   3.841   5.478  14.436  0.0993 -0.4783  0.0616
18371TIP3    H176604   3.847   5.574  14.430  1.3278 -0.5727 -0.2954
18371TIP3    H276605   3.760   5.456  14.391 -0.4684  0.4407  0.6167
18372TIP3   OH276606   6.786   4.973  14.013 -0.1509 -0.2363  0.5489
18372TIP3    H176607   6.846   5.000  14.083 -1.1950  1.4374  0.8393
18372TIP3    H276608   6.836   4.910  13.962  1.5951  0.5592  1.2153
18373TIP3   OH276609   5.882   0.673   5.355  0.3395  0.2596  0.0205
18373TIP3    H176610   5.875   0.701   5.264  0.8703  0.5058  0.0572
18373TIP3    H276611   5.855   0.749   5.406 -1.3479 -0.3216  0.0455
18374TIP3   OH276612   6.415   6.687  11.728  0.4798 -1.1843 -0.2400
18374TIP3    H176613   6.438   6.611  11.675 -2.8951 -2.9206  0.6454
18374TIP3    H276614   6.337   6.723  11.685  0.4540  0.1474  0.9033
18375TIP3   OH276615   2.581   0.993  16.286 -0.5800  0.1067  0.2423
18375TIP3    H176616   2.638   0.937  16.338 -0.5203  0.2639  0.3488
18375TIP3    H276617   2.544   1.055  16.349 -0.1554  0.5857  0.0191
18376TIP3   OH276618   0.963   3.360  11.418 -0.3196  0.5604  0.5032
18376TIP3    H176619   1.021   3.343  11.493 -1.3105 -0.2418  1.0989
18376TIP3    H276620   1.004   3.314  11.345 -1.7201 -2.4708  1.5770
18377TIP3   OH276621   1.099   1.711   2.458  0.1748 -0.2285 -0.2173
18377TIP3    H176622   1.112   1.781   2.522  1.9317  0.9936 -1.8545
18377TIP3    H276623   1.139   1.634   2.497  1.2107  0.5012  0.1748
18378TIP3   OH276624   4.067   6.687   0.436  0.2521 -0.1078 -0.2799
18378TIP3    H176625   4.149   6.728   0.463  0.6102 -0.6379 -0.5576
18378TIP3    H276626   4.069   6.690   0.341  0.6789 -1.5389 -0.3251
18379TIP3   OH276627   2.263   4.914  13.621 -0.5068  0.5534  0.2087
18379TIP3    H176628   2.287   4.836  13.570 -2.4003 -0.0823  0.2490
18379TIP3    H276629   2.299   4.987  13.571 -0.1135 -0.2456 -0.6957
18380TIP3   OH276630   6.040   0.436   5.290  0.0385 -0.1208 -0.8214
18380TIP3    H176631   5.995   0.393   5.362  0.4048 -0.1329 -0.5994
18380TIP3    H276632   5.999   0.523   5.285 -0.9056 -0.5967 -1.4655
18381TIP3   OH276633   4.764   0.274   4.345 -0.0608 -0.4691 -0.3324
18381TIP3    H176634   4.831   0.274   4.414 -1.6076 -3.5889  1.2548
18381TIP3    H276635   4.759   0.366   4.318  4.5221 -0.0466 -0.2182
18382TIP3   OH276636   4.091   3.799  14.463 -0.0014  0.5777 -0.4120
18382TIP3    H176637   4.124   3.810  14.553  1.7347  0.2180 -0.9746
18382TIP3    H276638   4.142   3.861  14.411  0.7372 -0.9279 -1.5270
18383TIP3   OH276639   6.505   2.504  13.975 -0.1678  0.0661  0.6022
18383TIP3    H176640   6.591   2.466  13.994  0.1965 -0.3734 -1.7557
18383TIP3    H276641   6.508   2.591  14.015  1.7653  0.4522 -0.3195
18384TIP3   OH276642   6.049   1.879   1.406 -0.1545 -0.6037 -0.0275
18384TIP3    H176643   5.997   1.894   1.485  1.1491  0.4247  0.6508
18384TIP3    H276644   6.137   1.860   1.437  0.5336  0.4699 -1.2300
18385TIP3   OH276645   4.177   2.768  14.430 -0.1337  0.7404 -0.1625
18385TIP3    H176646   4.225   2.698  14.475 -0.1133 -0.8262 -2.5189
18385TIP3    H276647   4.087   2.735  14.426 -0.5558  1.8004  0.5533
18386TIP3   OH276648   3.470   0.890   5.583  0.1685 -0.4427  0.3163
18386TIP3    H176649   3.549   0.927   5.623  1.0186 -1.4504 -0.3984
18386TIP3    H276650   3.398   0.924   5.636  0.9552  1.7819  0.0142
18387TIP3   OH276651   0.839   2.348   4.194 -0.0281 -0.1658 -0.0547
18387TIP3    H176652   0.774   2.307   4.251 -0.6336  2.0917  0.9361
18387TIP3    H276653   0.923   2.322   4.231 -0.4053  0.0317  0.9690
18388TIP3   OH276654   2.421   3.202   4.825 -0.0534 -0.3428  0.4207
18388TIP3    H176655   2.451   3.272   4.883  0.4909 -0.3972  0.2047
18388TIP3    H276656   2.470   3.125   4.854  0.4573 -0.3021 -0.3138
18389TIP3   OH276657   1.445   4.206  12.314 -0.6069 -0.1912  0.0992
18389TIP3    H176658   1.354   4.216  12.285 -0.3108 -2.3418 -1.7597
18389TIP3    H276659   1.497   4.228  12.237  0.4268  0.1334  0.8888
18390TIP3   OH276660   2.574   1.366   4.592  0.0954 -0.2763 -0.1231
18390TIP3    H176661   2.583   1.349   4.498  0.9059  0.5774 -0.2027
18390TIP3    H276662   2.653   1.329   4.631  0.1311  0.0611  0.1269
18391TIP3   OH276663   2.028   0.847   5.665 -0.1240  1.3808 -0.1745
18391TIP3    H176664   2.111   0.891   5.646 -0.0344  0.6035 -1.7316
18391TIP3    H276665   2.053   0.766   5.710 -0.1546  1.9553  0.8791
18392TIP3   OH276666   3.899   0.339  11.287  0.0934  1.0849  0.2818
18392TIP3    H176667   3.920   0.376  11.373  1.5733 -0.7687  0.7398
18392TIP3    H276668   3.944   0.395  11.225  2.1334  0.2428  0.9554
18393TIP3   OH276669   4.516   6.241  11.627  0.2109  0.5327 -0.1299
18393TIP3    H176670   4.521   6.259  11.533  0.0510  1.0250 -0.0444
18393TIP3    H276671   4.592   6.287  11.664  1.3177 -1.1618 -0.2491
18394TIP3   OH276672   4.876   6.677   2.857  0.3171 -0.2669  0.2201
18394TIP3    H176673   4.937   6.616   2.900 -0.9368 -1.7257 -0.0366
18394TIP3    H276674   4.933   6.745   2.820  1.7168 -1.1019  0.7905
18395TIP3   OH276675   1.906   4.344  11.805  0.6547 -0.0006 -0.6149
18395TIP3    H176676   1.814   4.341  11.831  0.7012  0.7957 -0.3629
18395TIP3    H276677   1.915   4.272  11.743  0.3352 -1.3313  0.8645
18396TIP3   OH276678   0.222   2.206   5.249  0.6852  0.3693 -0.3552
18396TIP3    H176679   0.209   2.113   5.234  3.4899 -0.1712  0.3631
18396TIP3    H276680   0.291   2.231   5.187 -0.3604  2.0752 -0.8721
18397TIP3   OH276681   5.815   4.153  11.347  0.2231  0.3729 -0.0537
18397TIP3    H176682   5.746   4.125  11.407 -1.2305  1.2988 -1.2514
18397TIP3    H276683   5.894   4.157  11.401 -1.1430  1.6431  1.9016
18398TIP3   OH276684   6.452   6.031   1.387  0.3099  0.2730 -0.4103
18398TIP3    H176685   6.384   6.000   1.327 -0.8684  1.5229  0.2455
18398TIP3    H276686   6.429   5.992   1.471  1.3115 -0.5648 -0.5204
18399TIP3   OH276687   5.494   0.440  11.875 -0.6279 -0.3610  0.3201
18399TIP3    H176688   5.443   0.451  11.795 -1.4704 -1.0331  0.7556
18399TIP3    H276689   5.581   0.473  11.853 -0.2957 -2.2804 -1.4620
18400TIP3   OH276690   4.320   6.610   6.171  0.0134 -0.3600 -0.3450
18400TIP3    H176691   4.227   6.604   6.196  0.6279 -1.8596  1.6532
18400TIP3    H276692   4.368   6.576   6.246  2.2151  0.3976 -1.3622
18401TIP3   OH276693   3.684   1.889  12.701 -0.3606  0.1059  0.3320
18401TIP3    H176694   3.668   1.922  12.789  1.1633 -0.4134  0.8335
18401TIP3    H276695   3.671   1.964  12.644 -2.9579  0.0616  0.8177
18402TIP3   OH276696   4.997   1.571   2.703  0.0274 -0.5552  0.3855
18402TIP3    H176697   4.938   1.626   2.755  0.0903 -0.1547  0.0407
18402TIP3    H276698   4.943   1.541   2.630  0.0674 -0.7325  0.4287
18403TIP3   OH276699   4.557   2.762   5.035 -0.1119 -0.5246 -0.3787
18403TIP3    H176700   4.637   2.761   5.088 -0.2033 -0.8191 -0.2435
18403TIP3    H276701   4.520   2.849   5.048  1.0413  0.2105 -1.7299
18404TIP3   OH276702   0.784   5.491  16.091  0.0974  0.2414 -0.1590
18404TIP3    H176703   0.734   5.415  16.063  1.6081 -1.0511  0.6120
18404TIP3    H276704   0.872   5.476  16.058  0.6555  1.1805  0.8595
18405TIP3   OH276705   4.488   0.357  13.388 -0.0206 -0.1166 -0.7186
18405TIP3    H176706   4.443   0.441  13.374  1.3677  0.6602 -0.5758
18405TIP3    H276707   4.450   0.300  13.321  0.5379  1.2278 -2.2349
18406TIP3   OH276708   5.492   0.650   1.402  0.0398 -0.3561 -0.2366
18406TIP3    H176709   5.508   0.727   1.457 -0.9552 -0.6136  0.4334
18406TIP3    H276710   5.527   0.674   1.317  2.6742 -0.3854  0.7915
18407TIP3   OH276711   2.433   6.446   5.717  0.5923  0.1396 -0.1232
18407TIP3    H176712   2.420   6.401   5.633  0.7020 -2.6811  1.2842
18407TIP3    H276713   2.413   6.537   5.699 -2.0943 -0.8501 -2.5890
18408TIP3   OH276714   4.921   5.654   2.069 -0.5277 -0.2849 -0.9086
18408TIP3    H176715   4.992   5.612   2.020  0.3390 -0.1569  0.2340
18408TIP3    H276716   4.950   5.654   2.160 -1.9130 -0.0582 -0.4532
18409TIP3   OH276717   1.561   4.021  10.503  0.1057  0.1289 -0.2228
18409TIP3    H176718   1.637   4.041  10.558 -0.3107  0.3271  0.2862
18409TIP3    H276719   1.597   3.975  10.428  1.0240  2.2226 -1.1012
18410TIP3   OH276720   1.660   3.090   2.920 -0.1560 -0.1878 -0.3009
18410TIP3    H176721   1.722   3.035   2.967 -1.4515  0.1082  1.8572
18410TIP3    H276722   1.700   3.177   2.921 -0.8629  0.1411  1.6709
18411TIP3   OH276723   3.042   4.145  14.324  0.0254 -0.1501  0.2957
18411TIP3    H176724   3.077   4.060  14.298 -0.7766 -0.3792 -0.0234
18411TIP3    H276725   3.120   4.196  14.349  0.3900 -1.4386  1.8676
18412TIP3   OH276726   0.789   4.646  13.981 -0.2323  0.2531 -0.2703
18412TIP3    H176727   0.698   4.673  13.965  0.3969  2.9103  0.3416
18412TIP3    H276728   0.839   4.728  13.980  1.7285 -0.8276  2.3308
18413TIP3   OH276729   2.424   2.435   0.878 -0.0460 -0.5066  0.1918
18413TIP3    H176730   2.394   2.506   0.821  1.3802  0.8078  1.0421
18413TIP3    H276731   2.357   2.368   0.870 -1.1669  0.7325 -1.0216
18414TIP3   OH276732   1.371   4.549   4.349  0.2393 -0.1965  0.6456
18414TIP3    H176733   1.291   4.505   4.320 -0.4688  0.0353  2.2142
18414TIP3    H276734   1.420   4.482   4.396 -0.1977  0.2995  1.8337
18415TIP3   OH276735   4.012   6.811   6.442  0.1048 -0.1430  0.0546
18415TIP3    H176736   4.095   6.780   6.477  1.3338  2.0088 -0.9074
18415TIP3    H276737   3.971   6.860   6.514  0.9131  1.0890 -0.3165
18416TIP3   OH276738   6.483   0.847   4.162  0.3507 -0.1129  0.2024
18416TIP3    H176739   6.481   0.842   4.258 -1.4949 -1.3089  0.1373
18416TIP3    H276740   6.413   0.909   4.140  0.5099 -0.1369 -0.3772
18417TIP3   OH276741   5.834   4.537  16.727 -0.9090  0.4181 -0.1231
18417TIP3    H176742   5.841   4.443  16.711  1.4030  0.9655 -2.5736
18417TIP3    H276743   5.787   4.543  16.810  1.0613 -2.9568  1.3384
18418TIP3   OH276744   2.946   2.316  16.251 -0.3925  0.3002  0.5119
18418TIP3    H176745   3.026   2.368  16.258  0.0648 -0.2038 -0.9131
18418TIP3    H276746   2.875   2.380  16.259  0.1611  1.1866 -1.4638
18419TIP3   OH276747   0.416   6.353   5.026  0.1145 -0.3140  0.1073
18419TIP3    H176748   0.509   6.358   5.048  0.0953  0.0966  0.1065
18419TIP3    H276749   0.388   6.269   5.061  0.0199  0.4321  1.9329
18420TIP3   OH276750   0.257   1.249  14.126 -0.0703 -0.7573 -0.2242
18420TIP3    H176751   0.194   1.192  14.081 -2.4143  2.1242 -0.6886
18420TIP3    H276752   0.208   1.285  14.200  1.3047  0.8726 -0.0879
18421TIP3   OH276753   3.843   0.350   2.278 -0.3283  0.2052 -0.3139
18421TIP3    H176754   3.789   0.404   2.336 -0.1877  0.0897 -0.0745
18421TIP3    H276755   3.930   0.350   2.319 -0.9718 -2.3923  1.1375
18422TIP3   OH276756   1.411   5.475   0.431  0.1529  0.0705 -0.6295
18422TIP3    H176757   1.465   5.430   0.496 -1.9069 -0.4721  0.7546
18422TIP3    H276758   1.401   5.412   0.360 -0.7216 -0.7922  0.2351
18423TIP3   OH276759   0.676   3.711   0.638 -0.1348  0.0092  0.1080
18423TIP3    H176760   0.603   3.744   0.690 -0.5321  0.6906 -0.8799
18423TIP3    H276761   0.640   3.697   0.551  0.4883 -1.2827  0.0298
18424TIP3   OH276762   3.827   2.952  15.277  0.4087  0.0690  0.1788
18424TIP3    H176763   3.764   2.892  15.236  1.5300 -1.2217  0.2896
18424TIP3    H276764   3.850   2.909  15.360  1.6639  0.3606 -0.0104
18425TIP3   OH276765   1.820   4.763   4.230  0.4114  0.0076  0.0938
18425TIP3    H176766   1.729   4.771   4.259  0.3013 -1.9108  0.3491
18425TIP3    H276767   1.843   4.851   4.198 -1.4764  0.5463  0.1529
18426TIP3   OH276768   3.848   5.720  13.153 -0.3600 -0.6905  0.0876
18426TIP3    H176769   3.806   5.753  13.073  0.7745 -1.5325 -0.8688
18426TIP3    H276770   3.880   5.798  13.198 -1.3662 -0.1794 -0.0733
18427TIP3   OH276771   0.155   0.168  10.926  0.2164  0.5933 -0.9197
18427TIP3    H176772   0.062   0.164  10.903  0.1723 -1.7189 -0.4875
18427TIP3    H276773   0.200   0.132  10.849  0.6308  0.1109 -0.4531
18428TIP3   OH276774   1.841   5.772   2.622 -0.5562  0.0869  0.2530
18428TIP3    H176775   1.897   5.697   2.643  0.1927 -0.0397 -2.0585
18428TIP3    H276776   1.760   5.733   2.591  0.3079  0.1670 -2.2212
18429TIP3   OH276777   0.017   6.482  15.023 -0.4593 -0.5192 -0.1919
18429TIP3    H176778   0.025   6.390  15.046  0.7209 -0.2683  0.4209
18429TIP3    H276779  -0.067   6.488  14.978 -0.6460 -1.8505 -0.0380
18430TIP3   OH276780   2.797   3.500  13.500 -0.4757 -0.0537 -0.1085
18430TIP3    H176781   2.701   3.502  13.499 -0.5648 -2.1856  0.8759
18430TIP3    H276782   2.820   3.426  13.444  0.5512 -0.0597  0.3136
18431TIP3   OH276783   5.780   6.100  12.125 -0.8128 -0.5034  0.2539
18431TIP3    H176784   5.873   6.101  12.145 -0.3799  1.4394 -1.6795
18431TIP3    H276785   5.753   6.192  12.132 -2.3049 -0.8721 -0.4191
18432TIP3   OH276786   6.619   1.009   1.574 -0.1252 -0.3067  0.1595
18432TIP3    H176787   6.582   0.925   1.600 -0.7257 -0.7030 -1.9121
18432TIP3    H276788   6.632   1.056   1.656  0.5000 -2.5271  1.3655
18433TIP3   OH276789   1.228   3.396   3.485 -0.2977  0.5347  0.4494
18433TIP3    H176790   1.216   3.325   3.423  0.9981  0.7751 -0.0901
18433TIP3    H276791   1.322   3.414   3.483 -0.5865  2.1401  0.7036
18434TIP3   OH276792   4.704   3.425   3.170  0.2167  0.7722  0.5580
18434TIP3    H176793   4.616   3.432   3.208 -0.9877  1.6204 -2.2815
18434TIP3    H276794   4.731   3.515   3.153  1.0299  0.4421  0.0698
18435TIP3   OH276795   1.444   1.405   1.676  0.3923  0.1209  0.4000
18435TIP3    H176796   1.368   1.346   1.672  0.7763 -0.3453  0.0131
18435TIP3    H276797   1.429   1.467   1.605  1.0453 -0.7724 -0.5088
18436TIP3   OH276798   1.137   0.673   0.382 -0.4135 -0.0339 -0.2196
18436TIP3    H176799   1.182   0.747   0.343  0.8681  0.1248  1.4926
18436TIP3    H276800   1.166   0.597   0.332 -0.7794  0.4678 -1.1930
18437TIP3   OH276801   3.745   4.237  12.199  0.4272  0.4071  0.3406
18437TIP3    H176802   3.763   4.196  12.115  1.0733  2.0597 -0.3404
18437TIP3    H276803   3.803   4.192  12.261 -0.3489 -1.0976  0.0078
18438TIP3   OH276804   5.635   1.936   1.359  0.2357 -0.3536  0.9053
18438TIP3    H176805   5.614   1.984   1.440 -0.6528  1.0496 -0.1199
18438TIP3    H276806   5.550   1.923   1.317  0.9175  1.3224 -1.0999
18439TIP3   OH276807   3.189   4.285   3.927 -0.1445 -0.0474 -0.0021
18439TIP3    H176808   3.206   4.285   4.022  0.9613 -1.0393 -0.1932
18439TIP3    H276809   3.248   4.219   3.892 -0.8160  0.0570 -1.3520
18440TIP3   OH276810   4.359   5.724   3.756  0.1672  0.0443  0.0684
18440TIP3    H176811   4.360   5.762   3.844  1.0744  0.5983 -0.1778
18440TIP3    H276812   4.324   5.793   3.700 -1.4071 -0.6664  0.1407
18441TIP3   OH276813   1.377   2.858  12.147 -0.3279 -0.5690  0.0552
18441TIP3    H176814   1.283   2.873  12.138 -0.4714 -1.1121  0.6107
18441TIP3    H276815   1.412   2.941  12.182 -0.5476 -0.2582 -0.4599
18442TIP3   OH276816   6.065   1.624  16.370 -0.3811  0.7268  0.7567
18442TIP3    H176817   6.053   1.534  16.402  2.0965  0.4575  1.0847
18442TIP3    H276818   6.112   1.668  16.441  1.1114  1.4083 -0.6153
18443TIP3   OH276819   2.703   2.201   0.777  0.5620 -0.5566  0.5586
18443TIP3    H176820   2.644   2.271   0.805  0.3228 -1.2058  1.7201
18443TIP3    H276821   2.650   2.122   0.780  0.8723 -0.8254 -0.6111
18444TIP3   OH276822   0.794   5.923  11.741  0.2018  0.3914 -0.4976
18444TIP3    H176823   0.739   5.934  11.664  0.5607  3.3200 -0.3975
18444TIP3    H276824   0.737   5.878  11.804 -1.4810  1.6702 -1.0499
18445TIP3   OH276825   1.540   2.734   3.859 -0.1421 -0.1664 -0.5463
18445TIP3    H176826   1.593   2.679   3.918 -0.0129  0.3992 -0.1304
18445TIP3    H276827   1.506   2.803   3.916  0.4047  0.6810 -1.2370
18446TIP3   OH276828   6.341   0.588   1.379 -0.2286  0.0592  0.2741
18446TIP3    H176829   6.422   0.570   1.425 -1.2434  0.0122  2.0817
18446TIP3    H276830   6.367   0.643   1.305  1.6518 -1.3112 -0.1204
18447TIP3   OH276831   6.389   1.455   3.089  0.2661 -0.1418 -0.0507
18447TIP3    H176832   6.349   1.439   3.004 -0.3657 -0.8779  0.3765
18447TIP3    H276833   6.475   1.413   3.084  0.6490  0.7067 -0.6753
18448TIP3   OH276834   3.408   0.131  14.561 -0.7604  0.0733 -0.1045
18448TIP3    H176835   3.482   0.087  14.520 -0.2922 -0.4034  1.2028
18448TIP3    H276836   3.441   0.156  14.648 -1.8113  0.7536  0.0997
18449TIP3   OH276837   4.638   0.178   1.793  0.0704  0.3576 -0.5052
18449TIP3    H176838   4.648   0.219   1.707 -1.8879  0.9900 -0.4636
18449TIP3    H276839   4.648   0.250   1.855  2.5421 -0.2688 -0.1012
18450TIP3   OH276840   0.876   1.570  13.692  0.4602  0.0714  0.3826
18450TIP3    H176841   0.900   1.654  13.731 -0.2930 -0.1322  1.2828
18450TIP3    H276842   0.807   1.591  13.629  0.5361  0.1729  0.3334
18451TIP3   OH276843   5.269   1.582   2.518 -0.1038 -0.5516 -0.2081
18451TIP3    H176844   5.333   1.511   2.513 -2.7227 -2.9912 -0.6221
18451TIP3    H276845   5.254   1.593   2.612  0.5469 -0.3395 -0.1303
18452TIP3   OH276846   1.576   2.464  15.841 -0.1012  0.2056  0.2500
18452TIP3    H176847   1.669   2.487  15.853 -0.1875 -0.9863  4.1173
18452TIP3    H276848   1.573   2.370  15.857 -1.8561  0.0973 -0.7041
18453TIP3   OH276849   6.601   6.377   6.057 -0.0178  0.3979 -0.5630
18453TIP3    H176850   6.610   6.456   6.110 -0.2753  0.7273 -1.0070
18453TIP3    H276851   6.682   6.372   6.007 -0.9947  1.7080 -2.3212
18454TIP3   OH276852   2.333   6.492   4.578  0.0775 -0.1013  0.3193
18454TIP3    H176853   2.372   6.451   4.501 -0.3841 -0.7638  0.4411
18454TIP3    H276854   2.269   6.429   4.610  1.0484 -0.3152  1.8981
18455TIP3   OH276855   5.537   5.690  12.918 -0.1588 -0.7510 -0.3801
18455TIP3    H176856   5.489   5.769  12.894 -0.0861 -0.2994  0.9147
18455TIP3    H276857   5.524   5.682  13.012  1.3596 -1.2595 -0.2005
18456TIP3   OH276858   6.121   3.935   3.874  0.4996 -0.0448 -0.5241
18456TIP3    H176859   6.190   3.992   3.840 -0.3981  1.1634 -0.3680
18456TIP3    H276860   6.081   3.896   3.797  1.0695 -0.4062 -0.6381
18457TIP3   OH276861   3.557   5.829  10.881  0.2311  0.2672  0.0139
18457TIP3    H176862   3.578   5.799  10.793  1.4775  0.2251  0.3157
18457TIP3    H276863   3.469   5.796  10.897  0.2276 -0.2267 -0.9897
18458TIP3   OH276864   3.892   3.394  15.676  0.1043 -0.5748  0.2280
18458TIP3    H176865   3.834   3.345  15.735  1.3859 -0.6859  1.4319
18458TIP3    H276866   3.945   3.448  15.735 -0.5978  1.5189 -1.0179
18459TIP3   OH276867   3.834   6.706   2.093  0.0648 -0.5528  0.2419
18459TIP3    H176868   3.890   6.647   2.043 -0.3544 -0.7382 -0.0175
18459TIP3    H276869   3.880   6.719   2.175  0.2676 -1.0719  0.2153
18460TIP3   OH276870   5.324   6.665  10.917  0.1693 -0.2875 -0.1440
18460TIP3    H176871   5.398   6.682  10.858  0.0327 -0.8799 -0.4963
18460TIP3    H276872   5.316   6.569  10.917  0.0001 -0.2710  0.6343
18461TIP3   OH276873   1.598   2.178  15.829  0.0176  0.7601  1.3553
18461TIP3    H176874   1.563   2.150  15.744  1.0400  2.3381  0.3596
18461TIP3    H276875   1.693   2.163  15.821  0.0953  0.7594  2.2853
18462TIP3   OH276876   2.167   4.154   1.774  0.3777 -0.2630  0.0335
18462TIP3    H176877   2.095   4.091   1.777  0.1466 -0.0519 -0.8231
18462TIP3    H276878   2.215   4.140   1.855 -1.2638  0.3300  1.1495
18463TIP3   OH276879   6.333   1.855  14.159  0.1171  0.0893  0.2972
18463TIP3    H176880   6.398   1.920  14.132  1.3441 -1.1065  0.3144
18463TIP3    H276881   6.273   1.903  14.216  0.7747  1.2977 -0.0114
18464TIP3   OH276882   2.197   5.913  14.000  0.0568 -0.0608  0.0980
18464TIP3    H176883   2.157   5.841  14.049  0.6546  0.6840  1.7193
18464TIP3    H276884   2.291   5.896  14.003  0.2417  1.0457  0.9321
18465TIP3   OH276885   0.874   0.083   2.736  0.1157  0.4298 -0.5224
18465TIP3    H176886   0.927   0.071   2.815 -1.5323 -0.5026  0.4688
18465TIP3    H276887   0.899   0.169   2.703  0.6629  0.9207  1.1276
18466TIP3   OH276888   1.491   4.272  16.975  0.1128 -0.0952 -0.5563
18466TIP3    H176889   1.435   4.214  16.924  0.3531 -1.4973  0.7457
18466TIP3    H276890   1.576   4.228  16.979  1.0302  1.5150 -1.6214
18467TIP3   OH276891   1.279   2.511  13.643 -0.3359 -0.6355  0.3439
18467TIP3    H176892   1.239   2.585  13.688  2.0693  0.1143  1.3107
18467TIP3    H276893   1.371   2.515  13.667  0.2020 -2.7726 -1.2119
18468TIP3   OH276894   1.982   5.297   3.946  0.1729 -0.3637  0.3514
18468TIP3    H176895   1.982   5.201   3.944 -1.7888 -0.3525 -0.9441
18468TIP3    H276896   1.900   5.320   3.991  0.4869  0.7065  0.3890
18469TIP3   OH276897   1.044   2.125  11.290  0.3274 -0.3112  0.0998
18469TIP3    H176898   0.989   2.199  11.265  0.0343 -0.3550  0.6075
18469TIP3    H276899   1.076   2.148  11.377  0.5260 -0.6185  0.1088
18470TIP3   OH276900   5.335   2.209   0.322 -0.5246 -0.2189 -0.0648
18470TIP3    H176901   5.349   2.230   0.414  1.6943 -0.7206 -0.2643
18470TIP3    H276902   5.246   2.239   0.304 -0.2389  1.8317  1.6980
18471TIP3   OH276903   6.724   6.615  11.039 -0.3289 -0.6294  0.1885
18471TIP3    H176904   6.802   6.656  11.078 -0.2303 -0.1443 -0.5234
18471TIP3    H276905   6.727   6.524  11.069  0.3784 -0.5478  0.3633
18472TIP3   OH276906   3.967   3.120   1.981  0.0398  0.4649 -0.1162
18472TIP3    H176907   4.053   3.160   1.966  0.0040  0.2092 -1.0081
18472TIP3    H276908   3.904   3.185   1.950 -0.1429  1.1352  1.5916
18473TIP3   OH276909   5.973   6.320  13.895 -0.2875  0.4487  0.6633
18473TIP3    H176910   5.920   6.284  13.823  0.4846  0.8682 -0.1316
18473TIP3    H276911   5.949   6.267  13.971 -2.2725  0.9881  0.4652
18474TIP3   OH276912   1.101   2.483  11.731 -0.2035  0.4542  0.1224
18474TIP3    H176913   1.021   2.431  11.738  0.5645 -0.6936  0.5153
18474TIP3    H276914   1.119   2.484  11.637 -1.5917  2.1548 -0.1559
18475TIP3   OH276915   4.962   6.238   2.715 -0.2259 -0.1019 -0.1744
18475TIP3    H176916   4.916   6.321   2.706 -1.6447 -0.9163 -0.6280
18475TIP3    H276917   4.966   6.203   2.626  0.3321 -0.5450  0.0196
18476TIP3   OH276918   5.295   3.214  11.255  0.0260  0.1621  0.6722
18476TIP3    H176919   5.372   3.242  11.305  1.1594 -1.9473  0.1821
18476TIP3    H276920   5.325   3.209  11.165 -0.1524 -2.3776  0.7165
18477TIP3   OH276921   4.053   2.142  15.404 -0.1357 -0.3145 -0.2009
18477TIP3    H176922   3.967   2.163  15.441  0.3241 -0.9005  1.2440
18477TIP3    H276923   4.111   2.208  15.442 -0.3246  1.5557 -3.0163
18478TIP3   OH276924   3.005   1.750   1.264  0.3212  0.0626 -0.1063
18478TIP3    H176925   3.064   1.683   1.230 -0.2470 -1.5687  1.9820
18478TIP3    H276926   3.062   1.815   1.304  0.9498  1.6158 -3.3784
18479TIP3   OH276927   5.144   4.782   2.926 -0.3675 -0.5824 -0.1745
18479TIP3    H176928   5.057   4.775   2.964  0.0041 -0.8620  0.6285
18479TIP3    H276929   5.129   4.821   2.840 -1.2784 -0.5877 -0.0251
18480TIP3   OH276930   0.305   0.142   0.626 -0.1379  0.1520  0.3162
18480TIP3    H176931   0.335   0.183   0.546  2.8836 -1.0706  0.7662
18480TIP3    H276932   0.381   0.141   0.684 -1.2091 -2.3371  1.8233
18481TIP3   OH276933   0.433   4.140   2.223  0.5164  0.0490  0.5585
18481TIP3    H176934   0.452   4.051   2.192 -0.3263 -0.4820  1.5024
18481TIP3    H276935   0.486   4.149   2.303  1.3131  0.7465 -0.0380
18482TIP3   OH276936   6.573   5.465   5.084  0.4525 -0.3780 -0.5500
18482TIP3    H176937   6.626   5.493   5.159 -1.6495  1.6878  0.2319
18482TIP3    H276938   6.496   5.423   5.124 -0.4450  0.2977 -1.5536
18483TIP3   OH276939   4.216   3.631   0.719 -0.1818 -0.2694 -0.2231
18483TIP3    H176940   4.233   3.723   0.699 -0.4789 -0.3435 -0.8413
18483TIP3    H276941   4.303   3.592   0.729 -0.0631  0.1802  0.5236
18484TIP3   OH276942   6.655   4.332   1.957 -0.3497  0.7728  0.5383
18484TIP3    H176943   6.734   4.387   1.959 -0.1119  0.4487  0.1682
18484TIP3    H276944   6.688   4.243   1.963 -0.6822  0.6331  0.2794
18485TIP3   OH276945   2.831   0.546  11.399 -0.2948  0.3179  0.5149
18485TIP3    H176946   2.846   0.640  11.385 -0.2955  0.3893  0.9721
18485TIP3    H276947   2.906   0.518  11.452 -0.3649  0.0849  0.4911
18486TIP3   OH276948   3.549   0.538   5.100 -0.1102  0.4726 -0.3046
18486TIP3    H176949   3.455   0.533   5.115 -0.0468 -0.8933 -0.2414
18486TIP3    H276950   3.558   0.572   5.011 -0.6989 -0.4777 -0.7368
18487TIP3   OH276951   0.288   2.945  14.394  0.0618  0.2749  0.0404
18487TIP3    H176952   0.315   3.020  14.341  0.6406  1.4211  1.8887
18487TIP3    H276953   0.368   2.915  14.437 -0.2830 -1.0099 -0.1842
18488TIP3   OH276954   2.315   5.886  16.353  0.0641 -0.5256  0.0450
18488TIP3    H176955   2.227   5.848  16.346 -0.4850  0.7763 -0.2073
18488TIP3    H276956   2.356   5.867  16.269  0.3342 -1.8588  0.4577
18489TIP3   OH276957   6.095   2.232  16.177  0.2392 -0.4357  0.1925
18489TIP3    H176958   6.061   2.275  16.098 -1.0433 -0.4221  0.7484
18489TIP3    H276959   6.093   2.139  16.157 -1.4196 -0.5247  0.7214
18490TIP3   OH276960   0.436   2.311  16.507 -0.4817  0.5708 -0.1550
18490TIP3    H176961   0.517   2.283  16.549 -1.0849 -0.9578  0.0203
18490TIP3    H276962   0.428   2.404  16.529  1.2174  0.7321 -0.1804
18491TIP3   OH276963   4.565   6.649   2.861  0.3238 -0.1395 -0.2058
18491TIP3    H176964   4.604   6.589   2.798 -0.3927 -0.2250 -0.5785
18491TIP3    H276965   4.496   6.694   2.811  0.4239  0.5150  0.2443
18492TIP3   OH276966   2.713   0.052  12.512  0.0463 -0.0853 -0.0947
18492TIP3    H176967   2.763   0.094  12.442 -0.0246 -0.1478 -0.1823
18492TIP3    H276968   2.635   0.017  12.469 -0.4223  0.6317  0.1640
18493TIP3   OH276969   4.913   2.452  14.134 -0.0958 -0.1204  0.0311
18493TIP3    H176970   4.877   2.429  14.048  0.4650 -0.2687 -0.1655
18493TIP3    H276971   4.837   2.475  14.187 -0.2734  2.3722 -1.2346
18494TIP3   OH276972   3.677   5.366   4.455 -0.4144  0.0726 -0.5386
18494TIP3    H176973   3.686   5.271   4.456 -1.9539 -0.0825  0.0881
18494TIP3    H276974   3.725   5.395   4.377 -0.0210 -1.2173 -0.7749
18495TIP3   OH276975   2.809   2.401   1.037 -0.8001  0.2198  0.1337
18495TIP3    H176976   2.783   2.433   0.950  0.0688  3.5096  1.0119
18495TIP3    H276977   2.904   2.390   1.031 -0.6540  1.0538  0.8399
18496TIP3   OH276978   1.813   1.914  12.391  0.0287  0.2901  0.1726
18496TIP3    H176979   1.845   1.916  12.481  0.0695  0.2974  0.1581
18496TIP3    H276980   1.891   1.904  12.337  0.1189  1.4958  0.0732
18497TIP3   OH276981   2.969   0.248   4.793  0.1094  0.3186 -0.1481
18497TIP3    H176982   2.975   0.164   4.839  0.4872  0.0720 -0.6424
18497TIP3    H276983   3.052   0.256   4.746 -0.6323  0.1208 -1.5300
18498TIP3   OH276984   3.577   4.975   6.335 -0.1846 -0.1545 -0.3714
18498TIP3    H176985   3.614   4.917   6.401  0.9600 -0.1105 -0.9605
18498TIP3    H276986   3.522   5.036   6.384 -0.7113 -1.1965  0.3401
18499TIP3   OH276987   5.683   0.713   3.612  0.1365 -0.7893  0.2977
18499TIP3    H176988   5.772   0.720   3.646  0.1878 -1.8105  0.4004
18499TIP3    H276989   5.628   0.705   3.690  0.2786 -3.3794  0.1753
18500TIP3   OH276990   4.143   4.569   1.705  0.3696 -0.0427 -0.0516
18500TIP3    H176991   4.071   4.526   1.659 -0.1095  0.4281  0.2409
18500TIP3    H276992   4.126   4.663   1.694  0.8261  0.0733  0.1928
18501TIP3   OH276993   2.585   6.645   5.259 -0.0301  0.0659 -0.0733
18501TIP3    H176994   2.548   6.588   5.327 -1.6212  0.4769 -0.5680
18501TIP3    H276995   2.668   6.676   5.296 -0.0722 -1.0546  0.9777
18502TIP3   OH276996   0.220   0.657  12.468  0.5479  0.1687  0.3851
18502TIP3    H176997   0.207   0.576  12.419  2.1576  1.0865 -1.6040
18502TIP3    H276998   0.159   0.719  12.429  0.0171  0.2021  1.2573
18503TIP3   OH276999   1.648   1.366   3.425  0.3397 -0.6764 -0.1909
18503TIP3    H177000   1.565   1.320   3.436  0.0009 -0.0845 -0.2410
18503TIP3    H277001   1.710   1.318   3.479 -0.2643 -0.5115  0.6515
18504TIP3   OH277002   1.390   4.959   3.398  0.2120  0.8461 -1.0330
18504TIP3    H177003   1.479   4.983   3.373  0.8245 -1.2293 -0.9799
18504TIP3    H277004   1.381   4.988   3.489  3.0272 -4.2760  1.0770
18505TIP3   OH277005   0.204   5.763  15.856 -0.0244  0.0887  0.4322
18505TIP3    H177006   0.286   5.811  15.864  0.3214 -0.3550 -0.3729
18505TIP3    H277007   0.231   5.671  15.850 -0.4906  0.0556 -1.3304
18506TIP3   OH277008   6.238   0.006  14.332  0.8028 -0.4385 -0.0028
18506TIP3    H177009   6.244   0.093  14.294  1.7939 -0.0325  1.0361
18506TIP3    H277010   6.306  -0.045  14.287  0.5808 -0.5240 -0.2387
18507TIP3   OH277011   0.782   4.067  15.627 -0.6823  0.4563 -0.3460
18507TIP3    H177012   0.705   4.059  15.682  0.2169  1.0500  1.0239
18507TIP3    H277013   0.851   4.098  15.686  0.4422  0.5470 -1.6759
18508TIP3   OH277014   3.492   3.025  12.665  0.3538  0.1058 -0.1089
18508TIP3    H177015   3.511   2.962  12.596  0.2209 -0.1710  0.1036
18508TIP3    H277016   3.517   2.979  12.746  1.6227  0.8622 -0.0600
18509TIP3   OH277017   1.186   6.598   1.326  0.5554  0.2167  0.1791
18509TIP3    H177018   1.131   6.623   1.251 -0.7554 -0.4161  0.9085
18509TIP3    H277019   1.228   6.517   1.298  1.5131  0.9538 -0.5665
18510TIP3   OH277020   3.626   5.995  13.208 -0.1527 -0.1468  0.4146
18510TIP3    H177021   3.612   5.912  13.253  0.8603  0.8426  2.6135
18510TIP3    H277022   3.676   6.048  13.270 -0.1658  1.8576 -1.2373
18511TIP3   OH277023   0.217   3.527  12.864  0.1851  0.0586  0.4817
18511TIP3    H177024   0.296   3.511  12.812 -0.7076 -1.3921 -0.4832
18511TIP3    H277025   0.239   3.601  12.920  2.2882 -0.4451  0.3450
18512TIP3   OH277026   6.407   4.385   4.873  0.1199 -0.2080  0.0990
18512TIP3    H177027   6.453   4.396   4.790  0.4927 -0.2222  0.3054
18512TIP3    H277028   6.377   4.294   4.873  0.3042 -0.2675  0.0783
18513TIP3   OH277029   5.919   6.148   3.744  0.2443  0.2823 -0.4970
18513TIP3    H177030   5.923   6.079   3.811  1.2561 -1.8997 -2.7530
18513TIP3    H277031   5.830   6.181   3.750  0.2752  0.0758  1.8467
18514TIP3   OH277032   0.164   6.262  13.183  0.7820 -0.5598 -0.2388
18514TIP3    H177033   0.248   6.270  13.229  0.0733  1.7750  0.6852
18514TIP3    H277034   0.159   6.339  13.128 -1.8302  0.5966  1.5127
18515TIP3   OH277035   5.083   4.218  15.794 -0.6880  0.1084 -1.2683
18515TIP3    H177036   5.102   4.298  15.843  1.1966 -0.8224 -0.4239
18515TIP3    H277037   5.085   4.245  15.702  1.6082  0.7232 -1.0595
18516TIP3   OH277038   3.833   2.189  15.628  0.5452  0.2736 -0.5159
18516TIP3    H177039   3.835   2.276  15.669  1.3002  0.1852 -0.3671
18516TIP3    H277040   3.766   2.197  15.560 -0.9331  0.3429  0.9181
18517TIP3   OH277041   0.275   3.067  12.255  0.3265  0.1234 -0.2110
18517TIP3    H177042   0.338   3.089  12.324  1.1450 -1.4319 -0.4282
18517TIP3    H277043   0.296   3.126  12.183 -0.6498  1.8827  0.9224
18518TIP3   OH277044   0.316   2.481   2.286 -0.2606  0.0813 -0.7762
18518TIP3    H177045   0.377   2.413   2.256 -0.1325  0.2768 -0.9614
18518TIP3    H277046   0.244   2.479   2.223 -0.1586  0.2534 -0.9018
18519TIP3   OH277047   4.708   5.747   5.118 -0.3158  0.2024  0.5714
18519TIP3    H177048   4.751   5.722   5.200 -0.1468  1.1356  0.7763
18519TIP3    H277049   4.635   5.686   5.110  0.8216 -1.1393  0.4187
18520TIP3   OH277050   3.897   0.011   6.785 -0.1666  0.6938 -0.1749
18520TIP3    H177051   3.890  -0.045   6.863 -0.1363  0.3836 -0.3973
18520TIP3    H277052   3.813   0.056   6.781  0.6243  2.3730  1.3115
18521TIP3   OH277053   6.720   5.733   2.430 -0.5924 -0.3055 -0.3126
18521TIP3    H177054   6.738   5.644   2.461  3.3291  0.9533  1.4164
18521TIP3    H277055   6.787   5.749   2.364 -0.3265  1.8517  0.4406
18522TIP3   OH277056   1.668   2.156  15.156 -0.1351  0.3120  0.0490
18522TIP3    H177057   1.694   2.188  15.242 -0.0060  0.3955 -0.0194
18522TIP3    H277058   1.711   2.216  15.095  0.0102  0.0810 -0.0776
18523TIP3   OH277059   3.018   5.697   3.390  0.3338  0.5876  0.1231
18523TIP3    H177060   2.983   5.780   3.360 -0.0097 -0.0980 -1.4415
18523TIP3    H277061   3.090   5.678   3.330  0.1163 -0.4581  0.1764
18524TIP3   OH277062   1.671   6.329  13.041 -0.6411 -0.0947  0.2207
18524TIP3    H177063   1.767   6.326  13.044 -0.6357 -0.2060 -0.0195
18524TIP3    H277064   1.645   6.333  13.133 -0.4763 -2.8737  0.4254
18525TIP3   OH277065   0.736   3.767  15.195  0.0287  0.0735 -0.2072
18525TIP3    H177066   0.774   3.736  15.113 -0.7234 -0.8430 -0.2163
18525TIP3    H277067   0.810   3.803  15.244  1.1534 -2.7490  0.2831
18526TIP3   OH277068   3.299   6.724  16.004 -0.4955  0.6616  0.1569
18526TIP3    H177069   3.212   6.744  15.970  0.0211 -1.4361 -2.5303
18526TIP3    H277070   3.311   6.631  15.988  2.0722  0.7952  0.9555
18527TIP3   OH277071   1.730   1.328  13.407  1.0645  0.6439 -0.3027
18527TIP3    H177072   1.712   1.364  13.320 -1.1851  0.1205 -0.0882
18527TIP3    H277073   1.651   1.349  13.458  1.3387 -1.1786  0.9071
18528TIP3   OH277074   2.454   0.410   4.069  0.2800  0.1016  0.0413
18528TIP3    H177075   2.540   0.383   4.102  0.8120 -0.2791 -1.5924
18528TIP3    H277076   2.392   0.348   4.107  0.9614 -0.7279 -0.2000
18529TIP3   OH277077   1.721   4.943   6.249 -0.2452 -0.1892  0.3579
18529TIP3    H177078   1.799   4.898   6.219 -0.1143  0.3953 -0.1919
18529TIP3    H277079   1.668   4.875   6.291  1.0230 -0.3806  1.6854
18530TIP3   OH277080   2.325   3.078  12.406 -0.4834  0.3307  0.3997
18530TIP3    H177081   2.357   3.023  12.335  0.7087  1.4921  0.0105
18530TIP3    H277082   2.247   3.033  12.438  0.7372 -1.8325  0.4234
18531TIP3   OH277083   1.081   4.466   2.606 -0.1773  0.4584 -0.0672
18531TIP3    H177084   1.015   4.531   2.626  0.0031  0.9415 -0.9886
18531TIP3    H277085   1.147   4.513   2.555  0.1299 -0.3559 -0.4453
18532TIP3   OH277086   4.183   3.933  17.229  1.0208  0.1324  0.1490
18532TIP3    H177087   4.179   3.884  17.311  2.6676 -0.5987 -0.1835
18532TIP3    H277088   4.106   3.904  17.180 -0.8344  1.7298  2.0419
18533TIP3   OH277089   0.468   4.302  11.802  0.5016  0.6268 -0.2547
18533TIP3    H177090   0.486   4.208  11.796  1.2700  0.7423  0.2033
18533TIP3    H277091   0.400   4.310  11.870  1.0476  0.4806  0.3067
18534TIP3   OH277092   4.605   5.047  14.609  0.6535 -0.2954  0.2217
18534TIP3    H177093   4.695   5.022  14.629  0.8646  0.0386 -0.3051
18534TIP3    H277094   4.585   5.118  14.671  0.8005 -0.2682  0.2370
18535TIP3   OH277095   2.345   4.914  16.393  0.5131 -0.0057 -0.5239
18535TIP3    H177096   2.390   4.932  16.475 -1.1371  1.6055  0.0604
18535TIP3    H277097   2.403   4.948  16.325  1.5564 -0.7091  0.0037
18536TIP3   OH277098   2.866   4.431  12.359  0.2293  0.6731  0.1022
18536TIP3    H177099   2.942   4.391  12.402  1.8731  0.6977 -2.6509
18536TIP3    H277100   2.813   4.466  12.431  1.7841 -1.1541  2.2009
18537TIP3   OH277101   4.332   3.287   4.297 -0.7463 -0.6005 -0.1601
18537TIP3    H177102   4.317   3.208   4.245 -2.3826 -0.5167  0.1495
18537TIP3    H277103   4.247   3.331   4.298 -0.5625 -0.2485  2.0151
18538TIP3   OH277104   3.332   4.991  13.098  0.3876  0.0407 -0.2088
18538TIP3    H177105   3.317   4.908  13.144 -1.5561  0.0945 -0.7097
18538TIP3    H277106   3.426   5.007  13.108  0.4374 -1.2182  1.5782
18539TIP3   OH277107   5.163   5.484  16.224 -0.1437  0.0339  0.7658
18539TIP3    H177108   5.233   5.548  16.233 -1.0419  1.2490 -0.6272
18539TIP3    H277109   5.088   5.534  16.191 -0.6981 -1.8200 -0.9508
18540TIP3   OH277110   2.190   1.469   6.463 -0.3437 -0.3197  0.2296
18540TIP3    H177111   2.233   1.387   6.489  1.2822  0.2733 -0.4963
18540TIP3    H277112   2.235   1.536   6.514  1.2056  0.5740 -2.2149
18541TIP3   OH277113   3.052   2.289  11.316  0.0106 -0.2381  0.0407
18541TIP3    H177114   3.147   2.278  11.315  0.2421  1.5674 -0.7503
18541TIP3    H277115   3.039   2.384  11.328 -1.6623 -0.3510 -0.7116
18542TIP3   OH277116   1.706   0.747  12.587  0.1204  0.6896 -0.2974
18542TIP3    H177117   1.777   0.778  12.642 -0.7767  2.4778 -0.1188
18542TIP3    H277118   1.630   0.800  12.613 -0.5486  0.9354 -2.6104
18543TIP3   OH277119   3.285   4.179  15.751 -0.5825  0.6010 -0.6345
18543TIP3    H177120   3.347   4.225  15.808 -0.4750  0.2911 -0.5042
18543TIP3    H277121   3.210   4.237  15.746 -0.0928  1.2075 -1.1771
18544TIP3   OH277122   6.564   1.731   2.879 -0.1336  0.2359 -0.4113
18544TIP3    H177123   6.577   1.818   2.917  0.1882 -0.0096  0.0483
18544TIP3    H277124   6.644   1.683   2.902 -1.5360 -1.0844  1.8422
18545TIP3   OH277125   4.366   3.802  16.105 -0.5542  0.0945  0.3111
18545TIP3    H177126   4.290   3.847  16.069 -0.0598  0.5195 -0.2055
18545TIP3    H277127   4.423   3.872  16.136  0.1396 -0.1789 -0.3319
18546TIP3   OH277128   0.423   5.496  11.804  0.0731 -0.2709  0.8556
18546TIP3    H177129   0.343   5.443  11.799 -0.0180 -0.0391 -0.3407
18546TIP3    H277130   0.392   5.586  11.794  0.5301 -0.2173 -0.1468
18547TIP3   OH277131   0.602   5.621   5.432 -0.8471 -0.0575 -0.3967
18547TIP3    H177132   0.566   5.552   5.376 -1.2577 -0.7132  0.6626
18547TIP3    H277133   0.681   5.650   5.388 -1.0991 -0.6611 -1.2456
18548TIP3   OH277134   1.214   5.527   1.178 -0.1622  0.0716  0.1139
18548TIP3    H177135   1.123   5.512   1.205 -0.3016 -1.0301 -0.9104
18548TIP3    H277136   1.254   5.440   1.178  1.0729  0.6247  1.1567
18549TIP3   OH277137   4.666   4.262   4.480 -0.1206 -0.2277  0.5296
18549TIP3    H177138   4.657   4.175   4.519 -0.4463 -0.6102 -0.4082
18549TIP3    H277139   4.730   4.306   4.537  0.5210 -1.2833  0.6494
18550TIP3   OH277140   2.270   2.197  10.336  0.5432 -0.4708 -0.3111
18550TIP3    H177141   2.269   2.108  10.372  0.7310 -1.0458 -1.6567
18550TIP3    H277142   2.300   2.252  10.408 -1.7275 -1.1696  1.2178
18551TIP3   OH277143   1.794   5.664   2.304  0.0428  0.1447 -0.4711
18551TIP3    H177144   1.795   5.718   2.224  1.1934  0.4457 -0.2621
18551TIP3    H277145   1.875   5.688   2.349 -0.5811 -0.0697  0.7649
18552TIP3   OH277146   2.937   4.526   1.578  0.0150 -0.1019 -0.1185
18552TIP3    H177147   2.918   4.607   1.624  1.6165  0.7527 -0.9592
18552TIP3    H277148   2.937   4.550   1.485 -1.1234 -1.3984 -0.4819
18553TIP3   OH277149   5.750   0.141   2.824  0.3697 -0.2112  0.7337
18553TIP3    H177150   5.752   0.112   2.915 -1.0244 -1.6081  0.3485
18553TIP3    H277151   5.704   0.071   2.778  0.2245  0.9284 -0.8889
18554TIP3   OH277152   4.777   5.511   3.994  0.4849 -0.7674 -0.2958
18554TIP3    H177153   4.794   5.458   3.917  1.3820 -0.7517 -0.1105
18554TIP3    H277154   4.742   5.593   3.959 -1.4728 -1.6710 -0.5543
18555TIP3   OH277155   3.658   1.700   5.683  0.3070  0.3318 -0.1186
18555TIP3    H177156   3.730   1.683   5.745 -0.8638 -0.1954  1.1276
18555TIP3    H277157   3.659   1.795   5.671  0.2540  0.4971  1.0976
18556TIP3   OH277158   4.226   1.111   5.398 -0.3328  0.2681 -0.2650
18556TIP3    H177159   4.274   1.192   5.415 -0.3791  0.3361 -0.4655
18556TIP3    H277160   4.294   1.043   5.397 -0.1372  0.4832 -1.4414
18557TIP3   OH277161   5.700   6.589   5.485  0.1904  0.3249  0.5244
18557TIP3    H177162   5.694   6.560   5.393  0.7647 -1.4584  1.0311
18557TIP3    H277163   5.772   6.537   5.521  0.2818  1.3780  1.8690
18558TIP3   OH277164   0.245   4.408   0.182 -0.2808 -0.1235 -0.5784
18558TIP3    H177165   0.293   4.349   0.240 -0.7704  1.5889  1.6760
18558TIP3    H277166   0.308   4.476   0.159 -0.4092 -0.1834 -1.1059
18559TIP3   OH277167   5.624   6.491  12.344  0.0740  0.3214  0.0007
18559TIP3    H177168   5.645   6.518  12.433 -0.0095  0.9151 -0.1556
18559TIP3    H277169   5.592   6.571  12.302 -0.8536 -0.1800 -0.2655
18560TIP3   OH277170   4.839   0.790   1.490  0.2014 -0.1208  0.0883
18560TIP3    H177171   4.773   0.768   1.556  1.3078  0.7043  1.4922
18560TIP3    H277172   4.788   0.818   1.414 -1.1087 -2.3136  0.1202
18561TIP3   OH277173   2.984   5.542  17.273 -0.1821 -0.1855  0.0042
18561TIP3    H177174   2.997   5.567  17.364  0.8022 -0.5359 -0.0377
18561TIP3    H277175   3.033   5.607  17.223  1.4975 -1.5313 -0.1469
18562TIP3   OH277176   1.802   0.397  13.787 -0.2772 -0.1840 -0.6643
18562TIP3    H177177   1.712   0.431  13.790  0.5531  2.0911 -0.7884
18562TIP3    H277178   1.796   0.320  13.730 -2.5148 -1.2733  0.9451
18563TIP3   OH277179   5.100   4.897   5.848 -0.3558  0.1563 -0.1340
18563TIP3    H177180   5.083   4.873   5.940 -1.9160  0.3563 -0.3495
18563TIP3    H277181   5.186   4.860   5.829 -0.7709 -1.3991  0.8909
18564TIP3   OH277182   1.367   4.014   4.472  1.0049 -0.2463 -0.2162
18564TIP3    H177183   1.458   4.045   4.472 -0.1493  3.4582 -0.8619
18564TIP3    H277184   1.328   4.052   4.550 -0.7205  0.7340 -1.4961
18565TIP3   OH277185   2.604   2.434  13.009  0.4846  0.5159  0.4167
18565TIP3    H177186   2.686   2.484  13.015  0.0762  1.2127  0.2748
18565TIP3    H277187   2.630   2.344  13.024  1.0805  0.9121  1.8645
18566TIP3   OH277188   0.317   1.742   4.356  0.1518  0.2232  0.2754
18566TIP3    H177189   0.231   1.724   4.394 -0.1570 -0.5989 -0.7977
18566TIP3    H277190   0.300   1.757   4.263  1.2939 -1.0844 -0.1609
18567TIP3   OH277191   5.553   0.427   6.623  0.7240 -0.3898  0.2626
18567TIP3    H177192   5.606   0.366   6.675  0.2192  0.3291  1.6588
18567TIP3    H277193   5.545   0.505   6.679 -0.7692 -0.0292 -0.4308
18568TIP3   OH277194   6.347   1.732   4.572 -0.8547  0.9271  0.0766
18568TIP3    H177195   6.306   1.647   4.587  0.7028  0.0182 -0.6646
18568TIP3    H277196   6.374   1.761   4.659 -0.8241  0.3621  0.2593
18569TIP3   OH277197   1.488   6.598  16.641  0.3991 -0.3421  0.4217
18569TIP3    H177198   1.499   6.524  16.702 -0.3586 -1.3036 -0.5942
18569TIP3    H277199   1.453   6.669  16.695 -0.7111 -1.3305  1.0209
18570TIP3   OH277200   1.964   3.430  11.585 -0.3635  0.1616  0.0342
18570TIP3    H177201   2.011   3.359  11.541 -0.9911 -0.2738  0.0512
18570TIP3    H277202   1.928   3.482  11.513  0.8312  0.9640  0.0168
18571TIP3   OH277203   2.005   4.840   2.388 -0.4686  0.2327  0.1603
18571TIP3    H177204   2.070   4.910   2.389 -1.6464  1.3447  1.3180
18571TIP3    H277205   1.927   4.880   2.350 -0.0619 -1.5261 -2.6791
18572TIP3   OH277206   3.392   3.664   5.440  0.2971 -0.1322 -0.0986
18572TIP3    H177207   3.370   3.741   5.492  3.4045 -0.5798  1.9900
18572TIP3    H277208   3.465   3.623   5.487  1.4148 -2.0815 -3.3915
18573TIP3   OH277209   2.727   4.721  13.301  0.4329 -0.3951  0.2255
18573TIP3    H177210   2.817   4.742  13.274  0.1532 -0.0176 -0.4293
18573TIP3    H277211   2.732   4.631  13.331  0.6121 -1.0931 -1.8102
18574TIP3   OH277212   0.603   5.778  14.167  0.5499 -0.5445 -0.2392
18574TIP3    H177213   0.667   5.840  14.132  0.9871 -0.2129  1.1374
18574TIP3    H277214   0.592   5.714  14.097 -1.3698  2.1057 -2.5009
18575TIP3   OH277215   1.038   4.442   2.052 -0.0528  0.1044 -0.5185
18575TIP3    H177216   1.015   4.411   1.964  0.6603  1.4881 -1.2057
18575TIP3    H277217   1.015   4.535   2.051  0.1457  0.1682  0.7009
18576TIP3   OH277218   3.588   0.559   1.938 -0.2959 -0.2002 -0.0192
18576TIP3    H177219   3.550   0.473   1.954 -0.7055 -0.3376 -1.6324
18576TIP3    H277220   3.674   0.540   1.900 -0.8404  0.0912 -1.4129
18577TIP3   OH277221   3.936   0.514   5.131  0.2516  0.2390  0.0946
18577TIP3    H177222   4.030   0.500   5.141 -0.2989 -2.7020  1.8180
18577TIP3    H277223   3.906   0.438   5.082 -1.2276  1.2099 -0.5331
18578TIP3   OH277224   1.768   5.608   3.332  0.0279  0.4825  0.0940
18578TIP3    H177225   1.692   5.600   3.275  1.1857 -0.0416 -1.4110
18578TIP3    H277226   1.765   5.698   3.365 -0.4537  0.9099 -1.0963
18579TIP3   OH277227   6.042   4.164   5.156  0.4545 -0.2153  0.1831
18579TIP3    H177228   6.078   4.076   5.140  1.2855  0.5103 -2.1397
18579TIP3    H277229   6.118   4.216   5.181  0.3215  0.3367 -0.5583
18580TIP3   OH277230   6.349   2.013  14.643 -0.6001 -0.4670  0.3341
18580TIP3    H177231   6.433   2.025  14.600 -1.4609  0.1032 -1.2210
18580TIP3    H277232   6.351   2.075  14.716 -0.2234  0.5654 -0.5310
18581TIP3   OH277233   3.728   1.448   3.192 -0.1917 -0.1676  0.2684
18581TIP3    H177234   3.773   1.469   3.274  1.6903 -0.8553 -0.5722
18581TIP3    H277235   3.680   1.367   3.211  1.8527 -1.4306  0.1202
18582TIP3   OH277236   6.802   1.775   1.735 -0.0030  0.2520  0.2699
18582TIP3    H177237   6.711   1.775   1.765 -0.0035 -2.5308  0.4451
18582TIP3    H277238   6.797   1.784   1.640 -0.5331 -0.5012  0.2170
18583TIP3   OH277239   6.527   4.292  16.182  1.3390 -0.7875 -0.1521
18583TIP3    H177240   6.541   4.336  16.266 -0.8082 -0.8421  0.2611
18583TIP3    H277241   6.518   4.199  16.204 -1.5590 -0.5373 -0.1380
18584TIP3   OH277242   4.690   0.632   0.966  0.0792 -0.2702  0.1236
18584TIP3    H177243   4.754   0.599   0.903  1.6656  0.8357  1.1388
18584TIP3    H277244   4.670   0.556   1.021 -1.5560 -1.3288 -1.8591
18585TIP3   OH277245   6.415   0.776   5.593 -0.1140  0.2117  0.6697
18585TIP3    H177246   6.342   0.742   5.540 -0.5409  0.4279  1.1123
18585TIP3    H277247   6.379   0.853   5.637  0.4426  0.4321  0.7433
18586TIP3   OH277248   4.372   5.528   3.480  0.3520 -0.2649  0.0132
18586TIP3    H177249   4.397   5.581   3.555 -1.9162 -0.0897  0.6982
18586TIP3    H277250   4.432   5.454   3.481  1.8067  0.9140  0.6369
18587TIP3   OH277251   4.781   5.014  17.023 -0.8518  0.2057  0.1328
18587TIP3    H177252   4.800   5.107  17.020 -1.0952  0.2755  0.7549
18587TIP3    H277253   4.857   4.975  17.067 -1.5463  0.3312  1.4769
18588TIP3   OH277254   3.662   6.475  14.929  0.1846  0.3796 -0.2787
18588TIP3    H177255   3.748   6.436  14.946 -0.0667  0.6375  1.7621
18588TIP3    H277256   3.664   6.559  14.975 -1.1941  0.3189 -0.0722
18589TIP3   OH277257   1.449   3.290   0.836  0.4035  0.2750  0.0153
18589TIP3    H177258   1.472   3.302   0.928  0.0480 -1.6049  0.3849
18589TIP3    H277259   1.355   3.307   0.832  0.5991  1.3549 -0.2110
18590TIP3   OH277260   5.970   5.822   2.226 -0.5766  0.2111 -0.0437
18590TIP3    H177261   6.033   5.889   2.255 -0.6211  0.1216  0.2675
18590TIP3    H277262   5.984   5.749   2.287 -2.1708  0.8444  1.1189
18591TIP3   OH277263   4.218   3.780  16.896  0.5608  0.1686 -0.0637
18591TIP3    H177264   4.185   3.728  16.970  0.2937  0.8827  0.3248
18591TIP3    H277265   4.248   3.715  16.833 -1.3222 -0.5013 -0.3130
18592TIP3   OH277266   2.333   5.880   0.385 -0.3341 -0.7331 -0.0563
18592TIP3    H177267   2.368   5.968   0.375 -0.4541 -0.9298 -2.5530
18592TIP3    H277268   2.391   5.825   0.334 -1.7916 -1.6964 -0.7093
18593TIP3   OH277269   4.449   3.929  11.694 -0.1921 -0.1324 -0.0300
18593TIP3    H177270   4.398   3.875  11.754 -0.7421 -0.5550 -0.8601
18593TIP3    H277271   4.386   3.994  11.661 -0.1209 -0.4522 -0.8095
18594TIP3   OH277272   1.379   2.455   5.651 -0.4913  0.9471  0.1737
18594TIP3    H177273   1.365   2.458   5.745  0.6985  0.7804  0.3717
18594TIP3    H277274   1.393   2.547   5.626 -0.8291  0.9935  0.1615
18595TIP3   OH277275   5.207   0.629  16.759  0.0036 -0.3172 -0.2120
18595TIP3    H177276   5.233   0.719  16.777 -1.3218  0.0212  0.1330
18595TIP3    H277277   5.248   0.608  16.675  0.7818  0.4085 -0.0184
18596TIP3   OH277278   1.575   4.363   4.387 -0.5542 -0.6133  0.2653
18596TIP3    H177279   1.652   4.382   4.335 -0.5050 -1.1990  0.1214
18596TIP3    H277280   1.596   4.281   4.432 -1.6442 -1.5479 -0.8898
18597TIP3   OH277281   2.160   3.390   0.311  0.1242 -1.0056 -0.3188
18597TIP3    H177282   2.077   3.434   0.329  0.9499  0.5640 -0.2564
18597TIP3    H277283   2.142   3.337   0.233 -1.0237 -0.9481 -0.1048
18598TIP3   OH277284   3.397   0.245  16.998 -0.2425 -0.3781 -0.3825
18598TIP3    H177285   3.342   0.226  16.922 -1.2263  0.3449  0.1237
18598TIP3    H277286   3.480   0.275  16.962  0.3274 -2.8506 -1.1713
18599TIP3   OH277287   0.424   4.263   4.175 -0.1380 -0.0855  0.6073
18599TIP3    H177288   0.426   4.344   4.124  0.8136  0.9260  2.2213
18599TIP3    H277289   0.373   4.202   4.121 -0.3328  1.3834 -0.9036
18600TIP3   OH277290   6.173   0.802  16.618 -0.2504 -0.4273  0.1453
18600TIP3    H177291   6.175   0.748  16.539  0.0534 -0.2109  0.0015
18600TIP3    H277292   6.136   0.886  16.588 -0.7935 -0.5800  0.3788
18601TIP3   OH277293   2.622   3.381  14.006 -0.1931 -1.4648 -0.6839
18601TIP3    H177294   2.674   3.424  13.938 -3.3660  0.9609 -1.7130
18601TIP3    H277295   2.650   3.422  14.087 -0.4661 -0.1969 -1.2213
18602TIP3   OH277296   5.501   3.208  16.698  0.0529 -0.0552 -0.4567
18602TIP3    H177297   5.411   3.239  16.681  0.2797 -0.0371 -1.6677
18602TIP3    H277298   5.490   3.133  16.756 -0.5870  1.5739  1.5815
18603TIP3   OH277299   5.088   4.619  16.509  0.0815  0.3560 -0.2413
18603TIP3    H177300   5.167   4.623  16.455  0.2725  0.3296  0.0360
18603TIP3    H277301   5.103   4.684  16.577 -0.0891  0.2706 -0.1254
18604TIP3   OH277302   0.189   6.337  10.925  0.6194 -0.0932  0.7853
18604TIP3    H177303   0.108   6.287  10.934  0.4292  0.4351  2.1495
18604TIP3    H277304   0.208   6.336  10.831  0.1126 -1.9228  0.6910
18605TIP3   OH277305   4.936   4.547  13.601 -0.0570 -0.2678  0.2469
18605TIP3    H177306   4.907   4.457  13.614 -0.5216 -0.0195  0.9088
18605TIP3    H277307   5.027   4.548  13.631 -0.6249 -0.0752  2.0223
18606TIP3   OH277308   1.903   0.795  16.484  0.2065 -0.7082  0.0094
18606TIP3    H177309   1.882   0.873  16.535  1.6690 -0.0362 -0.3627
18606TIP3    H277310   1.907   0.827  16.393 -2.4122 -1.8921 -0.5477
18607TIP3   OH277311   2.526   3.157  13.885 -0.2788  0.1467 -0.5647
18607TIP3    H177312   2.530   3.246  13.920 -0.1425 -0.8021  1.8838
18607TIP3    H277313   2.433   3.133  13.890 -0.3267  0.1649 -1.2907
18608TIP3   OH277314   6.292   0.200  14.632 -0.0976 -0.0228  0.1057
18608TIP3    H177315   6.325   0.138  14.567  0.4802  0.6640 -0.2700
18608TIP3    H277316   6.369   0.229  14.679 -0.4127  0.1255  0.5296
18609TIP3   OH277317   3.139   1.658   1.056 -0.1010 -0.3277 -0.2408
18609TIP3    H177318   3.067   1.698   1.008  0.7302  1.0797 -0.3581
18609TIP3    H277319   3.147   1.570   1.018 -1.6595 -0.4545 -0.3012
18610TIP3   OH277320   5.102   6.405   4.339 -0.3251 -0.3016  0.4132
18610TIP3    H177321   5.049   6.467   4.390 -1.4838  1.3106 -2.6699
18610TIP3    H277322   5.158   6.461   4.284  1.2386 -2.0149  0.1985
18611TIP3   OH277323   5.629   4.399  10.832 -0.1089 -0.1670 -0.4126
18611TIP3    H177324   5.719   4.404  10.864 -0.8071 -1.4390  1.8450
18611TIP3    H277325   5.617   4.306  10.809 -0.8819 -0.0305 -0.5807
18612TIP3   OH277326   3.894   5.539  13.370 -0.3139  0.1846 -0.0070
18612TIP3    H177327   3.899   5.585  13.286 -0.3576  1.6158  0.7555
18612TIP3    H277328   3.936   5.598  13.433  0.5612 -1.2835  0.8271
18613TIP3   OH277329   0.705   4.687  11.229  0.0861  0.4846  0.0108
18613TIP3    H177330   0.619   4.719  11.255  1.1367  1.2783  2.6859
18613TIP3    H277331   0.698   4.591  11.237 -0.1033  0.6296  1.7483
18614TIP3   OH277332   3.112   0.244   0.583 -0.0338 -0.5612  0.3916
18614TIP3    H177333   3.128   0.243   0.489 -1.1081 -1.1151  0.1965
18614TIP3    H277334   3.198   0.234   0.623  0.3827 -0.7212 -0.5453
18615TIP3   OH277335   5.101   3.738   0.353 -0.3347 -0.0724 -0.2520
18615TIP3    H177336   5.022   3.725   0.404 -1.1412  0.1048 -1.4473
18615TIP3    H277337   5.128   3.650   0.326 -0.0630 -0.1406  0.2314
18616TIP3   OH277338   0.580   3.242   3.565  0.5756 -1.1234  0.4941
18616TIP3    H177339   0.653   3.226   3.505 -0.2796 -0.7986 -0.6736
18616TIP3    H277340   0.503   3.210   3.517 -0.2218 -0.1387  1.0906
18617TIP3   OH277341   5.029   3.052  14.853  0.1451  0.0851  0.4469
18617TIP3    H177342   4.959   3.089  14.798 -0.4376 -0.9113  0.4996
18617TIP3    H277343   4.991   3.049  14.941  0.3466 -0.2027  0.5236
18618TIP3   OH277344   1.899   5.410  11.081  0.3771 -0.1334 -0.0907
18618TIP3    H177345   1.829   5.352  11.113  0.5177 -0.6731 -0.7691
18618TIP3    H277346   1.959   5.352  11.035  0.5197  0.5517 -0.7762
18619TIP3   OH277347   2.965   0.466  16.487  0.2443 -0.1960 -0.0463
18619TIP3    H177348   2.875   0.496  16.498  0.6207  0.8921  0.0882
18619TIP3    H277349   2.978   0.462  16.392 -0.6851 -2.6223 -0.1015
18620TIP3   OH277350   3.214   3.637   2.953  0.1399  0.2429  0.9055
18620TIP3    H177351   3.159   3.663   2.880  0.8089  0.8770  0.6160
18620TIP3    H277352   3.185   3.692   3.026 -0.2496 -0.1001  1.0118
18621TIP3   OH277353   3.803   3.869  15.430 -0.2366 -1.0089  0.8703
18621TIP3    H177354   3.776   3.895  15.341  0.4927  1.6103  1.3552
18621TIP3    H277355   3.738   3.804  15.456 -1.3459 -0.7306 -1.0362
18622TIP3   OH277356   1.414   2.254  12.294 -0.4262  0.3356  0.1542
18622TIP3    H177357   1.379   2.165  12.292 -1.7224  0.8525 -1.4310
18622TIP3    H277358   1.494   2.250  12.241 -1.3723  0.4331 -1.3417
18623TIP3   OH277359   2.935   3.883   5.774 -0.1665  0.4422 -0.3133
18623TIP3    H177360   3.012   3.868   5.829  0.3469 -0.5149 -1.2673
18623TIP3    H277361   2.869   3.822   5.809  0.8623 -1.7872 -2.0986
18624TIP3   OH277362   6.555   5.681   0.607  0.3539 -0.0749  0.1179
18624TIP3    H177363   6.558   5.612   0.674  1.5153 -1.5170 -1.3871
18624TIP3    H277364   6.574   5.762   0.655  0.3104 -0.9632  1.6640
18625TIP3   OH277365   4.394   1.310  15.738  0.3878 -0.1070 -0.1806
18625TIP3    H177366   4.408   1.249  15.811 -2.0835  0.0755  0.4834
18625TIP3    H277367   4.426   1.394  15.772  0.9459 -0.3913  0.0145
18626TIP3   OH277368   1.212   2.520   0.455  0.3687 -0.2323  0.3905
18626TIP3    H177369   1.208   2.562   0.541  1.4165 -0.5631  0.5973
18626TIP3    H277370   1.188   2.429   0.471 -0.9807  0.0452  0.0798
18627TIP3   OH277371   5.314   0.544  13.059 -0.2036  0.1368  0.2420
18627TIP3    H177372   5.259   0.606  13.107 -0.1939  1.3715 -1.3012
18627TIP3    H277373   5.293   0.560  12.967  0.6173 -1.3933 -0.2137
18628TIP3   OH277374   1.237   2.537  16.779  0.2527 -0.1765  0.1632
18628TIP3    H177375   1.145   2.533  16.806 -0.3838  0.2658 -1.7930
18628TIP3    H277376   1.256   2.450  16.745  0.4517 -0.1763  0.2737
18629TIP3   OH277377   4.120   2.133   3.710 -0.0142  0.0015  0.4471
18629TIP3    H177378   4.143   2.168   3.623 -0.5531  0.5552  0.5264
18629TIP3    H277379   4.096   2.042   3.694 -2.2338  0.6909 -0.3180
18630TIP3   OH277380   4.018   1.281  13.882 -0.3988  0.1152  0.4681
18630TIP3    H177381   3.998   1.197  13.923 -0.2856 -0.2450 -0.2069
18630TIP3    H277382   4.113   1.291  13.893 -0.3312 -0.0934  0.0958
18631TIP3   OH277383   2.619   2.439  12.520 -0.3404  0.2997 -0.3871
18631TIP3    H177384   2.540   2.428  12.573 -1.0570  1.5523 -1.1738
18631TIP3    H277385   2.676   2.495  12.573 -0.0349 -0.4597  0.1040
18632TIP3   OH277386   1.449   1.070   5.841 -0.1169 -0.0737 -0.3176
18632TIP3    H177387   1.524   1.015   5.864  0.4587  0.2288 -1.4566
18632TIP3    H277388   1.486   1.140   5.788 -1.2487 -0.0814 -1.1429
18633TIP3   OH277389   6.260   4.140   4.069 -0.2283 -0.4565 -0.1613
18633TIP3    H177390   6.175   4.097   4.065 -1.2660  1.3848  1.4600
18633TIP3    H277391   6.265   4.190   3.988 -1.2798  0.4780  0.3418
18634TIP3   OH277392   5.523   4.424   0.477  0.2304 -0.7187 -0.0405
18634TIP3    H177393   5.521   4.461   0.565  0.1452 -0.1304 -0.2910
18634TIP3    H277394   5.495   4.333   0.489 -2.2860  0.0624  0.1856
18635TIP3   OH277395   2.689   5.959   4.053 -0.0244  0.1471  0.4814
18635TIP3    H177396   2.763   6.012   4.083 -0.7393  0.8131  1.0752
18635TIP3    H277397   2.713   5.933   3.964  0.8279  0.5314  0.5906
18636TIP3   OH277398   2.062   2.661   1.097  0.1102  0.0952  0.3391
18636TIP3    H177399   2.060   2.669   1.001 -1.7879  0.7649  0.4245
18636TIP3    H277400   1.984   2.610   1.119  0.0692  0.6745  1.5870
18637TIP3   OH277401   6.394   1.225  14.213 -0.0188 -0.4679  0.4837
18637TIP3    H177402   6.341   1.283  14.267 -0.3089 -0.0805 -0.2087
18637TIP3    H277403   6.484   1.259  14.221 -0.3381  0.7288 -0.7453
18638TIP3   OH277404   2.145   1.650  11.972  0.5607  0.1561 -0.1643
18638TIP3    H177405   2.167   1.677  11.883 -0.4008  0.6955 -0.2420
18638TIP3    H277406   2.200   1.705  12.028  2.3294 -1.2635 -0.4431
18639TIP3   OH277407   0.922   3.757   6.074 -0.4875  0.3053 -0.7621
18639TIP3    H177408   0.859   3.759   6.146  0.3562 -0.2594 -0.0089
18639TIP3    H277409   0.912   3.670   6.035  1.8256 -0.8815  1.1641
18640TIP3   OH277410   5.740   5.786   1.270 -0.5476  0.6453 -0.4042
18640TIP3    H177411   5.755   5.842   1.194 -0.1784  0.8690 -0.1674
18640TIP3    H277412   5.689   5.712   1.236 -0.9152  1.0500 -0.7459
18641TIP3   OH277413   4.663   6.125   2.669 -0.1305  0.0575 -0.1349
18641TIP3    H177414   4.642   6.163   2.755  0.4174 -1.0807  0.5027
18641TIP3    H277415   4.648   6.197   2.608 -0.6175  0.8573  0.8992
18642TIP3   OH277416   2.447   1.207  11.040 -0.3961 -0.3368  0.6428
18642TIP3    H177417   2.362   1.217  10.996 -1.3569  0.0011  2.5167
18642TIP3    H277418   2.475   1.119  11.018 -0.9169 -0.2127 -0.5500
18643TIP3   OH277419   4.707   6.259  16.097 -0.2025  0.3174 -0.3393
18643TIP3    H177420   4.665   6.223  16.176 -1.5764 -1.1663 -1.7228
18643TIP3    H277421   4.673   6.348  16.091 -1.8221 -0.2907 -0.4686
18644TIP3   OH277422   3.897   5.811  16.209 -0.2060 -0.0005 -0.0395
18644TIP3    H177423   3.952   5.775  16.140  0.7035  0.9464  0.1769
18644TIP3    H277424   3.855   5.735  16.249  1.8909 -0.8666  0.5841
18645TIP3   OH277425   1.008   0.071   4.768 -0.0859  0.2137 -0.1026
18645TIP3    H177426   0.958  -0.008   4.788 -1.5498  0.8715 -1.0809
18645TIP3    H277427   0.991   0.088   4.675 -1.0182  2.5205  0.4568
18646TIP3   OH277428   2.748   1.509  14.564  0.8512  0.1683  0.2867
18646TIP3    H177429   2.660   1.477  14.582  1.1247  0.0024  1.3523
18646TIP3    H277430   2.741   1.552  14.479  0.0310 -0.9450 -0.2124
18647TIP3   OH277431   5.307   1.617  13.360  0.0846  0.4338  0.0481
18647TIP3    H177432   5.290   1.558  13.287  0.5292  1.4228 -0.8565
18647TIP3    H277433   5.334   1.699  13.320 -2.1002  1.7900  1.2413
18648TIP3   OH277434   5.665   3.836  13.567 -0.1645 -0.6025  0.4790
18648TIP3    H177435   5.649   3.915  13.620  2.4320 -1.1813  2.2331
18648TIP3    H277436   5.650   3.763  13.628 -1.0390 -1.4245 -0.6993
18649TIP3   OH277437   0.108   0.929  11.917 -0.2650 -0.7558  0.0069
18649TIP3    H177438   0.180   0.876  11.950  0.0905 -0.4539 -0.2834
18649TIP3    H277439   0.150   1.007  11.880 -0.6934 -0.8622 -0.7204
18650TIP3   OH277440   3.224   5.957  10.705  0.1120  0.8298  0.1184
18650TIP3    H177441   3.316   5.984  10.708 -0.1898  1.7833  1.4175
18650TIP3    H277442   3.184   6.017  10.641 -0.0794  1.9915  1.3037
18651TIP3   OH277443   4.880   4.103   0.299  0.0564 -0.1317 -0.2198
18651TIP3    H177444   4.801   4.065   0.338  0.3154  0.2679  0.7147
18651TIP3    H277445   4.952   4.071   0.353  0.8917 -2.9080 -2.8121
18652TIP3   OH277446   0.676   3.307   2.912  0.0097 -0.4324 -0.0155
18652TIP3    H177447   0.758   3.351   2.890  1.6354 -2.2396  2.1910
18652TIP3    H277448   0.654   3.257   2.833  1.8546 -1.0968 -0.1337
18653TIP3   OH277449   5.825   1.047  12.330 -0.1957 -0.6808 -0.3929
18653TIP3    H177450   5.765   1.015  12.398 -1.3851 -0.0314 -1.1257
18653TIP3    H277451   5.882   1.109  12.376 -1.7169  0.5984 -0.1970
18654TIP3   OH277452   5.894   0.019  16.092 -0.2278  0.1642 -0.5416
18654TIP3    H177453   5.976  -0.030  16.078 -0.4093  0.1064 -1.4342
18654TIP3    H277454   5.825  -0.045  16.078 -0.4344  0.0913  0.7050
18655TIP3   OH277455   5.526   4.137  13.301  0.1862 -0.0281  0.0551
18655TIP3    H177456   5.453   4.199  13.306  1.0612  0.9844  0.4184
18655TIP3    H277457   5.487   4.052  13.321 -1.1234  0.3237 -0.9691
18656TIP3   OH277458   2.547   1.007  13.164 -0.0098 -0.2455 -0.4582
18656TIP3    H177459   2.479   0.944  13.186 -0.2948  0.5102  0.8920
18656TIP3    H277460   2.511   1.055  13.089 -0.7139 -0.2429 -0.1256
18657TIP3   OH277461   5.785   0.104  14.662 -0.5633 -0.0203 -0.4834
18657TIP3    H177462   5.718   0.172  14.668  1.4399  2.2137 -2.6275
18657TIP3    H277463   5.866   0.148  14.686  0.5480 -2.0276 -0.5087
18658TIP3   OH277464   1.881   3.175  16.997  0.3289 -0.8386 -0.2420
18658TIP3    H177465   1.819   3.111  17.032  0.6288 -0.9608  0.0648
18658TIP3    H277466   1.966   3.147  17.031  0.3092  0.3899  0.8482
18659TIP3   OH277467   6.106   3.034  11.559 -0.2632  0.1815 -0.1535
18659TIP3    H177468   6.157   3.065  11.484  0.2051  0.0905  0.1272
18659TIP3    H277469   6.167   2.980  11.609  0.2344  2.4427  1.7560
18660TIP3   OH277470   4.399   2.493  16.032 -0.6941 -0.2875 -0.0437
18660TIP3    H177471   4.366   2.573  15.990  0.3798  0.0860 -0.1831
18660TIP3    H277472   4.434   2.523  16.116 -1.7255 -0.8543  0.6110
18661TIP3   OH277473   5.896   2.297  10.579 -0.2935  0.4479  0.3648
18661TIP3    H177474   5.839   2.256  10.514 -0.7699  1.9983 -0.2237
18661TIP3    H277475   5.970   2.237  10.587  0.8099  1.2044 -3.1707
18662TIP3   OH277476   2.849   1.170   0.165  0.5364 -0.5108 -0.0141
18662TIP3    H177477   2.762   1.189   0.130  0.7298 -0.1986 -0.3317
18662TIP3    H277478   2.863   1.077   0.145  0.0525 -0.6996  0.5302
18663TIP3   OH277479   2.367   1.521  14.553  0.1979 -0.4747  0.5769
18663TIP3    H177480   2.335   1.529  14.463 -1.6140 -1.6293  1.0968
18663TIP3    H277481   2.323   1.592  14.600  1.9211  0.7786  0.3920
18664TIP3   OH277482   5.692   3.734  12.758 -1.0434  0.2912 -0.0070
18664TIP3    H177483   5.651   3.742  12.845 -1.9485  3.7364 -0.6519
18664TIP3    H277484   5.786   3.731  12.776 -1.2816 -0.4139  1.1686
18665TIP3   OH277485   5.064   1.298  11.591  0.1745 -0.1583 -0.0788
18665TIP3    H177486   5.141   1.300  11.533  0.1273  0.7546 -0.1086
18665TIP3    H277487   5.099   1.268  11.675  0.2779 -1.3072 -0.5187
18666TIP3   OH277488   3.254   4.602  16.359  0.3224 -0.1156 -0.2268
18666TIP3    H177489   3.298   4.599  16.274  0.4150 -1.3682 -0.1514
18666TIP3    H277490   3.201   4.522  16.361 -1.0948  0.8055  0.1476
18667TIP3   OH277491   5.341   0.593  10.852 -0.0605 -0.0187 -0.0328
18667TIP3    H177492   5.379   0.655  10.790 -1.8627 -1.3967 -2.6028
18667TIP3    H277493   5.391   0.512  10.839 -1.0206 -0.5706 -0.3554
18668TIP3   OH277494   5.365   6.799  11.754  0.2406  0.1434  0.2288
18668TIP3    H177495   5.457   6.820  11.766  0.2791 -0.6873  1.4917
18668TIP3    H277496   5.320   6.884  11.761  0.8952  0.5377 -0.3192
18669TIP3   OH277497   1.295   3.471   4.966 -0.5226  0.3889 -0.0166
18669TIP3    H177498   1.274   3.474   5.060  1.3410 -0.7217  0.4653
18669TIP3    H277499   1.314   3.562   4.943  0.9223  0.4129  1.1694
18670TIP3   OH277500   2.913   2.229   3.637 -0.6375  0.6734  0.3839
18670TIP3    H177501   2.898   2.183   3.720  1.0980  0.7623  0.7561
18670TIP3    H277502   2.871   2.314   3.649 -1.0741  0.3943  0.8777
18671TIP3   OH277503   6.136   5.528   3.161 -0.4475 -0.1732  0.3441
18671TIP3    H177504   6.176   5.515   3.247 -0.0842  0.6894  0.3071
18671TIP3    H277505   6.042   5.516   3.177 -0.1211 -3.1076  0.2468
18672TIP3   OH277506   5.367   3.409   5.695  0.0961  0.2378  0.9049
18672TIP3    H177507   5.383   3.332   5.749 -0.4812  0.3390  1.2282
18672TIP3    H277508   5.276   3.431   5.711  0.2268  0.9239  0.7261
18673TIP3   OH277509   4.685   0.548  12.450 -0.2734  0.4039  0.5488
18673TIP3    H177510   4.592   0.566  12.463 -0.3461  0.9702 -0.6422
18673TIP3    H277511   4.721   0.631  12.417 -0.0248 -0.7628 -2.2213
18674TIP3   OH277512   0.615   2.382  15.380 -0.8636  0.7042 -0.8288
18674TIP3    H177513   0.694   2.327  15.379 -1.2950  0.0871 -0.9188
18674TIP3    H277514   0.639   2.456  15.436 -0.2963  0.3984 -0.6624
18675TIP3   OH277515   6.234   1.955  12.980 -0.8433  0.3655  0.4035
18675TIP3    H177516   6.184   1.983  13.056 -0.3844  1.8945  0.1691
18675TIP3    H277517   6.169   1.932  12.914 -1.2750  2.7562 -0.0518
18676TIP3   OH277518   5.446   2.794   3.313  0.0080 -0.0709 -0.2552
18676TIP3    H177519   5.393   2.820   3.389  1.3253 -0.5188  0.8302
18676TIP3    H277520   5.522   2.751   3.350  0.1128 -1.3431 -1.8863
18677TIP3   OH277521   0.894   2.882  15.634  0.2190  0.3844  0.2860
18677TIP3    H177522   0.894   2.792  15.667  2.1412 -0.3639 -1.6085
18677TIP3    H277523   0.820   2.886  15.574  0.1867  0.0151  0.3017
18678TIP3   OH277524   4.896   4.795   3.082 -0.4214  0.4997  0.0976
18678TIP3    H177525   4.817   4.847   3.091  1.0616  2.6626  1.1972
18678TIP3    H277526   4.937   4.797   3.169 -0.6138 -3.0921  0.3780
18679TIP3   OH277527   3.957   0.702   2.798  0.2081 -0.2590 -0.5271
18679TIP3    H177528   4.015   0.771   2.766  0.3325 -0.1694 -0.1103
18679TIP3    H277529   3.988   0.684   2.887 -0.6184  0.0216 -0.1771
18680TIP3   OH277530   5.599   0.142  13.639  0.4860  0.9516 -0.7493
18680TIP3    H177531   5.681   0.154  13.687 -0.9236  3.0714  1.2894
18680TIP3    H277532   5.563   0.231  13.631 -1.4881  0.0916 -1.7896
18681TIP3   OH277533   4.455   2.930   2.015 -0.3657  0.4781  0.3776
18681TIP3    H177534   4.403   2.937   1.935 -0.2751 -0.3301  0.2505
18681TIP3    H277535   4.390   2.936   2.086 -0.2833  2.9366  0.3072
18682TIP3   OH277536   5.810   2.993  13.790  0.2374  0.1421 -0.0702
18682TIP3    H177537   5.803   2.989  13.886 -1.8884  0.8161 -0.1572
18682TIP3    H277538   5.835   2.904  13.764  1.1443  0.0282  1.1186
18683TIP3   OH277539   3.394   2.589   3.016 -0.0841  0.4995  0.2254
18683TIP3    H177540   3.311   2.630   3.040  0.6647  2.4149 -0.3930
18683TIP3    H277541   3.397   2.594   2.920  0.7975  0.5563  0.2489
18684TIP3   OH277542   5.086   6.176  13.372 -0.0138  0.1871  0.1880
18684TIP3    H177543   5.039   6.255  13.395 -1.7273 -1.1268  1.2925
18684TIP3    H277544   5.165   6.178  13.426 -0.2240  0.9467  0.4669
18685TIP3   OH277545   6.154   2.407   1.603 -1.1318  0.1606  0.1377
18685TIP3    H177546   6.202   2.430   1.682 -1.8995  2.8789 -0.1212
18685TIP3    H277547   6.070   2.452   1.613 -1.8421 -0.7734 -1.4984
18686TIP3   OH277548   6.430   3.282   1.137  0.0269 -0.1350  0.6176
18686TIP3    H177549   6.458   3.251   1.223  1.4553  0.2076  0.2853
18686TIP3    H277550   6.397   3.370   1.152  3.0451  1.0781  0.3631
18687TIP3   OH277551   4.633   3.692   1.098 -0.6228  0.0936 -0.2512
18687TIP3    H177552   4.590   3.741   1.028 -0.4909  1.2633  0.4553
18687TIP3    H277553   4.712   3.742   1.118  0.8544 -1.8039 -1.2257
18688TIP3   OH277554   0.798   3.022  14.306 -0.4255  0.3048 -0.0082
18688TIP3    H177555   0.827   3.114  14.302  3.2210 -0.7570 -0.2870
18688TIP3    H277556   0.760   3.006  14.220 -1.0521  1.5436  0.0251
18689TIP3   OH277557   6.415   3.875   4.015  0.6688  0.2003  0.6712
18689TIP3    H177558   6.397   3.806   3.952 -0.2338  1.2048 -0.1818
18689TIP3    H277559   6.352   3.944   3.995  3.3165  2.4696 -0.2794
18690TIP3   OH277560   0.413   5.598  16.590  0.1663  0.3067 -0.0339
18690TIP3    H177561   0.357   5.539  16.642 -0.9516  0.9338 -0.5063
18690TIP3    H277562   0.494   5.605  16.641 -0.2375 -0.5026  0.7383
18691TIP3   OH277563   1.535   3.558  16.946  0.1195  0.2286  0.9222
18691TIP3    H177564   1.619   3.530  16.909 -0.8323  0.9373 -1.9254
18691TIP3    H277565   1.540   3.653  16.950 -1.1829  0.4003 -0.9627
18692TIP3   OH277566   1.644   3.558  17.290  0.1874 -0.4198  0.2596
18692TIP3    H177567   1.655   3.641  17.337  1.5709  0.1162 -0.9871
18692TIP3    H277568   1.559   3.566  17.247 -0.1482 -0.0667  0.9790
18693TIP3   OH277569   2.960   1.131  15.724  0.2021  0.0759 -0.3378
18693TIP3    H177570   3.045   1.128  15.767  0.8984 -1.7451 -1.7678
18693TIP3    H277571   2.960   1.211  15.673  0.9018  0.2654 -0.0340
18694TIP3   OH277572   0.837   0.959  14.282 -0.2489  0.0577 -0.2848
18694TIP3    H177573   0.886   0.879  14.302 -1.0832 -0.7740 -1.4961
18694TIP3    H277574   0.893   1.030  14.312  1.8857 -0.8510 -2.0081
18695TIP3   OH277575   1.842   5.880   5.176 -0.5578 -0.5209  0.2167
18695TIP3    H177576   1.831   5.873   5.270  0.3852 -2.1177  0.2238
18695TIP3    H277577   1.768   5.831   5.139 -0.9815  0.1843  0.1060
18696TIP3   OH277578   5.451   5.124  15.954  0.6697 -0.2849  0.0463
18696TIP3    H177579   5.490   5.045  15.992 -0.0728 -0.7547 -0.1511
18696TIP3    H277580   5.386   5.091  15.891  0.9056  0.4835 -0.6156
18697TIP3   OH277581   5.925   1.049  11.503  0.8594 -0.2183  0.1066
18697TIP3    H177582   5.992   1.116  11.515 -0.5876  1.2704  0.0603
18697TIP3    H277583   5.854   1.074  11.562 -0.2314 -1.0073 -0.8268
18698TIP3   OH277584   1.441   2.238   3.483 -0.2025  0.3374  0.0542
18698TIP3    H177585   1.376   2.300   3.449 -0.9402 -0.4591 -0.0050
18698TIP3    H277586   1.506   2.231   3.413 -0.4450  0.5520 -0.1980
18699TIP3   OH277587   0.103   1.426  12.848 -0.6708 -0.1828 -0.4113
18699TIP3    H177588   0.110   1.489  12.776 -1.3964 -1.1735 -1.3774
18699TIP3    H277589   0.037   1.463  12.907  0.8349  1.2571  0.4179
18700TIP3   OH277590   2.740   4.154  13.604  0.3129  0.0995 -0.0256
18700TIP3    H177591   2.739   4.245  13.632  0.8955  0.4812 -1.2425
18700TIP3    H277592   2.804   4.112  13.662  0.3368  0.5386  0.2655
18701TIP3   OH277593   5.352   2.279  12.651  0.0490 -0.2662  0.1903
18701TIP3    H177594   5.297   2.337  12.598  0.9311  0.7335  0.3511
18701TIP3    H277595   5.321   2.191  12.630 -2.2888  0.3128  1.0527
18702TIP3   OH277596   0.131   5.109  10.400 -0.7732  0.3667  0.4831
18702TIP3    H177597   0.062   5.102  10.465 -0.3989  2.3284  1.1180
18702TIP3    H277598   0.100   5.177  10.339  0.2768  0.7787  0.4004
18703TIP3   OH277599   4.588   4.548   0.893  0.4423  0.1136  1.1630
18703TIP3    H177600   4.575   4.455   0.909  0.6524  0.0651  1.0523
18703TIP3    H277601   4.499   4.585   0.890  0.3737 -0.0236  1.5532
18704TIP3   OH277602   5.655   1.482  16.153  0.0581 -0.0515 -0.0906
18704TIP3    H177603   5.625   1.488  16.062 -0.8957 -0.3996  0.1938
18704TIP3    H277604   5.747   1.506  16.150  0.0588 -0.1791 -1.1752
18705TIP3   OH277605   5.263   4.272  16.882 -0.2059  0.4395 -0.0599
18705TIP3    H177606   5.186   4.221  16.858  1.4479 -2.0118 -0.2832
18705TIP3    H277607   5.253   4.288  16.976 -0.6130 -0.5062  0.0559
18706TIP3   OH277608   4.831   4.507  12.279 -0.0799 -0.4707 -0.0781
18706TIP3    H177609   4.763   4.518  12.212  0.0802  0.1460 -0.1444
18706TIP3    H277610   4.804   4.430  12.329 -0.0863 -1.0787 -0.9959
18707TIP3   OH277611   5.360   6.320   1.522 -0.4635 -0.3483 -0.0603
18707TIP3    H177612   5.305   6.317   1.444 -0.8483 -0.4083  0.2166
18707TIP3    H277613   5.440   6.365   1.493 -0.2942 -1.0364 -0.6830
18708TIP3   OH277614   5.807   6.014  12.416  0.2464 -0.0382  0.0675
18708TIP3    H177615   5.794   6.041  12.325  0.8276  0.3919  0.1035
18708TIP3    H277616   5.877   5.949  12.412 -0.0874 -0.4047  0.1530
18709TIP3   OH277617   4.745   6.663  14.663  0.3639 -0.2425  0.2017
18709TIP3    H177618   4.654   6.667  14.631  1.2605 -1.3523 -2.6525
18709TIP3    H277619   4.780   6.750  14.647  0.3861 -0.3882 -0.5629
18710TIP3   OH277620   4.704   2.830   1.408  0.1779 -0.1548 -0.0008
18710TIP3    H177621   4.784   2.777   1.413 -1.0807 -2.6203 -3.5573
18710TIP3    H277622   4.634   2.770   1.434 -0.6764  1.6993  2.1568
18711TIP3   OH277623   3.496   4.548   3.831 -0.3997 -0.1268  0.1958
18711TIP3    H177624   3.414   4.578   3.791  1.0633  0.9940 -2.0866
18711TIP3    H277625   3.541   4.501   3.761  0.5631 -1.4161  1.6563
18712TIP3   OH277626   0.626   6.764  13.760 -0.0109  0.1501 -0.0937
18712TIP3    H177627   0.656   6.855  13.765  0.3065  0.1092 -1.1127
18712TIP3    H277628   0.672   6.728  13.684 -1.8925 -0.1830 -1.1090
18713TIP3   OH277629   1.245   2.374  14.945  0.0866  0.3746  0.4198
18713TIP3    H177630   1.286   2.344  14.863 -0.3414  1.5004 -0.2076
18713TIP3    H277631   1.314   2.424  14.989 -0.0669  0.8101  0.1684
18714TIP3   OH277632   1.134   2.057  13.299 -0.6841 -0.1940 -0.7079
18714TIP3    H177633   1.101   2.139  13.261 -1.2596  0.2408  0.6961
18714TIP3    H277634   1.228   2.074  13.312 -0.7326  0.1157 -0.7467
18715TIP3   OH277635   3.228   6.172  17.280  0.3341 -0.6565 -0.7305
18715TIP3    H177636   3.237   6.200  17.371 -0.6517  1.2547 -1.2046
18715TIP3    H277637   3.139   6.136  17.274 -0.9383  2.5127 -1.7549
18716TIP3   OH277638   1.120   5.023  16.056 -0.2362 -0.7096  0.9988
18716TIP3    H177639   1.111   5.119  16.056  2.4728 -0.4034  0.7383
18716TIP3    H277640   1.070   4.994  16.132 -1.3435  0.8909  0.9036
18717TIP3   OH277641   6.113   6.679  15.303 -0.3239  0.4370  0.0375
18717TIP3    H177642   6.125   6.593  15.341 -0.5591  0.7780  0.8940
18717TIP3    H277643   6.058   6.664  15.226 -0.2307 -0.1883  0.0924
18718TIP3   OH277644   1.390   6.694   3.943 -0.2469  0.6474  0.5815
18718TIP3    H177645   1.435   6.771   3.908  0.5394  0.6895  1.6527
18718TIP3    H277646   1.438   6.673   4.023 -1.2903 -0.1427  1.0089
18719TIP3   OH277647   6.419   4.988   3.772  0.0780 -0.1288  0.4329
18719TIP3    H177648   6.450   4.979   3.862 -0.4643 -1.4346  0.5054
18719TIP3    H277649   6.350   5.054   3.776  0.4752  0.2546  0.8738
18720TIP3   OH277650   0.844   5.797   3.902  0.0953  0.3674 -0.5175
18720TIP3    H177651   0.755   5.793   3.938  0.0848 -0.2813 -0.6242
18720TIP3    H277652   0.832   5.809   3.808  0.1103 -1.1612 -0.7245
18721TIP3   OH277653   2.112   2.954  12.520  0.2149  0.4609 -0.2934
18721TIP3    H177654   2.105   2.862  12.543  0.6132 -0.0046 -1.9645
18721TIP3    H277655   2.025   2.977  12.487 -0.0676  0.8567  0.7185
18722TIP3   OH277656   6.266   2.589  15.877 -0.1619  0.0571  0.3487
18722TIP3    H177657   6.315   2.541  15.943 -2.4856 -1.5379  0.9591
18722TIP3    H277658   6.189   2.622  15.923 -1.3333 -0.2563 -1.3336
18723TIP3   OH277659   0.543   4.776  10.867  0.2195 -1.1470 -0.0547
18723TIP3    H177660   0.502   4.690  10.875  0.0388 -0.8020  3.4150
18723TIP3    H277661   0.490   4.833  10.922  2.4028  0.4123  0.4962
18724TIP3   OH277662   6.417   2.171  11.917 -0.3894 -0.5639  0.4829
18724TIP3    H177663   6.477   2.107  11.879 -0.6051 -0.9471  0.7941
18724TIP3    H277664   6.396   2.137  12.003  0.1432  0.3460  0.9807
18725TIP3   OH277665   0.040   3.861  15.872  0.2126  0.2230  0.1752
18725TIP3    H177666   0.096   3.789  15.899 -1.0297 -0.6389  0.4587
18725TIP3    H277667   0.089   3.904  15.802  1.7474  0.1909  1.2285
18726TIP3   OH277668   5.435   4.754   2.884  0.2279  0.6667  0.2042
18726TIP3    H177669   5.365   4.708   2.931  0.3992  0.2409  0.0453
18726TIP3    H277670   5.512   4.744   2.941  0.2617  0.7723  0.1774
18727TIP3   OH277671   2.406   1.390   6.199 -0.4366  0.5801 -0.0809
18727TIP3    H177672   2.459   1.340   6.261  0.1092  1.7103  0.3687
18727TIP3    H277673   2.441   1.366   6.113 -1.2590 -1.0590  0.0158
18728TIP3   OH277674   1.591   0.708  13.386 -0.2503 -0.0105  0.9007
18728TIP3    H177675   1.552   0.769  13.325 -0.9975  0.2858  1.6624
18728TIP3    H277676   1.529   0.704  13.459 -0.2026 -1.6462  0.8764
18729TIP3   OH277677   5.628   4.193  15.190  0.3889 -0.2385  0.3195
18729TIP3    H177678   5.659   4.104  15.208 -0.4235 -0.5129  0.4213
18729TIP3    H277679   5.623   4.234  15.277  2.1884  0.4026  0.1372
18730TIP3   OH277680   2.364   2.375  16.376  0.1267  0.1545  0.6977
18730TIP3    H177681   2.330   2.390  16.465 -1.2077 -0.7956  0.3645
18730TIP3    H277682   2.445   2.326  16.389 -0.1298 -0.0944  1.3854
18731TIP3   OH277683   4.212   4.067  16.496  0.6014  0.2213  0.3619
18731TIP3    H177684   4.307   4.054  16.496  1.1499  3.4258 -1.5923
18731TIP3    H277685   4.192   4.092  16.406 -1.8669  0.9929  1.0869
18732TIP3   OH277686   0.874   0.159  13.543  0.3411  0.1900  0.1893
18732TIP3    H177687   0.962   0.121  13.541  0.2365 -0.1142  1.0565
18732TIP3    H277688   0.815   0.083  13.543  0.1259  0.3251  1.6903
18733TIP3   OH277689   3.710   0.445  14.989 -0.0340  0.2315  0.6383
18733TIP3    H177690   3.647   0.378  14.964  1.3652 -0.6977 -0.5060
18733TIP3    H277691   3.658   0.515  15.026 -1.6295 -0.9995  0.7454
18734TIP3   OH277692   6.148   4.409  10.748  0.6879  0.2761 -0.0958
18734TIP3    H177693   6.086   4.364  10.692  0.4291 -0.5692  0.8596
18734TIP3    H277694   6.207   4.454  10.687 -0.5888  0.7530 -1.0070
18735TIP3   OH277695   0.510   5.880  16.811  0.0240  0.0594  0.3427
18735TIP3    H177696   0.503   5.968  16.846  0.4092 -0.2252  1.1518
18735TIP3    H277697   0.511   5.823  16.888 -2.1780 -0.8024 -0.2327
18736TIP3   OH277698   3.412   6.044  11.087  0.6121  0.0248 -0.4957
18736TIP3    H177699   3.499   6.078  11.067  0.4936  0.1291 -0.8371
18736TIP3    H277700   3.416   5.952  11.064  1.2927 -0.4735  1.5365
18737TIP3   OH277701   5.398   2.493  17.265 -0.1995  0.0253 -0.1935
18737TIP3    H177702   5.490   2.484  17.239  0.4628 -0.0101  2.0209
18737TIP3    H277703   5.400   2.485  17.360 -2.5103  0.0649 -0.1248
18738TIP3   OH277704   0.820   1.712   6.684 -0.0257 -0.3903 -0.1651
18738TIP3    H177705   0.764   1.789   6.672  1.5403  0.8528  0.3857
18738TIP3    H277706   0.784   1.646   6.625 -0.6947  1.1307 -1.4677
18739TIP3   OH277707   6.747   6.599  15.473 -0.2199  0.0745 -0.1151
18739TIP3    H177708   6.803   6.526  15.446 -1.7232 -0.1475 -2.8264
18739TIP3    H277709   6.777   6.673  15.421  0.1373  0.9716  1.3403
18740TIP3   OH277710   0.497   2.558  11.296 -0.0810 -0.3175 -0.3083
18740TIP3    H177711   0.516   2.646  11.266  1.6318 -0.8531 -0.8473
18740TIP3    H277712   0.530   2.501  11.226  0.6064 -1.4370  0.8946
18741TIP3   OH277713   4.311   5.922   3.588  0.4269  0.4767  0.5129
18741TIP3    H177714   4.338   6.012   3.570 -1.2428  1.2119  1.5105
18741TIP3    H277715   4.323   5.876   3.505 -1.3260  2.2942 -0.7924
18742TIP3   OH277716   5.523   6.730   1.464  0.3292  0.0295 -0.2843
18742TIP3    H177717   5.514   6.652   1.410  0.3817  0.5175 -1.0003
18742TIP3    H277718   5.614   6.730   1.492  0.3415 -0.1348 -0.3262
18743TIP3   OH277719   5.792   1.554  13.130  0.2939 -0.0576 -0.6992
18743TIP3    H177720   5.860   1.609  13.091 -1.5557  1.7741 -1.4266
18743TIP3    H277721   5.815   1.465  13.102  2.5508  0.4840 -0.6711
18744TIP3   OH277722   5.736   5.292   0.475 -0.0259  0.2464 -0.0443
18744TIP3    H177723   5.789   5.259   0.547 -0.9464 -0.5671  0.2709
18744TIP3    H277724   5.702   5.214   0.432  0.0973  0.7309 -1.0606
18745TIP3   OH277725   1.503   0.991  14.584  0.1646  0.2080  0.1051
18745TIP3    H177726   1.434   1.055  14.563  0.2116 -0.3396 -1.7494
18745TIP3    H277727   1.552   0.980  14.503  2.2749  0.3543  1.3250
18746TIP3   OH277728   5.916   1.961   1.681 -0.2576  0.5669 -0.1252
18746TIP3    H177729   5.996   2.013   1.684 -0.4189  0.7940  0.2979
18746TIP3    H277730   5.919   1.907   1.760  0.2756 -0.6256 -0.9394
18747TIP3   OH277731   4.051   2.022  17.256  0.5707 -0.3637 -0.3105
18747TIP3    H177732   4.056   2.107  17.213  0.2065 -0.4781 -0.5874
18747TIP3    H277733   3.998   1.969  17.197 -0.8489 -0.2094  0.7927
18748TIP3   OH277734   4.941   1.504  16.504 -0.6558 -0.1571 -0.4628
18748TIP3    H177735   4.959   1.436  16.440 -0.5134 -0.1623 -0.4167
18748TIP3    H277736   4.995   1.481  16.580  1.0021  1.1455 -1.2029
18749TIP3   OH277737   2.813   3.846  11.748  0.2147 -0.4559  0.3882
18749TIP3    H177738   2.906   3.866  11.745  0.1215  0.2793  1.7570
18749TIP3    H277739   2.809   3.751  11.760  0.7765 -0.5573 -0.2109
18750TIP3   OH277740   2.699   1.955  17.033 -0.4448  0.1990 -0.1100
18750TIP3    H177741   2.724   1.869  17.067  1.0138  0.4583 -0.4897
18750TIP3    H277742   2.757   1.968  16.958  0.4687  2.2222  0.9212
18751TIP3   OH277743   5.711   4.988   5.223  0.3535 -0.3973  0.1631
18751TIP3    H177744   5.710   4.940   5.140  0.8084  1.2420 -0.7999
18751TIP3    H277745   5.796   5.032   5.225  0.0430  0.1708  1.1578
18752TIP3   OH277746   5.490   5.808   1.893  0.2711 -0.4668  0.0434
18752TIP3    H177747   5.502   5.726   1.941 -1.0530 -0.6725  0.0575
18752TIP3    H277748   5.404   5.799   1.852 -0.1961  1.2113  0.6254
18753TIP3   OH277749   0.298   2.574  15.769  0.1848 -0.0480 -0.2436
18753TIP3    H177750   0.214   2.537  15.742 -1.0664  1.5297  1.3265
18753TIP3    H277751   0.310   2.543  15.859  1.2801 -0.2141 -0.4354
18754TIP3   OH277752   6.066   6.210   4.743  0.1922 -0.2987  0.2518
18754TIP3    H177753   6.096   6.300   4.729 -0.7728 -0.0740 -0.4501
18754TIP3    H277754   6.114   6.180   4.819 -0.2691  1.1910  1.1530
18755TIP3   OH277755   5.805   0.751   2.020  1.0542 -0.2130  0.1005
18755TIP3    H177756   5.815   0.835   2.063  1.2838 -0.6319  0.8686
18755TIP3    H277757   5.729   0.763   1.962 -1.9942 -0.9071  3.7409
18756TIP3   OH277758   1.541   0.394  13.858  0.5114 -0.4225  0.2380
18756TIP3    H177759   1.467   0.451  13.878  0.9916 -0.0807  1.0589
18756TIP3    H277760   1.543   0.330  13.930  0.1933 -1.2627 -0.4910
18757TIP3   OH277761   0.396   4.552   1.849  0.2107 -0.0398 -0.6091
18757TIP3    H177762   0.378   4.489   1.918 -0.7297  1.1427  0.2416
18757TIP3    H277763   0.371   4.508   1.768  0.1722 -0.9856 -0.0822
18758TIP3   OH277764   6.394   4.155   3.343  0.2647  0.0036  0.5964
18758TIP3    H177765   6.302   4.139   3.361  0.2586 -1.0244 -0.2671
18758TIP3    H277766   6.441   4.094   3.400  0.3381 -0.9711 -0.4889
18759TIP3   OH277767   0.054   6.658  10.727 -0.6849 -0.0774 -0.6773
18759TIP3    H177768  -0.013   6.709  10.682 -1.2990 -1.2136 -1.0810
18759TIP3    H277769   0.008   6.580  10.758  0.0549 -0.0028  0.6442
18760TIP3   OH277770   6.300   1.409  12.776  0.0500 -0.8744  0.1367
18760TIP3    H177771   6.214   1.445  12.797  1.1493  1.5530  0.7604
18760TIP3    H277772   6.345   1.404  12.861  1.4540  0.5611 -0.4790
18761TIP3   OH277773   3.381   0.675   3.729 -0.3841  0.1097  0.3440
18761TIP3    H177774   3.336   0.738   3.673  4.2223  1.9812 -1.5000
18761TIP3    H277775   3.381   0.593   3.679  1.2986  1.0463 -1.2470
18762TIP3   OH277776   2.363   2.585   2.002 -0.0351  0.3883 -0.1773
18762TIP3    H177777   2.308   2.507   2.006 -0.8579  0.9398 -0.7091
18762TIP3    H277778   2.408   2.587   2.087 -1.1844  0.1910  0.4443
18763TIP3   OH277779   5.311   3.303  17.280 -0.4773 -0.4643 -0.3578
18763TIP3    H177780   5.353   3.242  17.340 -0.4314 -0.2643 -0.1881
18763TIP3    H277781   5.378   3.324  17.215 -0.0245  0.5855  0.4398
18764TIP3   OH277782   3.218   2.025  16.855  0.0739  0.1693  0.2810
18764TIP3    H177783   3.144   2.056  16.907 -0.2969  0.8973 -0.6663
18764TIP3    H277784   3.290   2.084  16.879 -0.3793  1.1927 -0.8090
18765TIP3   OH277785   5.896   1.941   5.340  0.2154 -0.4023  0.1600
18765TIP3    H177786   5.802   1.941   5.327  0.5211  0.1672 -2.1764
18765TIP3    H277787   5.928   1.871   5.283  1.2086 -0.5954  0.9432
18766TIP3   OH277788   6.756   4.607  13.780  0.4080 -0.1971  0.1031
18766TIP3    H177789   6.805   4.686  13.758 -1.0522  0.8506  0.5449
18766TIP3    H277790   6.727   4.621  13.870 -1.3243 -0.4395 -0.3920
18767TIP3   OH277791   5.752   3.251   3.950 -0.0395  0.6782 -0.0002
18767TIP3    H177792   5.848   3.253   3.948  0.0163 -0.4089  1.0113
18767TIP3    H277793   5.730   3.244   4.043 -1.0838  0.2597 -0.2701
18768TIP3   OH277794   4.304   4.266  16.875 -0.4530  0.1174  0.1175
18768TIP3    H177795   4.332   4.179  16.900  0.8732  0.0602 -1.4693
18768TIP3    H277796   4.261   4.301  16.953  0.2133 -1.4277  1.2027
18769TIP3   OH277797   5.882   0.697  10.923  0.2681  0.0656  0.0160
18769TIP3    H177798   5.840   0.718  11.006 -0.3334 -0.7057 -0.0872
18769TIP3    H277799   5.836   0.751  10.859 -1.1092 -1.3218 -0.2109
18770TIP3   OH277800   4.351   3.445   3.784 -0.1214 -0.4879 -0.2896
18770TIP3    H177801   4.332   3.390   3.707  1.5381 -1.2175 -0.2135
18770TIP3    H277802   4.394   3.386   3.845  1.4209  0.8250 -0.0774
18771TIP3   OH277803   0.835   2.376   6.119 -0.3254 -0.5861 -0.3315
18771TIP3    H177804   0.842   2.427   6.200 -1.3748  0.4555 -0.8674
18771TIP3    H277805   0.756   2.323   6.131 -0.6558 -0.2026 -0.7868
18772TIP3   OH277806   5.045   3.917  13.764 -0.2493  0.0442 -0.4760
18772TIP3    H177807   4.966   3.945  13.811  0.7381  0.3035  1.0396
18772TIP3    H277808   5.076   3.841  13.814  0.5230  0.0153 -0.9990
18773TIP3   OH277809   5.130   4.248   4.052 -0.4483 -0.0584  0.3414
18773TIP3    H177810   5.094   4.197   3.980 -1.2628 -1.5187  1.7362
18773TIP3    H277811   5.066   4.237   4.123  1.2289 -0.1953  1.8822
18774TIP3   OH277812   5.011   2.442  16.840  0.3815 -0.6064 -0.1341
18774TIP3    H177813   5.029   2.434  16.746 -0.5436 -1.0612 -0.2839
18774TIP3    H277814   4.993   2.535  16.854  0.3215 -0.5701 -0.4523
18775TIP3   OH277815   4.504   6.276  15.738 -0.3864 -0.4741  0.0393
18775TIP3    H177816   4.482   6.184  15.750 -2.3034  0.0245  0.5028
18775TIP3    H277817   4.595   6.283  15.766  0.4753 -2.6312 -2.0116
18776TIP3   OH277818   0.878   0.876  15.563 -0.5244 -0.3205  0.4867
18776TIP3    H177819   0.881   0.972  15.568 -0.0449 -0.3427  0.6378
18776TIP3    H277820   0.893   0.848  15.653  0.4495 -0.5618  0.2573
18777TIP3   OH277821   4.039   5.119  15.816  0.7607  0.0977 -0.2995
18777TIP3    H177822   3.993   5.036  15.833  0.0209  0.0197 -2.5190
18777TIP3    H277823   4.072   5.110  15.727  2.9248  1.1927  0.3506
18778TIP3   OH277824   3.588   1.537  14.119  0.4661 -0.1244 -0.3575
18778TIP3    H177825   3.573   1.631  14.119  0.7402 -0.0773 -1.2201
18778TIP3    H277826   3.604   1.515  14.210  2.6789  1.0371 -0.4460
18779TIP3   OH277827   1.338   4.105  13.035 -0.3546 -0.1413 -0.1127
18779TIP3    H177828   1.367   4.024  12.993  1.4616  0.8255 -0.7702
18779TIP3    H277829   1.272   4.141  12.976 -1.3199 -1.2148  0.2782
18780TIP3   OH277830   5.594   1.713   5.125 -0.4701  0.1440  0.0189
18780TIP3    H177831   5.683   1.721   5.089  0.5373 -0.4552  2.3287
18780TIP3    H277832   5.568   1.803   5.145  0.0447  0.2272  0.3287
18781TIP3   OH277833   4.948   6.681   2.403  0.0535 -0.2186  0.4379
18781TIP3    H177834   4.883   6.746   2.379 -0.4796 -0.3319  1.5796
18781TIP3    H277835   5.002   6.672   2.324 -0.6789  0.6138 -0.1718
18782TIP3   OH277836   4.609   1.948  11.337  0.4129 -0.1622 -0.2929
18782TIP3    H177837   4.651   1.990  11.263 -0.8296 -1.0354 -1.5420
18782TIP3    H277838   4.591   1.859  11.306 -0.9463 -0.2581  0.7191
18783TIP3   OH277839   5.150   0.458  16.450 -0.2507  0.6397  0.6294
18783TIP3    H177840   5.066   0.452  16.404 -0.4494  1.3016  0.9003
18783TIP3    H277841   5.208   0.501  16.387 -0.0851  0.0930  0.4083
18784TIP3   OH277842   6.438   1.414   4.189 -0.9372 -0.0177  0.0606
18784TIP3    H177843   6.431   1.491   4.245 -1.2654  0.7538 -1.0326
18784TIP3    H277844   6.519   1.427   4.139 -0.5530 -0.7871  0.4767
18785TIP3   OH277845   5.424   2.194   4.191 -0.0115 -0.3072  0.2190
18785TIP3    H177846   5.505   2.145   4.180  0.2169  0.2516 -0.5914
18785TIP3    H277847   5.373   2.174   4.112 -0.7288 -0.7721  0.7878
18786TIP3   OH277848   2.575   3.408  11.708 -0.5687 -0.6407 -0.4431
18786TIP3    H177849   2.555   3.496  11.676  0.3867  0.2176  1.2939
18786TIP3    H277850   2.669   3.398  11.693 -0.0553 -0.1545  2.1749
18787TIP3   OH277851   2.108   3.823   3.561 -0.0569  0.0032  0.8842
18787TIP3    H177852   2.193   3.792   3.530  1.0517  2.4131  1.3223
18787TIP3    H277853   2.093   3.904   3.512 -1.6651  0.0718  1.4630
18788TIP3   OH277854   6.093   5.243  15.179 -0.3779 -0.2351 -0.2768
18788TIP3    H177855   6.090   5.161  15.130  0.5527  0.2327 -1.1245
18788TIP3    H277856   6.167   5.232  15.239 -0.4958 -0.1700 -0.1185
18789TIP3   OH277857   5.678   2.251  15.691 -0.6360  0.8649 -0.1691
18789TIP3    H177858   5.759   2.248  15.640 -0.6674  1.8767 -0.2948
18789TIP3    H277859   5.695   2.314  15.760  0.0688 -1.8959  2.2831
18790TIP3   OH277860   5.071   1.164   6.297  0.0151 -0.0270 -0.2792
18790TIP3    H177861   5.091   1.091   6.355  0.1512 -0.2065 -0.5551
18790TIP3    H277862   5.010   1.219   6.348 -0.9176 -0.8677 -0.4636
18791TIP3   OH277863   5.160   0.661  17.111  0.0362 -0.5251 -0.2192
18791TIP3    H177864   5.077   0.700  17.139  0.2876  0.4534 -0.8242
18791TIP3    H277865   5.172   0.692  17.021  1.4887  0.0777  0.1667
18792TIP3   OH277866   3.430   2.549   5.484  0.0379  0.6209  0.0065
18792TIP3    H177867   3.336   2.544   5.504 -0.1107 -0.4041 -0.8811
18792TIP3    H277868   3.462   2.460   5.502  0.2794  0.2041 -2.3515
18793TIP3   OH277869   5.949   3.916  13.411  0.2738  0.2471  0.4988
18793TIP3    H177870   5.964   3.870  13.494 -0.4219  1.7333  1.4751
18793TIP3    H277871   5.876   3.976  13.430  1.1450  1.7270 -0.7453
18794TIP3   OH277872   1.706   5.929  14.710 -0.2547  0.4770 -0.0132
18794TIP3    H177873   1.650   6.004  14.728 -0.6361 -0.1857  1.6285
18794TIP3    H277874   1.651   5.869  14.661 -0.7597  0.1533  0.9418
18795TIP3   OH277875   3.526   0.492   0.274  0.0047  0.2838  0.2662
18795TIP3    H177876   3.437   0.465   0.252  0.8948 -4.7149  2.1425
18795TIP3    H277877   3.580   0.455   0.205  0.9509  0.7645  0.7467
18796TIP3   OH277878   0.203   0.352  13.748  0.8902 -0.0879 -0.4828
18796TIP3    H177879   0.143   0.386  13.681  1.4376 -1.3533 -1.6373
18796TIP3    H277880   0.229   0.429  13.799  0.5309  0.9013 -1.7741
18797TIP3   OH277881   2.764   2.871  16.043  0.2015  0.2322 -0.2665
18797TIP3    H177882   2.706   2.850  16.116  0.2731 -2.5121 -0.9391
18797TIP3    H277883   2.757   2.966  16.034 -1.5725  0.3589  1.8143
18798TIP3   OH277884   2.802   2.239   2.558  0.3308 -0.0489  0.7642
18798TIP3    H177885   2.837   2.238   2.468  2.0367  2.6626  1.3462
18798TIP3    H277886   2.868   2.191   2.609  0.5533  0.4792  0.9714
18799TIP3   OH277887   0.776   5.895  15.468 -0.5511  0.0789  0.4539
18799TIP3    H177888   0.738   5.931  15.388 -0.7128  0.2538  0.6099
18799TIP3    H277889   0.840   5.830  15.437 -0.0256  0.7242  0.1676
18800TIP3   OH277890   0.987   0.579   5.281 -0.1337  0.0211 -0.5188
18800TIP3    H177891   1.018   0.500   5.238  0.3291  1.2759 -2.5421
18800TIP3    H277892   1.037   0.650   5.241  0.2434  1.2677  2.0159
18801TIP3   OH277893   0.164   4.422  15.723 -0.3837 -0.3178 -0.2620
18801TIP3    H177894   0.069   4.434  15.714 -0.2675  0.1552 -1.0146
18801TIP3    H277895   0.194   4.408  15.633  0.3030 -0.1016 -0.0684
18802TIP3   OH277896   0.075   3.750   5.261  0.0500  0.1024 -0.3558
18802TIP3    H177897   0.089   3.845   5.265 -0.8624  0.1605  3.1013
18802TIP3    H277898   0.157   3.716   5.224  1.0410  2.0837 -0.0719
18803TIP3   OH277899   0.847   2.818   1.280  0.3847 -0.2914 -0.2568
18803TIP3    H177900   0.764   2.784   1.248  0.8272 -1.9732  0.3444
18803TIP3    H277901   0.835   2.826   1.375  1.2974 -1.6844 -0.0156
18804TIP3   OH277902   6.233   3.324  14.030 -0.1779  0.8213 -0.5239
18804TIP3    H177903   6.311   3.376  14.012  0.5697  0.4590  1.4720
18804TIP3    H277904   6.191   3.368  14.103  0.9019 -1.7450  1.7374
18805TIP3   OH277905   2.409   6.298   1.493  0.8982  0.3907  0.2004
18805TIP3    H177906   2.368   6.384   1.490  0.6997  0.3764  1.7329
18805TIP3    H277907   2.481   6.308   1.556  2.0958 -0.0674 -1.0660
18806TIP3   OH277908   2.830   4.209   3.539  0.1016  0.1353  0.2427
18806TIP3    H177909   2.767   4.168   3.479  1.2391  1.5483 -2.0067
18806TIP3    H277910   2.872   4.135   3.584 -1.4001 -0.9241 -0.0748
18807TIP3   OH277911   6.017   3.333   1.333 -0.1393 -0.3370 -0.3749
18807TIP3    H177912   5.991   3.403   1.392 -2.3467 -1.0726 -0.4236
18807TIP3    H277913   6.041   3.378   1.252  0.0565  0.4628  0.1208
18808TIP3   OH277914   0.715   4.438   1.283 -0.3384  0.2258 -0.1059
18808TIP3    H177915   0.747   4.363   1.233  0.2578  0.1377  0.3961
18808TIP3    H277916   0.642   4.472   1.231  0.5299  0.3893 -1.2592
18809TIP3   OH277917   3.495   0.364   4.751  0.1892 -0.3407 -0.3656
18809TIP3    H177918   3.425   0.428   4.755  1.3353  0.9286 -0.3105
18809TIP3    H277919   3.453   0.280   4.769 -1.2348  0.4547  0.0098
18810TIP3   OH277920   5.812   1.959  14.841 -0.2096 -0.3017  0.1681
18810TIP3    H177921   5.750   1.887  14.824  0.7264 -1.6191  2.1770
18810TIP3    H277922   5.760   2.038  14.829 -1.9142 -1.3587  0.3815
18811TIP3   OH277923   1.703   3.580  15.571 -0.1483 -0.0435  0.3222
18811TIP3    H177924   1.647   3.622  15.635 -0.9363 -1.0125  0.2775
18811TIP3    H277925   1.688   3.628  15.490  1.7211  1.9365  1.1014
18812TIP3   OH277926   3.136   5.778  16.466 -0.3608  0.4350  0.2183
18812TIP3    H177927   3.192   5.750  16.394 -0.1588  1.1965  0.0752
18812TIP3    H277928   3.157   5.719  16.538  0.4613  0.5767  0.0950
18813TIP3   OH277929   3.168   3.863   3.138  0.4049  0.4465  0.1620
18813TIP3    H177930   3.190   3.952   3.110 -0.0194  0.6510  0.4704
18813TIP3    H277931   3.097   3.836   3.080  1.6065 -0.2997 -0.9836
18814TIP3   OH277932   6.767   1.609   6.675  0.1208 -0.4033  0.1084
18814TIP3    H177933   6.739   1.665   6.603 -0.5995 -0.6372  0.1927
18814TIP3    H277934   6.836   1.554   6.638 -0.1069 -0.3838 -0.3488
18815TIP3   OH277935   2.857   0.704   1.112  0.4384 -0.1880 -0.2345
18815TIP3    H177936   2.818   0.759   1.180 -0.6953 -0.8777 -0.3153
18815TIP3    H277937   2.854   0.757   1.033  2.1042  0.7632  0.3087
18816TIP3   OH277938   5.392   2.363   5.598 -0.2157 -0.5842 -0.4182
18816TIP3    H177939   5.396   2.443   5.650 -1.4053 -0.2396 -0.8414
18816TIP3    H277940   5.474   2.362   5.549 -0.9332  1.2737 -1.7016
18817TIP3   OH277941   6.091   5.399  15.975  0.0584 -0.1393 -0.4206
18817TIP3    H177942   6.174   5.393  16.021 -0.0002 -1.3154 -0.4451
18817TIP3    H277943   6.026   5.409  16.045 -0.2672 -4.2496 -0.0326
18818TIP3   OH277944   2.417   3.802   0.078 -0.9165  0.2442  0.1821
18818TIP3    H177945   2.324   3.823   0.079 -0.8247  0.7173  2.4506
18818TIP3    H277946   2.461   3.886   0.080 -0.4575 -0.0028  0.5867
18819TIP3   OH277947   1.360   5.015   2.394 -0.0094 -0.0448 -0.3516
18819TIP3    H177948   1.387   5.050   2.309  1.5330  0.2074  0.2409
18819TIP3    H277949   1.362   5.090   2.453 -4.0875  0.4810 -0.7037
18820TIP3   OH277950   5.852   3.801  10.315 -0.3873 -0.5333 -0.0759
18820TIP3    H177951   5.880   3.877  10.366  0.9655 -0.9092 -0.2314
18820TIP3    H277952   5.757   3.799  10.325 -0.3473  0.6697  0.6392
18821TIP3   OH277953   2.483   2.181  12.761 -0.5499 -0.3790 -0.4711
18821TIP3    H177954   2.460   2.266  12.724  0.0276  0.1781  0.4225
18821TIP3    H277955   2.558   2.200  12.818  0.5089 -1.7188 -1.3861
18822TIP3   OH277956   6.619   2.783  15.672  0.2001  0.0506 -0.4031
18822TIP3    H177957   6.629   2.815  15.762  1.6616 -0.0337 -0.5249
18822TIP3    H277958   6.552   2.839  15.635 -0.6529 -0.1181  0.8424
18823TIP3   OH277959   1.325   5.970  12.597  0.2267  0.4486  0.2275
18823TIP3    H177960   1.411   5.937  12.624 -0.2535 -0.7826  0.3252
18823TIP3    H277961   1.270   5.958  12.674 -0.0760  1.0385  0.1012
18824TIP3   OH277962   2.612   5.594   5.663 -0.0675  0.2666  0.3102
18824TIP3    H177963   2.633   5.686   5.650 -0.9702  0.5822  1.0291
18824TIP3    H277964   2.665   5.567   5.737 -1.0288  0.6599  1.1575
18825TIP3   OH277965   4.950   1.161  14.899  0.7496 -0.3425 -0.5389
18825TIP3    H177966   4.898   1.081  14.899 -0.3166  0.3257  0.4348
18825TIP3    H277967   4.903   1.220  14.958  0.4689  1.6674 -2.6748
18826TIP3   OH277968   2.319   5.112  15.500 -0.3769  0.1819  0.2683
18826TIP3    H177969   2.273   5.184  15.542 -0.3295  0.4675 -0.1687
18826TIP3    H277970   2.256   5.040  15.499 -0.4819  0.2713  0.5478
18827TIP3   OH277971   1.372   6.187   1.106  0.1194  0.3077 -0.3444
18827TIP3    H177972   1.319   6.158   1.180  2.1384  0.2744  1.1311
18827TIP3    H277973   1.416   6.108   1.075  2.5640  1.0191  1.1663
18828TIP3   OH277974   5.046   4.677  10.903  0.6857 -0.4885  0.0951
18828TIP3    H177975   5.007   4.668  10.990  1.3368 -0.9261  0.3460
18828TIP3    H277976   5.030   4.593  10.860  1.3385 -0.6760  0.2020
18829TIP3   OH277977   4.176   6.814  13.267 -0.3657 -0.4165 -0.1291
18829TIP3    H177978   4.123   6.802  13.189  3.3035 -2.6336 -2.3870
18829TIP3    H277979   4.112   6.838  13.335 -3.7812  0.3681 -3.4355
18830TIP3   OH277980   5.815   0.991   3.386 -0.0851 -0.7651  0.3678
18830TIP3    H177981   5.846   0.914   3.338  0.0780 -0.1436 -0.5318
18830TIP3    H277982   5.724   1.000   3.360 -0.1003 -0.6434  0.4653
18831TIP3   OH277983   0.693   0.732   2.564  0.2057 -0.5429  0.5101
18831TIP3    H177984   0.684   0.763   2.655 -0.7607 -1.4277  0.7281
18831TIP3    H277985   0.733   0.805   2.518 -0.3734  0.3643  1.4109
18832TIP3   OH277986   5.708   3.461  11.501  0.0396  0.3778  0.0027
18832TIP3    H177987   5.789   3.480  11.453  0.4494  0.2792  0.6432
18832TIP3    H277988   5.660   3.544  11.501  0.2346  0.4912 -0.1984
18833TIP3   OH277989   0.273   1.882  14.868  0.0011 -0.9072  0.1077
18833TIP3    H177990   0.256   1.870  14.962 -1.3127 -1.9690 -0.2439
18833TIP3    H277991   0.188   1.867  14.827 -0.0006  2.1444 -1.0576
18834TIP3   OH277992   2.925   3.815   2.983  0.1955 -0.2286  0.1755
18834TIP3    H177993   2.863   3.874   2.940 -0.3796 -0.7145  0.3279
18834TIP3    H277994   2.872   3.765   3.045  1.0490  0.5552  1.5631
18835TIP3   OH277995   5.935   0.021  16.594 -0.5069  0.9531 -0.3564
18835TIP3    H177996   5.913  -0.032  16.518 -0.2613  1.4857 -0.8011
18835TIP3    H277997   5.893   0.105  16.577 -1.1749  0.8033  0.4988
18836TIP3   OH277998   5.050   1.151  15.561 -0.0082 -0.2465  0.2288
18836TIP3    H177999   5.082   1.125  15.647 -1.1032  0.1656  0.7760
18836TIP3    H278000   5.022   1.242  15.572  0.2535 -0.0558 -0.6732
18837TIP3   OH278001   3.285   6.034   4.240  0.6235  0.3710  0.0096
18837TIP3    H178002   3.266   6.034   4.146  0.7593  0.6872 -0.0177
18837TIP3    H278003   3.254   6.118   4.271  0.5958  0.2735  0.2477
18838TIP3   OH278004   5.015   3.763   1.743  0.0026  0.6857 -0.4161
18838TIP3    H178005   4.932   3.801   1.772  0.4209  0.5908  0.9207
18838TIP3    H278006   5.081   3.829   1.762  0.6677 -0.4774  1.5231
18839TIP3   OH278007   4.507   1.847   0.694 -0.5599 -0.3450  0.1340
18839TIP3    H178008   4.573   1.819   0.757 -0.8031 -1.2201  0.0074
18839TIP3    H278009   4.552   1.847   0.610 -0.3677  0.3520  0.2306
18840TIP3   OH278010   3.742   4.856   5.308 -0.3318 -0.7140  0.3150
18840TIP3    H178011   3.723   4.944   5.342 -2.2972 -1.5280  1.3987
18840TIP3    H278012   3.761   4.870   5.215  0.8448  1.0236  0.7990
18841TIP3   OH278013   3.877   2.352   4.637  0.1852  0.3361 -0.0126
18841TIP3    H178014   3.924   2.399   4.568 -0.3961 -0.2787 -0.8365
18841TIP3    H278015   3.921   2.267   4.641 -0.2415  0.1107 -0.1207
18842TIP3   OH278016   6.590   5.163   4.068 -0.6477 -0.8789  0.1567
18842TIP3    H178017   6.513   5.198   4.022  0.1936  0.4422 -0.2646
18842TIP3    H278018   6.553   5.113   4.141 -1.9116 -0.1858  0.0171
18843TIP3   OH278019   6.489   1.406  10.981 -0.9064 -0.9924  0.0918
18843TIP3    H178020   6.557   1.423  11.047  0.1985 -1.9903 -0.7647
18843TIP3    H278021   6.532   1.422  10.898 -2.7005  1.6623 -0.4030
18844TIP3   OH278022   1.200   3.284   0.017 -0.0497  0.0703  0.5175
18844TIP3    H178023   1.266   3.246  -0.041 -0.2224 -0.6227  0.7652
18844TIP3    H278024   1.244   3.358   0.058  0.2288  0.2612 -0.1237
18845TIP3   OH278025   1.436   3.944  12.205  0.1256 -0.3529 -0.1473
18845TIP3    H178026   1.453   3.863  12.254 -0.2550  0.0073  0.5972
18845TIP3    H278027   1.501   4.005  12.240  0.2590 -0.2687 -0.5437
18846TIP3   OH278028   2.880   6.037  12.574 -0.5621 -0.2385 -0.4579
18846TIP3    H178029   2.785   6.030  12.582 -0.3741 -2.0720  0.5049
18846TIP3    H278030   2.903   5.979  12.502 -0.0993 -0.4718 -0.1304
18847TIP3   OH278031   0.460   2.165   0.272 -0.5145  0.3748  0.2252
18847TIP3    H178032   0.429   2.077   0.252  0.3905  0.0432  0.2615
18847TIP3    H278033   0.382   2.220   0.265 -0.8391 -0.2253 -1.0846
18848TIP3   OH278034   3.487   4.390   4.112  0.1595  0.5237 -0.3074
18848TIP3    H178035   3.397   4.365   4.134 -0.4650  2.6908 -0.3681
18848TIP3    H278036   3.480   4.438   4.030  1.4265  0.4965 -0.4518
18849TIP3   OH278037   3.889   4.054  14.898 -0.3555  0.2626 -0.3232
18849TIP3    H178038   3.892   4.143  14.935  1.9268  0.7723 -1.6386
18849TIP3    H278039   3.951   4.056  14.826 -0.2640 -2.4368 -0.3724
18850TIP3   OH278040   0.104   0.899  16.270  0.5871 -0.0283 -0.0158
18850TIP3    H178041   0.143   0.954  16.337  0.0895 -0.3222  0.5279
18850TIP3    H278042   0.063   0.960  16.209 -1.5363  0.1748  1.5543
18851TIP3   OH278043   2.901   4.203   4.118 -0.0262  0.0656 -0.3939
18851TIP3    H178044   2.847   4.240   4.049 -0.1798 -0.2805 -0.4632
18851TIP3    H278045   2.945   4.128   4.077 -2.6647 -2.1800  0.7312
18852TIP3   OH278046   1.191   3.082   0.991 -0.1600  0.9347  0.0103
18852TIP3    H178047   1.200   3.178   0.994  0.7663  0.8421  0.4353
18852TIP3    H278048   1.133   3.066   0.917 -1.3482  1.8982  0.6978
18853TIP3   OH278049   4.802   2.103   1.474  0.2473  0.1983 -0.0382
18853TIP3    H178050   4.838   2.186   1.505  0.1710  0.6883 -1.2337
18853TIP3    H278051   4.800   2.047   1.552  0.4496  1.2594  0.7424
18854TIP3   OH278052   6.601   4.825   4.046 -0.0639  0.2955 -0.0867
18854TIP3    H178053   6.624   4.788   4.131 -0.2620 -0.4774 -0.3728
18854TIP3    H278054   6.515   4.865   4.061 -1.0449 -1.6344 -0.4425
18855TIP3   OH278055   1.534   6.810   2.268  0.5288 -0.7161  1.0902
18855TIP3    H178056   1.467   6.773   2.210  0.6340 -1.2100  1.2800
18855TIP3    H278057   1.508   6.901   2.280 -0.6166 -1.1305  1.8827
18856TIP3   OH278058   5.842   6.127   1.069 -0.1580 -0.3105  0.6210
18856TIP3    H178059   5.804   6.126   1.157  0.6278 -2.1874  0.9561
18856TIP3    H278060   5.800   6.054   1.024 -0.6495  0.7204 -0.6187
18857TIP3   OH278061   4.859   2.448  16.528  0.0942  0.7157 -0.2279
18857TIP3    H178062   4.867   2.356  16.555  0.5796  0.7335 -0.3088
18857TIP3    H278063   4.765   2.461  16.516  0.0465  0.1481 -0.4861
18858TIP3   OH278064   3.238   2.378   3.100  0.1904  0.3127  0.0330
18858TIP3    H178065   3.265   2.382   3.192 -1.1602  1.1728  0.4089
18858TIP3    H278066   3.294   2.442   3.056  0.3239  0.4526  0.4044
18859TIP3   OH278067   4.145   2.667   0.600  0.7786 -0.1791  0.3001
18859TIP3    H178068   4.184   2.610   0.534  1.4774  1.0324 -0.3528
18859TIP3    H278069   4.138   2.612   0.678  1.4349 -1.1475 -0.3131
18860TIP3   OH278070   5.639   0.350  12.546 -0.3096  0.2320  0.9059
18860TIP3    H178071   5.734   0.356  12.548 -0.2252 -0.2760 -0.6060
18860TIP3    H278072   5.621   0.259  12.525 -1.1371  0.3198  1.2018
18861TIP3   OH278073   0.257   4.352  16.630  0.0237 -0.0133  0.4183
18861TIP3    H178074   0.307   4.345  16.548 -0.3310 -0.4244  0.2362
18861TIP3    H278075   0.281   4.438  16.665  0.4447  0.0188  0.0617
18862TIP3   OH278076   1.577   2.953  15.671  0.2606  0.1803 -0.8823
18862TIP3    H178077   1.545   2.887  15.733  0.9094  0.3502 -0.3548
18862TIP3    H278078   1.518   3.027  15.682 -0.3376 -0.2228 -1.3180
18863TIP3   OH278079   4.652   2.561   2.548 -0.4956 -0.1960 -0.4760
18863TIP3    H178080   4.715   2.626   2.517  0.3770 -0.7757  0.0254
18863TIP3    H278081   4.707   2.485   2.571 -0.9027  0.6755  3.8297
18864TIP3   OH278082   3.234   4.580  15.984  0.2839 -0.3339 -0.9503
18864TIP3    H178083   3.256   4.563  15.892  1.9020  1.9668 -1.0117
18864TIP3    H278084   3.157   4.525  16.000  0.5987 -1.5621 -3.3721
18865TIP3   OH278085   1.679   3.579   5.797 -0.4178 -0.7285 -0.3316
18865TIP3    H178086   1.686   3.665   5.755 -2.1147 -0.7745 -0.7506
18865TIP3    H278087   1.708   3.594   5.887  1.7027 -0.2809 -1.0649
18866TIP3   OH278088   4.940   0.333  10.634  0.4126 -0.3624  0.8299
18866TIP3    H178089   4.916   0.244  10.659 -0.9009 -0.1650  0.3484
18866TIP3    H278090   5.006   0.323  10.566  1.6267 -0.9403  2.0812
18867TIP3   OH278091   4.957   4.485  16.280 -0.0775  0.1432 -0.1614
18867TIP3    H178092   4.946   4.564  16.227 -0.9009  0.1822  0.0679
18867TIP3    H278093   5.028   4.507  16.341 -1.9525  1.5897  1.5537
18868TIP3   OH278094   3.047   1.858   5.343  0.1252 -0.6075 -0.1309
18868TIP3    H178095   3.023   1.773   5.304  0.1285  0.2961 -2.1399
18868TIP3    H278096   3.066   1.837   5.435 -0.3548 -2.7041 -0.4760
18869TIP3   OH278097   2.359   1.161  11.641  0.7610  0.0801  0.3676
18869TIP3    H178098   2.451   1.137  11.631  0.4928 -0.9146  0.2533
18869TIP3    H278099   2.313   1.078  11.647 -0.4342  0.4855 -2.1701
18870TIP3   OH278100   3.061   6.500   3.144  0.5260  0.0789 -0.1461
18870TIP3    H178101   3.020   6.586   3.141 -0.4033 -0.3794 -0.6142
18870TIP3    H278102   3.067   6.480   3.238 -2.6368 -0.9292 -0.0840
18871TIP3   OH278103   0.458   1.418  11.375 -0.2046  0.2465  0.0160
18871TIP3    H178104   0.400   1.494  11.382  0.0967  0.2926  2.3411
18871TIP3    H278105   0.399   1.343  11.371 -0.4685  0.4776 -0.5302
18872TIP3   OH278106   0.033   6.660  12.379  0.1051 -0.3680  0.5124
18872TIP3    H178107  -0.034   6.699  12.436  1.1947  1.2901  0.6942
18872TIP3    H278108   0.034   6.716  12.301 -0.9869 -2.3001 -0.9433
18873TIP3   OH278109   1.381   5.550   2.800 -0.1552  0.2687  0.2948
18873TIP3    H178110   1.343   5.510   2.879 -0.0573  0.3490  0.3832
18873TIP3    H278111   1.470   5.574   2.826  0.0624 -0.2002 -0.0047
18874TIP3   OH278112   2.855   3.125  12.209 -0.5024  0.0418  0.1695
18874TIP3    H178113   2.888   3.199  12.158 -2.5390  1.3756  0.7587
18874TIP3    H278114   2.931   3.066  12.217  1.2204  2.1679 -0.0635
18875TIP3   OH278115   4.429   5.502   1.210  0.5425 -0.5599  0.3126
18875TIP3    H178116   4.466   5.590   1.212  4.1920 -2.0013  0.1499
18875TIP3    H278117   4.477   5.457   1.141 -3.1893 -1.9514 -1.5468
18876TIP3   OH278118   2.227   5.308  11.150  0.5493 -0.3209 -0.4095
18876TIP3    H178119   2.229   5.266  11.064 -0.2040 -0.4771 -0.3509
18876TIP3    H278120   2.252   5.399  11.132  2.2213 -0.7909 -0.5280
18877TIP3   OH278121   3.506   5.958   4.925 -0.4457  0.0126  0.1967
18877TIP3    H178122   3.526   5.905   4.848 -0.2998  0.9846 -0.4459
18877TIP3    H278123   3.554   5.916   4.996  1.2144  0.3738 -0.6712
18878TIP3   OH278124   1.051   3.408  13.002  0.4676 -0.2944  0.0692
18878TIP3    H178125   1.039   3.502  12.985 -0.0351 -0.5599 -1.1264
18878TIP3    H278126   1.000   3.392  13.081 -0.5644  0.1799 -0.4871
18879TIP3   OH278127   2.280   4.308   2.035 -0.0274  0.2506 -0.7472
18879TIP3    H178128   2.373   4.289   2.052 -0.0897  0.1620 -0.4952
18879TIP3    H278129   2.277   4.402   2.020 -0.0187  0.3931  0.1075
18880TIP3   OH278130   5.303   6.604   1.153  0.0129 -0.2043  0.2617
18880TIP3    H178131   5.364   6.677   1.143 -0.8081  0.6709  1.5216
18880TIP3    H278132   5.222   6.644   1.186 -1.3322 -1.3220 -1.6195
18881TIP3   OH278133   5.425   4.588   3.274  0.5162  0.4302 -0.7165
18881TIP3    H178134   5.407   4.569   3.366 -0.0185 -0.2546 -0.9590
18881TIP3    H278135   5.451   4.681   3.273  0.4477  0.4572  0.1108
18882TIP3   OH278136   6.154   1.516   0.038 -0.0065  0.2318 -0.0681
18882TIP3    H178137   6.175   1.573   0.112  3.8482 -0.4165 -0.5580
18882TIP3    H278138   6.180   1.567  -0.039 -1.4642 -0.1533 -0.8253
18883TIP3   OH278139   5.110   2.436  17.223 -0.0499 -0.1448  0.0504
18883TIP3    H178140   5.100   2.378  17.148  3.3042 -1.2267  0.3649
18883TIP3    H278141   5.203   2.458  17.224  0.1664 -0.8820  4.3845
18884TIP3   OH278142   5.543   3.239   5.413  0.2016 -0.5426 -0.4570
18884TIP3    H178143   5.567   3.202   5.498  0.8578 -0.6165 -0.6801
18884TIP3    H278144   5.555   3.333   5.424 -2.8717 -0.2059  0.5850
18885TIP3   OH278145   0.602   3.944  14.992  0.0168 -0.2161  0.1561
18885TIP3    H178146   0.620   3.886  15.066  3.2336  0.8379  0.2667
18885TIP3    H278147   0.589   4.030  15.031  0.5390  0.1184 -0.3859
18886TIP3   OH278148   6.732   2.175   4.297  0.0256 -0.1055 -0.1020
18886TIP3    H178149   6.663   2.165   4.232 -1.1688 -3.2511  1.5621
18886TIP3    H278150   6.813   2.152   4.250 -0.5125 -0.0324 -1.0783
18887TIP3   OH278151   4.564   3.609   1.647 -0.4542  0.2038  0.0288
18887TIP3    H178152   4.476   3.571   1.653 -0.7279  0.8634  0.2538
18887TIP3    H278153   4.600   3.573   1.566 -1.4463  0.9909 -0.7797
18888TIP3   OH278154   1.231   0.925   6.606  0.6827  0.0816  0.4066
18888TIP3    H178155   1.181   0.969   6.537 -0.5988 -1.3820  0.3843
18888TIP3    H278156   1.198   0.963   6.688 -1.3835 -1.7906  0.4555
18889TIP3   OH278157   0.987   2.426   3.979 -0.0456  0.0646  0.8273
18889TIP3    H178158   1.048   2.354   3.964 -0.0786  0.2987 -0.5704
18889TIP3    H278159   0.919   2.389   4.035 -0.0978 -1.0334  0.0693
18890TIP3   OH278160   1.745   3.676  11.714 -0.1489 -0.4808 -0.3600
18890TIP3    H178161   1.793   3.658  11.794  0.7181 -0.0938 -0.7856
18890TIP3    H278162   1.689   3.599  11.701 -1.5152  0.1802  1.4880
18891TIP3   OH278163   3.538   4.985  10.700 -0.1411  0.3897 -0.5856
18891TIP3    H178164   3.523   4.935  10.620  1.3192  0.1112 -0.7084
18891TIP3    H278165   3.480   4.945  10.765 -0.6680  0.0308 -1.2770
18892TIP3   OH278166   2.095   5.836   4.142  0.0757 -0.4401 -0.1273
18892TIP3    H178167   2.071   5.752   4.103  0.9531 -0.1417 -1.3531
18892TIP3    H278168   2.013   5.886   4.142 -0.1911 -0.8639 -0.5057
18893TIP3   OH278169   1.975   0.762   2.798  0.5255  0.2712  0.3546
18893TIP3    H178170   1.951   0.729   2.884 -0.1615 -0.2787 -0.0438
18893TIP3    H278171   2.059   0.807   2.812  0.6014 -0.1344  1.2306
18894TIP3   OH278172   1.822   5.879   0.619  0.4913 -0.2772  0.1591
18894TIP3    H178173   1.799   5.823   0.693 -0.7858 -0.3014 -0.2391
18894TIP3    H278174   1.842   5.964   0.658 -0.1401 -0.2994  0.5346
18895TIP3   OH278175   5.669   5.613   4.525 -0.8382  0.2822 -0.5484
18895TIP3    H178176   5.739   5.625   4.462 -1.3244 -1.1830 -1.3834
18895TIP3    H278177   5.603   5.561   4.479 -2.2538  1.1976  0.3906
18896TIP3   OH278178   5.780   0.209   1.606  0.3257 -0.1050  0.4084
18896TIP3    H178179   5.837   0.186   1.679 -1.1967  2.0961  2.3282
18896TIP3    H278180   5.700   0.242   1.646 -1.2999 -0.6026 -2.2565
18897TIP3   OH278181   3.305   6.056   2.762 -0.1158 -0.1042 -0.6134
18897TIP3    H178182   3.366   6.055   2.836  0.1469  1.9695 -0.7574
18897TIP3    H278183   3.336   5.987   2.704  1.7666  0.5178 -0.3961
18898TIP3   OH278184   6.785   6.708  11.301  0.2429 -0.0838 -0.4686
18898TIP3    H178185   6.855   6.750  11.252 -0.8782  3.6364  0.8982
18898TIP3    H278186   6.827   6.672  11.379  1.1901 -1.3158 -1.5337
18899TIP3   OH278187   5.271   1.359  17.064 -0.0645 -1.0123  0.7078
18899TIP3    H178188   5.261   1.392  16.975 -2.3081 -4.7141 -0.5096
18899TIP3    H278189   5.205   1.408  17.115 -2.2614 -2.3914 -0.7320
18900TIP3   OH278190   6.126   4.618  11.580 -0.0261 -0.0346 -0.1285
18900TIP3    H178191   6.077   4.632  11.661 -1.5300  1.3719 -1.2250
18900TIP3    H278192   6.058   4.594  11.516  1.0432 -0.3964 -1.1408
18901TIP3   OH278193   4.684   1.425  16.300 -0.7388 -0.5931 -0.3882
18901TIP3    H178194   4.734   1.355  16.343  1.8518 -0.2980 -2.8193
18901TIP3    H278195   4.731   1.505  16.323 -1.2403 -0.1012 -1.0767
18902TIP3   OH278196   0.665   5.697   2.628 -0.0973  0.3409  0.3371
18902TIP3    H178197   0.620   5.777   2.599  1.1243  0.7499 -0.4615
18902TIP3    H278198   0.666   5.704   2.723 -0.0284  1.2654  0.2794
18903TIP3   OH278199   1.331   0.302   1.091 -0.2342 -0.0087  0.7420
18903TIP3    H178200   1.281   0.382   1.109  1.9207  1.6834 -0.6085
18903TIP3    H278201   1.345   0.303   0.996  2.0027 -0.6456  1.0381
18904TIP3   OH278202   5.643   3.654  11.818  0.1272  0.9056  0.2061
18904TIP3    H178203   5.713   3.663  11.753 -0.3684 -1.8204 -0.7527
18904TIP3    H278204   5.671   3.581  11.873  0.2273  2.7718  2.7308
18905TIP3   OH278205   3.673   6.817   0.020 -0.3864 -0.2033 -0.1964
18905TIP3    H178206   3.605   6.766  -0.026  0.2617  0.5208 -2.0075
18905TIP3    H278207   3.710   6.873  -0.048  1.3178  0.1576  1.0141
18906TIP3   OH278208   1.802   5.892   5.433 -0.3673 -0.4825  0.2229
18906TIP3    H178209   1.719   5.932   5.461 -0.0604 -0.9216  1.8337
18906TIP3    H278210   1.836   5.850   5.512  1.4891 -0.1536 -0.3698
18907TIP3   OH278211   6.799   1.422  11.853 -0.0986 -0.5958  0.1497
18907TIP3    H178212   6.823   1.331  11.834  1.3759  0.0304 -1.0103
18907TIP3    H278213   6.765   1.456  11.771 -3.4754 -0.9327  1.3011
18908TIP3   OH278214   2.745   3.062  13.449 -0.7725 -0.1624 -0.0245
18908TIP3    H178215   2.797   3.129  13.405 -0.7116  0.0847  0.4228
18908TIP3    H278216   2.778   3.061  13.538  0.0999 -1.7029 -0.3552
18909TIP3   OH278217   2.658   4.882  15.732  0.2879 -0.3426  0.1649
18909TIP3    H178218   2.725   4.895  15.799  0.9612 -1.4516 -0.2928
18909TIP3    H278219   2.668   4.957  15.673  1.7694 -0.9966 -0.4367
18910TIP3   OH278220   3.197   6.028  15.283 -0.2278 -0.1287 -0.4855
18910TIP3    H178221   3.283   6.050  15.318 -0.4226 -0.9266  0.5440
18910TIP3    H278222   3.146   6.109  15.292 -0.3551 -0.3790  1.3897
18911TIP3   OH278223   5.749   2.205   2.998 -0.3741  0.1404  0.1099
18911TIP3    H178224   5.670   2.217   2.945 -0.6811 -0.9240  0.3073
18911TIP3    H278225   5.724   2.140   3.063  0.2059  0.9432  1.1535
18912TIP3   OH278226   6.576   4.003  14.002  0.2120  0.1358  0.1127
18912TIP3    H178227   6.604   3.915  14.028  2.5245  0.5912 -0.7162
18912TIP3    H278228   6.565   4.049  14.085 -0.6116 -0.8164  0.5415
18913TIP3   OH278229   6.353   0.917  12.562 -0.5130 -0.6735 -0.3531
18913TIP3    H178230   6.376   0.987  12.624 -0.6218 -2.1237  1.3753
18913TIP3    H278231   6.432   0.904  12.510  0.2449 -0.7329  0.7848
18914TIP3   OH278232   1.135   6.390   5.227  0.0824  0.2638 -0.1239
18914TIP3    H178233   1.114   6.316   5.285  0.7909 -0.7973 -1.1981
18914TIP3    H278234   1.162   6.460   5.286  0.9819 -0.8599  0.8302
18915TIP3   OH278235   4.245   1.260  17.191 -0.0000  0.3478 -0.0859
18915TIP3    H178236   4.217   1.174  17.221  1.8908  0.0668  0.9349
18915TIP3    H278237   4.275   1.246  17.101 -0.6269  0.1351 -0.2602
18916TIP3   OH278238   2.593   1.000  14.979  0.0889 -0.2090  0.7566
18916TIP3    H178239   2.587   1.035  14.890 -2.4864 -1.7291  0.2750
18916TIP3    H278240   2.661   0.933  14.974 -0.1010 -0.3462 -0.0935
18917TIP3   OH278241   5.913   6.732  12.710  0.3060  0.6547  0.2782
18917TIP3    H178242   5.884   6.811  12.755 -1.0016  1.0202 -1.1906
18917TIP3    H278243   5.842   6.669  12.725  0.6272  0.2536  0.1159
18918TIP3   OH278244   0.325   5.064  12.687  0.6759  0.1803 -0.3738
18918TIP3    H178245   0.260   5.096  12.750  2.0032 -1.9324  2.1214
18918TIP3    H278246   0.284   4.986  12.649  0.2976  0.8952 -1.4954
18919TIP3   OH278247   5.212   3.190   0.630 -0.0333  0.7468 -0.3216
18919TIP3    H178248   5.179   3.101   0.634  1.3562  0.1903 -0.6930
18919TIP3    H278249   5.246   3.207   0.718  1.2099  0.2794 -0.6890
18920TIP3   OH278250   5.102   2.432   1.466  0.4747  0.0599 -0.0663
18920TIP3    H178251   5.090   2.339   1.481  0.9153  0.1502  0.9094
18920TIP3    H278252   5.178   2.455   1.520 -0.5032  1.2705  0.8371
18921TIP3   OH278253   0.588   1.390  13.134 -0.3962  0.2854  0.2670
18921TIP3    H178254   0.594   1.483  13.156 -1.3346  0.3283  0.3695
18921TIP3    H278255   0.664   1.373  13.078 -0.4610  1.2156 -0.1086
18922TIP3   OH278256   5.039   3.206   3.971  0.2907  0.1907  0.2652
18922TIP3    H178257   5.084   3.288   3.993  0.1941  0.1332  0.6893
18922TIP3    H278258   4.948   3.232   3.957  0.6263  0.4561 -1.5405
18923TIP3   OH278259   3.719   0.595   2.778  0.0583  0.3698 -0.2850
18923TIP3    H178260   3.803   0.632   2.806  1.3143 -0.5009 -2.7906
18923TIP3    H278261   3.723   0.504   2.806  0.3038  0.1155 -1.1445
18924TIP3   OH278262   5.030   4.966  15.746 -0.1205  0.0856 -0.6439
18924TIP3    H178263   4.993   5.049  15.717 -1.6955 -0.5209 -0.4336
18924TIP3    H278264   4.959   4.903  15.734  1.1640 -1.2967 -1.1267
18925TIP3   OH278265   6.132   1.878  14.515 -0.4170 -0.2685 -0.0554
18925TIP3    H178266   6.133   1.915  14.427  0.1549 -1.7610 -0.6984
18925TIP3    H278267   6.193   1.931  14.564 -1.0715  0.8564 -0.4342
18926TIP3   OH278268   4.186   2.232   5.571 -0.0400 -0.3618  0.1173
18926TIP3    H178269   4.188   2.181   5.652 -0.2184 -0.1991  0.2256
18926TIP3    H278270   4.199   2.167   5.501  1.9021 -0.2621  0.3603
18927TIP3   OH278271   0.920   0.319   4.935  0.6851  0.0634 -0.1069
18927TIP3    H178272   0.903   0.240   4.884 -0.9860  0.1655  0.2691
18927TIP3    H278273   1.015   0.331   4.930  0.9628 -1.9977 -0.1095
18928TIP3   OH278274   6.541   1.717  12.068 -0.3360 -0.2499  0.6502
18928TIP3    H178275   6.504   1.690  11.984  0.5084 -1.5672  0.7036
18928TIP3    H278276   6.467   1.716  12.129 -0.7039 -0.4407  0.1976
18929TIP3   OH278277   4.677   5.930   3.398 -0.5492  0.4671  0.4574
18929TIP3    H178278   4.749   5.934   3.335 -1.1936  2.0199 -0.2271
18929TIP3    H278279   4.626   5.853   3.371  0.0991  0.1506  0.1150
18930TIP3   OH278280   4.749   6.386  11.734 -0.1962  0.2034 -0.0894
18930TIP3    H178281   4.831   6.341  11.754 -1.2554 -1.9882 -0.5193
18930TIP3    H278282   4.775   6.458  11.676  1.3897 -0.5981 -0.3998
18931TIP3   OH278283   1.104   2.645  15.955 -0.4669  0.0124 -1.1505
18931TIP3    H178284   1.047   2.601  15.892 -0.0405 -0.7098 -1.0403
18931TIP3    H278285   1.192   2.638  15.917 -0.0362 -1.4648  0.0680
18932TIP3   OH278286   3.245   5.000  13.675  0.2674 -0.3217  0.4670
18932TIP3    H178287   3.205   4.913  13.675  1.2873 -0.8039 -0.1164
18932TIP3    H278288   3.296   5.002  13.594 -0.8003  1.3184 -0.1976
18933TIP3   OH278289   1.499   1.733  14.942 -0.1010 -0.0419 -0.0008
18933TIP3    H178290   1.516   1.699  14.854  0.6535 -3.5823  1.4172
18933TIP3    H278291   1.409   1.706  14.962 -0.3909  1.0430  0.1940
18934TIP3   OH278292   0.646   5.003   4.228  0.4623  0.3291 -0.4000
18934TIP3    H178293   0.652   4.979   4.320 -0.1491  0.6252 -0.2871
18934TIP3    H278294   0.655   5.098   4.227  1.8502  0.2199 -0.7655
18935TIP3   OH278295   4.406   1.403   2.057  0.1770 -0.4532  0.0478
18935TIP3    H178296   4.346   1.454   2.003  0.8030  0.2280 -0.0170
18935TIP3    H278297   4.395   1.313   2.028 -1.7419 -0.5302  0.8930
18936TIP3   OH278298   4.222   4.970   5.505 -0.2715 -0.0906  0.3341
18936TIP3    H178299   4.228   4.978   5.410 -0.5503  2.1496  0.4939
18936TIP3    H278300   4.136   5.006   5.527  0.6352  1.3027  1.6388
18937TIP3   OH278301   0.315   1.910   2.117 -0.9668 -0.4053 -0.0562
18937TIP3    H178302   0.267   1.900   2.199 -1.7410 -0.8956 -0.5680
18937TIP3    H278303   0.346   2.001   2.119 -0.8062 -0.4706  0.8661
18938TIP3   OH278304   4.295   3.741   3.600 -0.1511  0.1286  0.0463
18938TIP3    H178305   4.276   3.778   3.686 -1.9369  0.8952 -0.6462
18938TIP3    H278306   4.229   3.674   3.588  0.6252 -0.5692 -0.3864
18939TIP3   OH278307   5.808   1.138  11.062  0.4287 -0.5695  0.1327
18939TIP3    H178308   5.797   1.095  11.147 -0.0039  0.0434  0.3903
18939TIP3    H278309   5.840   1.069  11.004 -0.9338 -1.4108  0.3687
18940TIP3   OH278310   6.510   0.261   2.279 -0.0642  0.0528 -0.7069
18940TIP3    H178311   6.543   0.287   2.365  0.6834 -0.6503 -0.7804
18940TIP3    H278312   6.563   0.186   2.254 -0.0050  0.5076 -1.9792
18941TIP3   OH278313   2.992   6.423   1.189 -0.0392 -0.6206  0.1433
18941TIP3    H178314   2.967   6.399   1.100 -1.1077  1.6890 -0.2072
18941TIP3    H278315   2.918   6.474   1.222  2.2062  2.3746  0.7423
18942TIP3   OH278316   1.526   4.971   4.972  0.1872 -0.4050  0.2803
18942TIP3    H178317   1.559   4.918   5.045  2.0058  2.3605  1.5403
18942TIP3    H278318   1.573   4.938   4.896 -0.1847 -1.9144  0.6825
18943TIP3   OH278319   2.139   3.805  14.621  0.3088 -0.4642  0.8620
18943TIP3    H178320   2.182   3.886  14.592  0.5011 -0.1195  2.0645
18943TIP3    H278321   2.164   3.740  14.556  1.8211 -0.0309  0.9889
18944TIP3   OH278322   5.611   3.816  10.508 -0.0658 -0.1435  0.0051
18944TIP3    H178323   5.526   3.779  10.487  0.0108 -0.7378  0.7161
18944TIP3    H278324   5.593   3.907  10.531 -0.2346  0.3245 -1.8898
18945TIP3   OH278325   3.865   5.474  13.034 -0.0013  0.0887 -0.2266
18945TIP3    H178326   3.785   5.521  13.057 -0.1691 -0.3038 -0.0100
18945TIP3    H278327   3.850   5.446  12.943 -0.1363 -0.0351 -0.1676
18946TIP3   OH278328   0.662   4.538   3.162  0.3907 -0.1402 -0.3857
18946TIP3    H178329   0.608   4.466   3.129 -0.6767  0.3044  0.3903
18946TIP3    H278330   0.667   4.523   3.256  1.1889  0.1133 -0.3878
18947TIP3   OH278331   1.643   1.827  12.085 -0.3704  0.2302 -0.3078
18947TIP3    H178332   1.643   1.731  12.092 -1.4344  0.2340 -0.1187
18947TIP3    H278333   1.729   1.848  12.048 -0.5399 -0.8730 -1.3937
18948TIP3   OH278334   1.193   3.217   3.986  0.2128 -0.6264  0.7992
18948TIP3    H178335   1.219   3.297   3.941  1.3135 -0.8991  0.9482
18948TIP3    H278336   1.239   3.147   3.939 -2.4960 -1.4336 -0.7785
18949TIP3   OH278337   6.397   5.739  17.178  0.0687  0.3341  0.1458
18949TIP3    H178338   6.366   5.710  17.264 -0.2376  0.7075  0.1638
18949TIP3    H278339   6.493   5.736  17.185  0.0410 -0.1633  0.3185
18950TIP3   OH278340   2.062   3.612  16.400  0.1499  0.2166 -0.9261
18950TIP3    H178341   1.993   3.618  16.466  2.5999  0.5096  1.7367
18950TIP3    H278342   2.060   3.521  16.370 -1.7347  0.3740 -1.3264
18951TIP3   OH278343   4.407   1.534  12.119  0.4352 -0.3358 -0.3450
18951TIP3    H178344   4.440   1.449  12.089 -0.9140 -1.2077  0.5855
18951TIP3    H278345   4.464   1.557  12.192  2.0256  0.5040 -1.8150
18952TIP3   OH278346   6.517   5.039   4.308 -0.7792 -0.2307  0.3263
18952TIP3    H178347   6.587   4.974   4.313 -0.2734  0.0734 -2.0018
18952TIP3    H278348   6.505   5.069   4.398  2.0698 -0.2954  0.7664
18953TIP3   OH278349   4.707   3.799  11.209  0.0962  0.9198 -1.1694
18953TIP3    H178350   4.635   3.818  11.149 -0.9812  1.8840  0.4053
18953TIP3    H278351   4.774   3.865  11.188 -1.3046  2.8756  0.3762
18954TIP3   OH278352   6.521   5.045   5.044  1.1276 -0.2804  0.4032
18954TIP3    H178353   6.570   5.113   5.089 -0.6993  0.9994  0.5201
18954TIP3    H278354   6.569   4.964   5.063  3.4403  0.9654  0.0989
18955TIP3   OH278355   1.147   2.508   3.586 -0.1986 -0.0628  0.0349
18955TIP3    H178356   1.209   2.555   3.640 -1.6051  1.9733 -0.0817
18955TIP3    H278357   1.131   2.426   3.633  0.0207  0.8630  1.7318
18956TIP3   OH278358   5.220   4.602   6.612  0.3715  0.2169 -0.3605
18956TIP3    H178359   5.154   4.671   6.619 -1.5372 -1.4853 -1.0029
18956TIP3    H278360   5.262   4.616   6.527 -1.2089 -0.4093 -1.2650
18957TIP3   OH278361   5.035   4.785   0.767 -0.4155  0.3137  0.3997
18957TIP3    H178362   4.941   4.766   0.768 -0.1483 -1.0763  1.6631
18957TIP3    H278363   5.040   4.881   0.758 -1.9499  0.4074  0.3929
18958TIP3   OH278364   5.385   4.381  15.651 -0.1756  0.3543 -0.2231
18958TIP3    H178365   5.384   4.472  15.621  0.7502  0.8388  1.1273
18958TIP3    H278366   5.429   4.385  15.736 -0.9957 -1.2250  0.2947
18959TIP3   OH278367   1.542   6.784  14.787 -0.1728 -0.3208 -0.1560
18959TIP3    H178368   1.580   6.696  14.793 -1.0117 -1.0169 -3.5978
18959TIP3    H278369   1.464   6.780  14.841 -1.8802 -2.7319 -2.6354
18960TIP3   OH278370   3.750   6.281   6.742  0.0493 -0.0479 -0.5602
18960TIP3    H178371   3.801   6.243   6.813  0.0138  1.7661  0.4830
18960TIP3    H278372   3.811   6.338   6.696 -0.8401  1.6404  0.3039
18961TIP3   OH278373   3.392   4.952  13.444  0.1920  0.6413  0.6865
18961TIP3    H178374   3.383   4.889  13.372 -0.4927  0.7910  0.6363
18961TIP3    H278375   3.468   4.921  13.493 -1.0678 -1.1600  1.5768
18962TIP3   OH278376   0.660   4.269  14.313  0.2600  0.1200 -0.4564
18962TIP3    H178377   0.703   4.351  14.334  2.1356 -0.7967 -0.6179
18962TIP3    H278378   0.575   4.274  14.356  0.5739  1.9095 -0.0383
18963TIP3   OH278379   2.881   6.011  15.753  0.0939 -0.0453  0.4567
18963TIP3    H178380   2.868   5.976  15.841  3.6333 -1.3450  0.5430
18963TIP3    H278381   2.971   5.985  15.729 -0.5934  0.7016 -3.3307
18964TIP3   OH278382   6.715   1.882  12.559  0.3658  0.2942 -0.1703
18964TIP3    H178383   6.755   1.841  12.482 -1.4606  1.7329 -1.9407
18964TIP3    H278384   6.788   1.922  12.606  1.4859 -0.4572 -1.2380
18965TIP3   OH278385   5.756   0.540  11.842 -0.4394 -0.3929 -0.1266
18965TIP3    H178386   5.846   0.557  11.816 -0.4167 -1.1541 -0.5448
18965TIP3    H278387   5.757   0.544  11.937 -0.0234 -0.1157 -0.1411
18966TIP3   OH278388   3.957   3.488   5.785 -0.3170  0.1458  0.1293
18966TIP3    H178389   4.042   3.526   5.810 -0.2132 -0.8357  1.3507
18966TIP3    H278390   3.921   3.456   5.868 -1.0991 -1.0022 -0.6503
18967TIP3   OH278391   1.204   6.079   4.032  0.0052  0.1394  0.7269
18967TIP3    H178392   1.214   6.055   4.124 -1.8898  4.7562  2.2985
18967TIP3    H278393   1.119   6.123   4.028  1.3361  2.6380 -2.6121
18968TIP3   OH278394   4.485   5.677   6.339  0.4245  0.1968  0.6066
18968TIP3    H178395   4.511   5.592   6.303  0.8161  0.1297  1.0470
18968TIP3    H278396   4.390   5.669   6.351  0.6291 -0.6236  1.7934
18969TIP3   OH278397   5.912   0.488  12.672 -0.2040  0.3813 -0.1601
18969TIP3    H178398   5.928   0.498  12.578  2.8333 -1.1328  0.1378
18969TIP3    H278399   5.999   0.497  12.712 -1.3312  0.0866  2.4209
18970TIP3   OH278400   6.596   6.152  15.344  0.0227 -0.3498 -0.0730
18970TIP3    H178401   6.539   6.109  15.409  0.3902  1.5912  1.5682
18970TIP3    H278402   6.547   6.230  15.319  0.8274 -0.0097 -0.5703
18971TIP3   OH278403   4.305   0.357   4.404  0.0469 -0.3406 -0.6230
18971TIP3    H178404   4.257   0.342   4.322 -0.5211  2.2840 -0.8004
18971TIP3    H278405   4.338   0.446   4.397  1.6397 -0.7572  1.2098
18972TIP3   OH278406   3.194   5.054   3.044 -0.3105 -0.0658 -0.0059
18972TIP3    H178407   3.141   4.975   3.036 -0.4639  0.0706 -0.3670
18972TIP3    H278408   3.188   5.078   3.136  0.5076 -1.0078  0.2982
18973TIP3   OH278409   1.180   6.287  12.140  0.1094  0.7876  0.0787
18973TIP3    H178410   1.198   6.253  12.228  0.3079 -0.4751 -0.4349
18973TIP3    H278411   1.106   6.347  12.152 -1.4902 -1.2499  0.7464
18974TIP3   OH278412   2.658   5.345  10.810 -0.1376  0.3609  0.2859
18974TIP3    H178413   2.716   5.310  10.742 -1.0178 -1.2640  0.3529
18974TIP3    H278414   2.625   5.427  10.774  1.3735  0.7797 -0.1831
18975TIP3   OH278415   1.330   0.828   3.967 -0.3034  0.3699  0.3404
18975TIP3    H178416   1.424   0.838   3.954 -0.5165  0.8892 -0.9538
18975TIP3    H278417   1.315   0.852   4.058  0.6614  1.4723  0.2161
18976TIP3   OH278418   1.744   5.150  13.607 -0.2369 -0.1247 -0.1820
18976TIP3    H178419   1.666   5.129  13.556  0.5098 -2.7148 -0.3747
18976TIP3    H278420   1.759   5.071  13.660  0.9217  1.2232  1.5491
18977TIP3   OH278421   4.770   4.989   4.628  0.3766 -0.1424  0.1453
18977TIP3    H178422   4.818   4.925   4.576  0.7340 -1.8776  2.4882
18977TIP3    H278423   4.823   5.068   4.625 -0.1366  0.1374 -2.9118
18978TIP3   OH278424   5.805   0.402  11.162 -0.2201 -0.2146 -0.0979
18978TIP3    H178425   5.894   0.380  11.133 -0.2516 -0.7520  0.2044
18978TIP3    H278426   5.749   0.359  11.098 -0.2591  0.3373 -0.4360
18979TIP3   OH278427   1.244   1.607   6.597  0.1383  0.2214 -0.4225
18979TIP3    H178428   1.243   1.634   6.689 -1.3880  0.6831 -0.5518
18979TIP3    H278429   1.332   1.629   6.567  0.6455  0.0994  0.9173
18980TIP3   OH278430   0.936   1.127  10.623  0.0430  0.7624 -0.1592
18980TIP3    H178431   0.862   1.162  10.573 -1.0365 -0.9014  0.2409
18980TIP3    H278432   0.896   1.088  10.700  1.6232  2.5214  1.6176
18981TIP3   OH278433   2.423   4.942   2.176 -0.0004  0.0434 -0.5574
18981TIP3    H178434   2.508   4.899   2.177  0.2263  0.5017  0.0604
18981TIP3    H278435   2.430   5.009   2.107 -0.2345 -0.6659 -1.2723
18982TIP3   OH278436   3.373   4.711  14.600 -0.0794  1.0577  0.0168
18982TIP3    H178437   3.341   4.708  14.510 -1.2217 -1.2253  0.4796
18982TIP3    H278438   3.468   4.706  14.591 -0.1587  1.3510 -1.0748
18983TIP3   OH278439   0.485   2.948   0.125 -0.0110 -0.0054  0.0286
18983TIP3    H178440   0.408   3.002   0.111  0.6139  1.2091  1.1215
18983TIP3    H278441   0.501   2.954   0.220  1.8069  0.3021 -0.2825
18984TIP3   OH278442   4.498   0.864  14.809 -0.2815 -0.1816  0.6854
18984TIP3    H178443   4.581   0.912  14.803 -0.2394 -0.4576 -1.4926
18984TIP3    H278444   4.442   0.920  14.863  0.2381  1.6606 -0.6230
18985TIP3   OH278445   2.607   6.075  15.156  0.3850 -0.7313 -1.1585
18985TIP3    H178446   2.673   6.095  15.223 -0.3062  3.5921 -1.6142
18985TIP3    H278447   2.524   6.080  15.202  0.0949 -1.1693 -1.6328
18986TIP3   OH278448   5.744   6.362  17.141 -0.5052 -0.1631  0.1002
18986TIP3    H178449   5.691   6.363  17.221 -0.7712  0.8556 -0.0842
18986TIP3    H278450   5.757   6.454  17.120  1.3760 -0.4146  0.1428
18987TIP3   OH278451   2.485   0.864   1.450  0.0410  0.4111  0.8838
18987TIP3    H178452   2.506   0.837   1.540 -0.8537  0.7012  1.1755
18987TIP3    H278453   2.524   0.795   1.395  1.8232  0.9602  1.4108
18988TIP3   OH278454   4.315   4.602   0.859 -0.9699 -0.3276 -0.4462
18988TIP3    H178455   4.251   4.637   0.797 -2.3185  0.1155  1.1651
18988TIP3    H278456   4.279   4.517   0.886 -0.9680 -0.0129  0.5769
18989TIP3   OH278457   0.979   0.026   6.078 -0.2848 -0.1917 -0.0170
18989TIP3    H178458   1.001   0.062   6.164 -1.0195  0.0636  0.0701
18989TIP3    H278459   1.027  -0.057   6.073 -0.8007 -0.5547  0.9387
18990TIP3   OH278460   2.708   5.573  15.671  0.2407 -0.2107 -0.1157
18990TIP3    H178461   2.682   5.547  15.760 -1.3269  0.6837 -0.2750
18990TIP3    H278462   2.803   5.582  15.675  0.3808 -1.9103  0.9962
18991TIP3   OH278463   6.638   1.376  17.100 -0.0981 -0.8612 -0.2623
18991TIP3    H178464   6.545   1.398  17.095  0.5319  2.1219  0.4454
18991TIP3    H278465   6.674   1.439  17.162  2.6453 -1.0853 -1.5706
18992TIP3   OH278466   6.266   2.468  14.116 -0.2221 -0.1559  0.1764
18992TIP3    H178467   6.344   2.473  14.060 -0.5287 -0.6733 -0.2956
18992TIP3    H278468   6.260   2.555  14.156 -0.6752  0.5899 -1.4917
18993TIP3   OH278469   0.975   4.012   6.362  0.6196 -0.1860  0.0852
18993TIP3    H178470   0.951   4.047   6.448  0.6407 -1.1938  0.5050
18993TIP3    H278471   1.062   3.974   6.375  1.1046  0.6441 -0.6568
18994TIP3   OH278472   3.223   4.911   0.319 -0.0457  0.1183 -0.0574
18994TIP3    H178473   3.306   4.863   0.317  0.8000  1.4981  0.5718
18994TIP3    H278474   3.195   4.914   0.228  1.1647  0.5679 -0.4205
18995TIP3   OH278475   0.017   4.738   1.985 -0.3396  0.3449 -0.1886
18995TIP3    H178476   0.079   4.804   1.954 -0.0321 -0.9545 -2.3999
18995TIP3    H278477   0.054   4.655   1.958 -0.5647 -0.8044  2.8687
18996TIP3   OH278478   0.347   4.856  17.084  0.6670  0.4422  0.5211
18996TIP3    H178479   0.289   4.794  17.040 -0.8784  1.9745  0.3274
18996TIP3    H278480   0.399   4.894  17.013  1.4986 -0.4910  0.6209
18997TIP3   OH278481   1.237   5.963  16.122  0.9343  0.4745 -0.0195
18997TIP3    H178482   1.251   5.884  16.174  0.4066 -0.5962 -1.4621
18997TIP3    H278483   1.321   6.008  16.121  1.0107  0.3724  1.5184
18998TIP3   OH278484   0.557   0.145   0.739  0.6896  0.4131 -0.2102
18998TIP3    H178485   0.549   0.240   0.747  1.1070  0.4751 -0.4766
18998TIP3    H278486   0.636   0.123   0.789  0.4792  0.1813  0.0223
18999TIP3   OH278487   6.274   2.745   4.088  0.3958 -0.4099  0.5626
18999TIP3    H178488   6.288   2.833   4.052  0.8981  0.1531  2.1163
18999TIP3    H278489   6.185   2.722   4.063  1.0938 -0.4920 -2.0157
19000TIP3   OH278490   0.543   3.478   1.528  0.0945  0.4527  0.5500
19000TIP3    H178491   0.450   3.458   1.513  0.6090 -1.3056 -0.4636
19000TIP3    H278492   0.552   3.481   1.623 -0.8707 -0.0634  0.6649
19001TIP3   OH278493   4.832   3.459  12.739 -0.4568  0.1264 -0.7586
19001TIP3    H178494   4.860   3.372  12.765  0.8155  0.3413 -1.3731
19001TIP3    H278495   4.910   3.514  12.751 -0.6499  0.7710 -2.3031
19002TIP3   OH278496   1.736   6.242   4.354  0.7034  0.2210 -0.4145
19002TIP3    H178497   1.684   6.177   4.305  0.7638 -2.0057  2.3606
19002TIP3    H278498   1.681   6.320   4.355 -1.5388 -1.2815  0.2622
19003TIP3   OH278499   6.183   3.061   4.312 -0.1378  0.7849  0.0728
19003TIP3    H178500   6.091   3.043   4.332  0.0603 -0.3162  0.0129
19003TIP3    H278501   6.188   3.156   4.309 -0.7699  0.9476  2.5881
19004TIP3   OH278502   6.729   4.070   1.968 -0.8422  1.0564 -0.2424
19004TIP3    H178503   6.744   4.006   2.038 -2.2296  2.0787  1.0120
19004TIP3    H278504   6.790   4.044   1.899 -2.3475 -2.5311 -0.3788
19005TIP3   OH278505   1.822   5.527  14.098 -0.0549  0.0824  0.2908
19005TIP3    H178506   1.753   5.534  14.165 -0.5407 -1.2444 -0.0601
19005TIP3    H278507   1.780   5.559  14.018  0.9094  2.8685  0.8562
19006TIP3   OH278508   1.567   5.904  12.694  0.2846  0.2602 -0.2443
19006TIP3    H178509   1.607   5.928  12.610 -0.3502 -0.2085 -0.6822
19006TIP3    H278510   1.577   5.983  12.748  3.2336 -0.3595  0.2035
19007TIP3   OH278511   5.311   0.350  12.060 -0.0316  0.1588  0.1364
19007TIP3    H178512   5.318   0.279  12.124 -0.6138  0.2587  0.3188
19007TIP3    H278513   5.366   0.322  11.987  0.5067 -0.0347  0.6093
19008TIP3   OH278514   6.174   2.632   6.057  0.0031 -0.7342 -0.3963
19008TIP3    H178515   6.221   2.657   5.978  0.3186 -0.7552 -0.2161
19008TIP3    H278516   6.243   2.621   6.123 -0.3988  1.0237  0.3341
19009TIP3   OH278517   5.974   1.385   0.650 -0.4323  0.6359  0.3922
19009TIP3    H178518   6.017   1.451   0.705 -1.2282  1.3586  0.1657
19009TIP3    H278519   6.002   1.408   0.561  1.0010 -0.6386  0.4835
19010TIP3   OH278520   5.811   3.580  14.253 -0.8843 -0.4521 -0.3995
19010TIP3    H178521   5.750   3.599  14.324  0.1086 -1.1157  0.6508
19010TIP3    H278522   5.827   3.664  14.211  0.7614  0.4783  1.9900
19011TIP3   OH278523   0.768   6.239  15.051  0.8088 -0.1288 -0.0162
19011TIP3    H178524   0.717   6.214  14.975 -0.2516  0.6757  0.4248
19011TIP3    H278525   0.795   6.156  15.091 -0.1882 -0.5522 -0.2264
19012TIP3   OH278526   5.502   5.769  12.317 -0.4951  0.3131  0.0006
19012TIP3    H178527   5.488   5.681  12.352 -0.1147  0.2500 -0.0044
19012TIP3    H278528   5.596   5.773  12.299 -0.5852  0.5742 -0.4008
19013TIP3   OH278529   2.804   6.113  14.968 -0.4244 -0.1241  0.2278
19013TIP3    H178530   2.725   6.095  15.019 -0.6668 -0.5524 -0.2879
19013TIP3    H278531   2.871   6.056  15.005 -0.0207  1.1081  1.4534
19014TIP3   OH278532   4.351   4.110   4.537  0.4009 -0.5228 -0.1167
19014TIP3    H178533   4.357   4.014   4.528  0.4276 -0.3940 -1.5513
19014TIP3    H278534   4.414   4.131   4.606 -0.1431 -1.6241  0.7291
19015TIP3   OH278535   4.473   0.533  10.684 -0.1622 -0.1757 -0.1324
19015TIP3    H178536   4.563   0.532  10.651  0.6182 -1.2115  1.9417
19015TIP3    H278537   4.430   0.603  10.634  2.3825  1.8496  0.3937
19016TIP3   OH278538   1.638   4.963   3.988 -0.1780 -0.1618  0.0321
19016TIP3    H178539   1.606   4.873   4.001 -2.0160  0.8477  3.1641
19016TIP3    H278540   1.720   4.967   4.037 -0.2737 -0.0558  0.1858
19017TIP3   OH278541   0.832   0.262   3.379  0.2553 -0.3701 -0.3646
19017TIP3    H178542   0.873   0.268   3.465  1.1658 -0.1889 -0.7974
19017TIP3    H278543   0.740   0.282   3.394  0.3264 -0.7828  0.6340
19018TIP3   OH278544   6.587   0.548  15.960 -0.1871 -0.3548 -0.0056
19018TIP3    H178545   6.669   0.513  15.995 -0.3855 -0.2840  0.5313
19018TIP3    H278546   6.611   0.633  15.924  0.0218 -0.4340 -0.0576
19019TIP3   OH278547   2.416   6.776  13.398 -0.2531 -0.1880 -0.1602
19019TIP3    H178548   2.366   6.841  13.349 -0.2699  0.4326  0.6750
19019TIP3    H278549   2.438   6.709  13.333 -1.4138 -0.0374 -0.7241
19020TIP3   OH278550   5.143   6.661  11.483  0.4799 -0.4839  0.1007
19020TIP3    H178551   5.162   6.755  11.482 -0.7796 -0.2141 -0.0867
19020TIP3    H278552   5.224   6.620  11.512  1.0249  0.6692  0.2385
19021TIP3   OH278553   6.184   4.563  14.657  0.0333  0.0686 -0.3702
19021TIP3    H178554   6.260   4.621  14.664  1.3127 -1.6845  0.6713
19021TIP3    H278555   6.165   4.537  14.746 -0.7526 -0.8345 -0.7944
19022TIP3   OH278556   6.665   3.792  14.556 -0.4041  0.2081 -0.0873
19022TIP3    H178557   6.710   3.834  14.629  0.5212  0.5354 -0.8257
19022TIP3    H278558   6.618   3.719  14.596  0.0325  0.4227  0.8451
19023TIP3   OH278559   0.187   6.592   5.679  0.0390 -0.6442  0.6372
19023TIP3    H178560   0.172   6.686   5.692 -3.2501 -1.2664  1.7855
19023TIP3    H278561   0.142   6.551   5.753 -0.3242 -3.2453 -0.9928
19024TIP3   OH278562   4.851   4.884  16.015  0.2699 -0.0911 -0.1945
19024TIP3    H178563   4.821   4.914  15.929  2.5130  0.4503 -0.8207
19024TIP3    H278564   4.908   4.954  16.047 -0.9482 -0.0471  1.9791
19025TIP3   OH278565   3.201   5.676  15.577 -0.5500  0.4600 -0.1478
19025TIP3    H178566   3.240   5.663  15.491  1.8235 -0.5462  1.0484
19025TIP3    H278567   3.205   5.771  15.592  3.8828  0.2211  0.9837
19026TIP3   OH278568   2.313   2.272  14.430  0.4312 -0.6679  0.1876
19026TIP3    H178569   2.252   2.346  14.430  0.3789 -0.7126 -0.9502
19026TIP3    H278570   2.345   2.267  14.340  2.0198 -0.7316  0.7463
19027TIP3   OH278571   6.235   3.759  16.805  0.1361  0.2823 -0.5301
19027TIP3    H178572   6.192   3.832  16.759 -0.7494  0.8513  1.1811
19027TIP3    H278573   6.165   3.719  16.857  0.4483 -2.2399 -1.9546
19028TIP3   OH278574   0.544   3.533  13.593 -0.0274  0.0467  0.0941
19028TIP3    H178575   0.599   3.609  13.613 -0.3746  1.0971 -2.7067
19028TIP3    H278576   0.585   3.493  13.517 -1.5177 -0.8425 -0.2630
19029TIP3   OH278577   2.168   1.781  11.212 -0.2713  0.4897  0.4496
19029TIP3    H178578   2.238   1.723  11.183 -0.3691  1.1620 -1.2126
19029TIP3    H278579   2.098   1.722  11.240  0.0216 -0.1932 -0.2308
19030TIP3   OH278580   2.328   3.986   1.215  0.1563  0.2363  0.0569
19030TIP3    H178581   2.313   3.997   1.309  1.5697  1.7205  0.1404
19030TIP3    H278582   2.337   3.892   1.203 -0.3264  0.0087  1.3715
19031TIP3   OH278583   6.018   3.874   0.979  1.1436 -0.4241  0.2732
19031TIP3    H178584   5.979   3.958   1.002 -0.2677 -0.9495 -0.1131
19031TIP3    H278585   6.106   3.877   1.016  0.1080  0.0828  2.7687
19032TIP3   OH278586   3.523   1.023   3.389 -0.7523 -0.2824  0.4921
19032TIP3    H178587   3.448   0.964   3.383 -0.4966 -0.8551  2.6589
19032TIP3    H278588   3.598   0.965   3.406  0.1224  0.3295 -1.1683
19033TIP3   OH278589   0.140   4.918   2.804  0.1771  0.2151 -0.0828
19033TIP3    H178590   0.097   5.004   2.796  0.4378  0.2836 -0.7783
19033TIP3    H278591   0.072   4.855   2.779 -0.4077  0.1244  1.6633
19034TIP3   OH278592   2.144   4.998  13.265 -0.2005 -0.5995  0.6834
19034TIP3    H178593   2.107   4.936  13.328 -0.0282 -0.3153  1.0649
19034TIP3    H278594   2.085   4.993  13.190 -1.5643  0.5381  1.6426
19035TIP3   OH278595   5.552   6.122   6.148 -0.3716  0.5654 -0.1406
19035TIP3    H178596   5.586   6.196   6.098 -0.2778  0.5248 -0.1358
19035TIP3    H278597   5.504   6.162   6.220  1.4959  0.6047  1.0874
19036TIP3   OH278598   4.400   6.605   2.336  0.2638 -0.5604 -0.6774
19036TIP3    H178599   4.448   6.582   2.257  0.0617 -0.1335 -0.9288
19036TIP3    H278600   4.349   6.682   2.311  0.4594 -0.2197 -0.0344
19037TIP3   OH278601   5.372   2.743  16.699 -0.1068 -0.5789  0.2687
19037TIP3    H178602   5.341   2.770  16.613  0.1961  0.7189  0.5597
19037TIP3    H278603   5.381   2.648  16.692 -0.7115 -0.5607 -0.9218
19038TIP3   OH278604   4.878   2.969  13.578  0.4442  0.3359 -0.1322
19038TIP3    H178605   4.901   2.940  13.490  0.7206  0.4132 -0.0851
19038TIP3    H278606   4.814   3.039  13.565 -0.0402 -0.1258 -0.2499
19039TIP3   OH278607   4.807   0.468   5.943  0.4933 -0.3597 -0.4827
19039TIP3    H178608   4.833   0.419   5.865  1.3681 -2.9091  1.3364
19039TIP3    H278609   4.844   0.418   6.016 -2.9850  0.2032  1.7644
19040TIP3   OH278610   0.273   6.696  14.690 -0.3893 -0.3430  0.0570
19040TIP3    H178611   0.332   6.657  14.625 -0.9548 -1.5767  0.2685
19040TIP3    H278612   0.208   6.745  14.638  0.3731  0.4019 -0.2057
19041TIP3   OH278613   3.546   2.813  11.798 -0.5582  0.3082  0.1213
19041TIP3    H178614   3.540   2.878  11.868 -0.8899  0.5439 -0.1263
19041TIP3    H278615   3.456   2.782  11.786 -0.3007 -0.6927  0.7074
19042TIP3   OH278616   2.665   5.881   5.002  0.2358  0.0427 -0.5497
19042TIP3    H178617   2.604   5.943   4.961 -0.3028 -0.2170 -0.1354
19042TIP3    H278618   2.745   5.890   4.950  0.0757  0.8922 -0.6626
19043TIP3   OH278619   0.631   5.687  11.866 -0.2701 -0.2738 -0.3454
19043TIP3    H178620   0.684   5.680  11.787  1.3293  0.8715  0.5892
19043TIP3    H278621   0.682   5.639  11.932 -1.7724 -1.5540 -0.0778
19044TIP3   OH278622   2.811   1.922  13.096  0.1870 -0.6524 -0.6769
19044TIP3    H178623   2.757   1.930  13.175  1.5330  0.2842  0.1727
19044TIP3    H278624   2.750   1.893  13.028 -1.5827  1.3001  0.0195
19045TIP3   OH278625   0.435   5.041  15.079  0.3177  0.0630 -0.1936
19045TIP3    H178626   0.417   5.116  15.023  1.2297 -0.2108 -0.8801
19045TIP3    H278627   0.362   5.038  15.140 -0.1380  1.0229 -0.6771
19046TIP3   OH278628   4.139   5.094   6.494 -0.0678 -0.0441 -0.1367
19046TIP3    H178629   4.057   5.097   6.445  1.0891 -0.5954 -2.1890
19046TIP3    H278630   4.185   5.174   6.469  1.3658 -1.2603 -1.5111
19047TIP3   OH278631   2.894   5.659   3.036  0.3329 -0.2177 -0.3060
19047TIP3    H178632   2.858   5.681   3.123 -0.1767 -1.4112 -0.2090
19047TIP3    H278633   2.940   5.577   3.049  0.9751  0.0325 -0.9932
19048TIP3   OH278634   0.201   0.629   3.611 -0.0932 -0.0957 -0.4189
19048TIP3    H178635   0.122   0.633   3.557 -0.7793 -1.2826  0.4947
19048TIP3    H278636   0.218   0.536   3.623  1.9851  0.1269 -1.3689
19049TIP3   OH278637   0.147   0.825   5.655 -0.0187  0.4681 -0.2519
19049TIP3    H178638   0.092   0.902   5.639  0.4845  0.7231 -0.7488
19049TIP3    H278639   0.113   0.759   5.595  0.6290  0.8272 -1.0219
19050TIP3   OH278640   6.659   3.927   0.349  0.1216  0.6851  0.1678
19050TIP3    H178641   6.586   3.933   0.288  0.3448  2.6519  0.0380
19050TIP3    H278642   6.633   3.861   0.413 -0.8372 -0.1676 -1.1010
19051TIP3   OH278643   6.749   1.559   2.225 -0.4848  0.8606  0.0243
19051TIP3    H178644   6.825   1.590   2.176  1.6415 -0.8806  2.1074
19051TIP3    H278645   6.737   1.469   2.197 -0.2355  0.3555  1.4824
19052TIP3   OH278646   4.232   5.644   0.988 -0.7149  0.0866  0.3983
19052TIP3    H178647   4.256   5.559   0.950 -1.0348  1.4363 -3.0206
19052TIP3    H278648   4.155   5.626   1.042 -1.5049 -1.6090 -1.2390
19053TIP3   OH278649   6.642   6.567  13.646  0.3799  0.1252  0.0905
19053TIP3    H178650   6.653   6.653  13.605 -3.5184  0.2030 -0.9791
19053TIP3    H278651   6.608   6.512  13.576  0.0284 -1.5144  1.5383
19054TIP3   OH278652   3.771   0.066  14.057 -0.0885  0.2837 -0.1217
19054TIP3    H178653   3.723   0.133  14.105  0.6130  1.1551 -0.6174
19054TIP3    H278654   3.772   0.096  13.966  2.4660  0.9595  0.0756
19055TIP3   OH278655   6.145   3.947  15.326  0.7008 -0.0468 -0.5769
19055TIP3    H178656   6.064   3.998  15.319  0.7372  0.2488  0.9280
19055TIP3    H278657   6.160   3.913  15.238 -0.9446  0.0841 -0.9259
19056TIP3   OH278658   1.495   1.587   3.043  0.3170 -0.3883  0.0704
19056TIP3    H178659   1.450   1.519   3.093 -3.6287  0.7392 -1.8124
19056TIP3    H278660   1.532   1.645   3.110 -1.4759 -1.0429  1.6647
19057TIP3   OH278661   4.101   6.572   5.969  0.5457  0.1778  0.2211
19057TIP3    H178662   4.093   6.654   6.017 -0.0516 -0.1760  0.7230
19057TIP3    H278663   4.015   6.530   5.977  1.4744 -1.4788  1.7425
19058TIP3   OH278664   2.956   4.802   0.209 -0.5092  0.4388 -0.0725
19058TIP3    H178665   2.925   4.822   0.121  0.2112 -0.9885 -0.6656
19058TIP3    H278666   2.972   4.888   0.249 -2.3391  1.1386 -0.7628
19059TIP3   OH278667   5.906   4.670  14.089  0.1031  0.4234  0.3545
19059TIP3    H178668   5.979   4.609  14.081 -0.8519 -0.8116  0.8590
19059TIP3    H278669   5.947   4.757  14.084  1.5731 -0.2437  0.4050
19060TIP3   OH278670   3.865   1.852  17.131  0.0025 -0.0699  0.8636
19060TIP3    H178671   3.773   1.877  17.121 -0.0971 -0.5972  0.4694
19060TIP3    H278672   3.867   1.758  17.112  0.5674 -0.1294  1.2044
19061TIP3   OH278673   1.677   1.007  11.008 -0.0158 -0.2673 -0.1948
19061TIP3    H178674   1.613   1.064  10.966  0.3961  0.5496  0.2883
19061TIP3    H278675   1.687   0.934  10.946 -1.5063 -0.4870 -0.2179
19062TIP3   OH278676   3.263   6.383   3.687  0.3653  0.2079 -0.0247
19062TIP3    H178677   3.282   6.466   3.644  1.1356  0.5337  0.9076
19062TIP3    H278678   3.313   6.318   3.637 -0.5801  0.2387 -1.0169
19063TIP3   OH278679   2.479   3.088   1.024  0.2319 -0.3194  0.3231
19063TIP3    H178680   2.530   3.050   0.953  0.3048  0.6005 -0.1257
19063TIP3    H278681   2.395   3.110   0.983  0.9473  1.9914  0.0194
19064TIP3   OH278682   4.090   2.616  12.109  0.1851 -0.2515  0.1218
19064TIP3    H178683   4.108   2.534  12.154 -0.4026 -1.4177 -1.7296
19064TIP3    H278684   4.174   2.643  12.072  0.0658 -0.7713 -0.5179
19065TIP3   OH278685   1.603   4.831   5.883 -0.2690  0.0030  0.4148
19065TIP3    H178686   1.609   4.742   5.917  1.3628  1.2061  3.3793
19065TIP3    H278687   1.511   4.855   5.895 -0.6821 -1.1922 -0.2421
19066TIP3   OH278688   6.331   6.255  16.711  0.2566 -0.3577  0.2858
19066TIP3    H178689   6.314   6.173  16.665 -0.4036 -0.1259  0.1055
19066TIP3    H278690   6.328   6.232  16.804  0.5955 -0.6383  0.2283
19067TIP3   OH278691   0.670   6.239  12.768  0.2098 -0.3528 -0.2183
19067TIP3    H178692   0.598   6.208  12.823  1.5555  0.3548  2.0248
19067TIP3    H278693   0.627   6.287  12.697 -1.5194  2.4599  2.5684
19068TIP3   OH278694   2.495   3.458  16.573 -0.5865 -0.2734  0.2549
19068TIP3    H178695   2.568   3.498  16.620 -1.1367 -0.4199  1.2301
19068TIP3    H278696   2.506   3.488  16.483 -0.5269  1.4290  0.8144
19069TIP3   OH278697   1.575   5.414   4.692  0.0080 -0.1022  0.3936
19069TIP3    H178698   1.510   5.415   4.763 -2.5044 -1.4104 -1.7916
19069TIP3    H278699   1.630   5.338   4.712 -0.5493 -0.3416  1.0727
19070TIP3   OH278700   5.379   6.549  13.005  0.4300 -0.4210  0.2744
19070TIP3    H178701   5.417   6.462  12.995 -0.6565 -0.8047 -0.6558
19070TIP3    H278702   5.341   6.569  12.919  0.7694  1.0284  0.4372
19071TIP3   OH278703   4.495   2.760  11.708  0.0871 -0.1672  0.2136
19071TIP3    H178704   4.513   2.790  11.797 -1.1294 -0.4769  0.5709
19071TIP3    H278705   4.552   2.684  11.696  0.7264  0.2657  0.4937
19072TIP3   OH278706   4.971   2.517   1.780  0.0699 -0.1111  0.0406
19072TIP3    H178707   5.035   2.548   1.844 -0.4771  0.3188  0.3807
19072TIP3    H278708   4.913   2.592   1.765 -2.0382 -1.3087  1.8483
19073TIP3   OH278709   6.720   2.097   2.043 -0.7020 -0.2591 -0.1302
19073TIP3    H178710   6.758   2.108   1.955 -1.6040  0.4531 -0.4348
19073TIP3    H278711   6.780   2.144   2.101 -1.6972  1.8076 -0.7499
19074TIP3   OH278712   2.351   1.863  13.932 -0.0093 -0.7163  0.4320
19074TIP3    H178713   2.288   1.858  14.004 -1.0297  2.0216 -0.1958
19074TIP3    H278714   2.368   1.772  13.908 -4.2271 -1.5404  0.2230
19075TIP3   OH278715   1.225   0.874   1.018  0.3785 -0.5593  0.5467
19075TIP3    H178716   1.164   0.850   1.088 -1.0939 -1.6229 -1.0860
19075TIP3    H278717   1.175   0.933   0.962  0.3908 -2.4569 -1.5219
19076TIP3   OH278718   5.972   6.547  11.638 -0.2310  0.5764  0.1432
19076TIP3    H178719   5.898   6.509  11.685  1.4752 -0.1936  2.2840
19076TIP3    H278720   6.007   6.474  11.586  0.9351  0.0565  1.6027
19077TIP3   OH278721   6.536   2.537  11.588 -0.2109  0.6343  0.3640
19077TIP3    H178722   6.530   2.506  11.679 -0.5214  1.4934  0.6446
19077TIP3    H278723   6.617   2.500  11.555 -0.8720 -0.9871  0.4887
19078TIP3   OH278724   4.541   6.046   1.076  0.1394  0.0242  0.2312
19078TIP3    H178725   4.527   6.137   1.050  0.0009  0.3167  1.2950
19078TIP3    H278726   4.487   6.035   1.154  1.5786 -0.4073  1.2039
19079TIP3   OH278727   0.155   6.114   3.805 -0.6135  0.5334  0.0819
19079TIP3    H178728   0.095   6.189   3.807 -2.9655 -1.1987 -1.6139
19079TIP3    H278729   0.200   6.121   3.721 -0.3190  0.4217  0.2297
19080TIP3   OH278730   3.638   1.978   6.023  0.0889 -0.3513 -0.3198
19080TIP3    H178731   3.614   1.977   6.116  1.2716  4.5481  0.1820
19080TIP3    H278732   3.557   1.956   5.977 -1.8721  2.2349  1.7546
19081TIP3   OH278733   6.403   6.279   5.890  0.0568 -0.5812 -1.2050
19081TIP3    H178734   6.481   6.275   5.945 -0.0092  0.0512 -1.0548
19081TIP3    H278735   6.394   6.191   5.854  1.2778 -0.4538 -1.8426
19082TIP3   OH278736   1.982   4.944   4.548  0.4452  0.6355 -0.2085
19082TIP3    H178737   2.022   5.023   4.585 -0.2304  0.7012  0.4044
19082TIP3    H278738   1.890   4.969   4.533  0.4682  0.2822 -0.9618
19083TIP3   OH278739   2.134   3.132   2.658 -0.4839 -0.3584  0.1711
19083TIP3    H178740   2.085   3.212   2.678 -0.7710 -0.3820 -0.4447
19083TIP3    H278741   2.068   3.063   2.662  0.0077 -0.7551  2.0380
19084TIP3   OH278742   0.673   0.017  12.713  0.3851 -0.0538 -0.0223
19084TIP3    H178743   0.710   0.071  12.782 -0.1068 -0.3817  0.5002
19084TIP3    H278744   0.580   0.042  12.710  0.2459 -0.5703 -0.0574
19085TIP3   OH278745   1.590   5.789  16.116  0.1041  0.5081  0.1774
19085TIP3    H178746   1.678   5.777  16.079  1.1649  1.0688  2.3949
19085TIP3    H278747   1.590   5.880  16.147 -0.6189 -0.0564  1.8455
19086TIP3   OH278748   4.372   0.800  11.239 -0.2070  0.0836  0.2088
19086TIP3    H178749   4.293   0.855  11.240 -0.0900  0.2508  0.6445
19086TIP3    H278750   4.430   0.841  11.303  0.4472  0.2688 -0.4996
19087TIP3   OH278751   2.387   2.789  14.512  1.0234 -0.0573 -0.1921
19087TIP3    H178752   2.339   2.768  14.432  0.8113 -1.9990  0.4264
19087TIP3    H278753   2.479   2.794  14.484  0.7896  0.8489 -0.8362
19088TIP3   OH278754   4.186   2.895   5.525 -0.0779 -0.0992  0.3844
19088TIP3    H178755   4.211   2.951   5.451  1.0923 -0.1849  0.7171
19088TIP3    H278756   4.171   2.809   5.485  0.1194 -0.0420  0.1857
19089TIP3   OH278757   2.252   3.897  15.701 -0.4064 -0.2494 -0.0261
19089TIP3    H178758   2.213   3.969  15.652 -1.5730  0.9994  2.6277
19089TIP3    H278759   2.242   3.922  15.793  1.1868 -2.7658  0.8996
19090TIP3   OH278760   5.206   1.850   5.835  0.0537  0.1873 -0.5817
19090TIP3    H178761   5.171   1.878   5.751 -1.2458  1.2088  0.2878
19090TIP3    H278762   5.293   1.889   5.839  0.4453 -0.5378 -1.7953
19091TIP3   OH278763   0.516   4.452  16.586 -0.2731  0.2041  0.0911
19091TIP3    H178764   0.445   4.506  16.622 -1.1039 -0.9953  0.2846
19091TIP3    H278765   0.595   4.484  16.629 -1.0933 -0.4424  2.1730
19092TIP3   OH278766   1.622   1.300  16.831  0.0428  0.2481 -0.1860
19092TIP3    H178767   1.699   1.271  16.879 -0.7850  1.6061  2.0896
19092TIP3    H278768   1.553   1.239  16.857  0.4262 -1.2902 -2.6269
19093TIP3   OH278769   6.490   2.762  15.018  0.4699 -0.1433 -0.1235
19093TIP3    H178770   6.431   2.831  14.989 -1.7179 -1.6574  0.6098
19093TIP3    H278771   6.490   2.769  15.114 -0.2525 -1.5089 -0.0041
19094TIP3   OH278772   6.400   3.341  12.076  0.1553 -0.3859  0.0450
19094TIP3    H178773   6.468   3.278  12.052 -0.1051 -0.5275 -0.3289
19094TIP3    H278774   6.338   3.290  12.128  0.1600 -0.3398  0.0962
19095TIP3   OH278775   0.805   1.947   6.480 -0.4425  0.1786  0.2814
19095TIP3    H178776   0.733   1.954   6.542 -0.1074 -2.5981  1.0619
19095TIP3    H278777   0.820   2.037   6.449 -2.6774  1.1196  1.8352
19096TIP3   OH278778   0.392   1.458   1.933 -0.1025 -0.3675 -0.6592
19096TIP3    H178779   0.349   1.488   2.013 -0.7026 -0.8551 -0.7968
19096TIP3    H278780   0.372   1.526   1.868 -0.2215 -0.3323 -0.5859
19097TIP3   OH278781   1.328   2.310   4.981 -0.4829 -0.5627  0.0729
19097TIP3    H178782   1.330   2.359   5.063 -2.1270 -1.0363  0.4157
19097TIP3    H278783   1.304   2.221   5.006  0.4992 -1.0768 -0.7631
19098TIP3   OH278784   3.926   0.051   2.337  0.0030 -0.6933  0.1670
19098TIP3    H178785   3.981   0.114   2.291  0.1247 -0.5241  0.5444
19098TIP3    H278786   3.896   0.097   2.415 -1.7973 -0.2969 -0.7210
19099TIP3   OH278787   5.202   0.344   1.601  0.4726  0.3933 -0.2631
19099TIP3    H178788   5.124   0.302   1.637  0.0414 -0.2502 -1.8885
19099TIP3    H278789   5.167   0.412   1.543  1.1228  0.1958 -0.8916
19100TIP3   OH278790   4.695   3.736  16.016  0.4246 -0.0578  0.5272
19100TIP3    H178791   4.751   3.659  16.022  1.6070  0.8743  1.4218
19100TIP3    H278792   4.622   3.707  15.960  2.1442 -1.0503 -1.2802
19101TIP3   OH278793   4.216   3.572  15.630 -0.4276  1.0765  0.4448
19101TIP3    H178794   4.166   3.566  15.549 -1.0459  0.2674  0.8694
19101TIP3    H278795   4.291   3.627  15.609 -0.1473  0.1916 -0.8905
19102TIP3   OH278796   5.934   0.965   4.005 -0.9402 -0.0327  0.4428
19102TIP3    H178797   5.958   0.875   3.983 -0.7588 -0.6456  2.9945
19102TIP3    H278798   5.841   0.970   3.982 -0.7633 -0.6263 -0.4381
19103TIP3   OH278799   6.008   5.034  15.052 -0.6890  0.7543 -0.5916
19103TIP3    H178800   5.937   5.057  14.991 -1.5276 -0.3848 -0.0647
19103TIP3    H278801   5.968   4.972  15.113  0.8397 -0.1265 -0.4534
19104TIP3   OH278802   3.291   2.754   6.670 -0.3993 -0.1510  0.2801
19104TIP3    H178803   3.281   2.680   6.730 -1.7216  1.0374  1.5597
19104TIP3    H278804   3.281   2.831   6.725 -3.0603  0.9766 -1.6818
19105TIP3   OH278805   5.742   0.589  11.387 -0.5161 -0.3851 -0.0678
19105TIP3    H178806   5.787   0.600  11.303 -1.2026 -0.6651 -0.4716
19105TIP3    H278807   5.783   0.654  11.444 -1.4047  1.1854 -1.1714
19106TIP3   OH278808   4.043   2.290   0.645 -0.2055 -0.1218 -0.1417
19106TIP3    H178809   4.020   2.299   0.737  1.3737  0.8159  0.1893
19106TIP3    H278810   3.973   2.335   0.598 -1.6032 -1.5780  0.5231
19107TIP3   OH278811   5.473   6.048  15.195  0.1633 -0.4683 -0.2010
19107TIP3    H178812   5.443   6.087  15.113  0.6807  0.5958  0.1016
19107TIP3    H278813   5.399   6.058  15.254  0.2819  0.0574 -0.1338
19108TIP3   OH278814   0.236   1.162   2.166 -0.2166  0.7908  0.0818
19108TIP3    H178815   0.256   1.113   2.086 -1.7536  0.6845 -0.2489
19108TIP3    H278816   0.321   1.191   2.198  0.4719  0.2806 -1.2448
19109TIP3   OH278817   3.411   3.439   5.945  0.5148 -0.6429 -0.5792
19109TIP3    H178818   3.495   3.395   5.932  1.9928  0.5103  4.2665
19109TIP3    H278819   3.426   3.530   5.918  0.8874 -0.3879  0.4867
19110TIP3   OH278820   0.286   4.843  14.238 -0.1228 -0.6325  0.0762
19110TIP3    H178821   0.276   4.769  14.177  1.2125  0.0585 -1.0049
19110TIP3    H278822   0.378   4.841  14.263  0.4530  1.9561 -1.6694
19111TIP3   OH278823   0.964   6.192  12.434  0.7206  0.1968 -0.1764
19111TIP3    H178824   0.923   6.130  12.495 -0.0066  0.5841 -0.2658
19111TIP3    H278825   1.011   6.254  12.490  0.6032  0.1607 -0.0394
19112TIP3   OH278826   4.093   2.253  13.761 -0.4452  0.0867  0.7279
19112TIP3    H178827   4.162   2.191  13.738 -1.4946 -2.4854  3.9573
19112TIP3    H278828   4.012   2.207  13.740 -1.2206  0.9946  1.6857
19113TIP3   OH278829   3.069   3.399   4.766  0.0289  0.3188  0.0939
19113TIP3    H178830   3.088   3.381   4.859 -1.4949  0.8181  0.5202
19113TIP3    H278831   3.085   3.493   4.756 -1.4529  0.6028  0.2831
19114TIP3   OH278832   1.838   0.769   0.247  0.7025  0.4663  0.4209
19114TIP3    H178833   1.873   0.692   0.291 -0.6029  0.0334  0.6980
19114TIP3    H278834   1.833   0.836   0.316 -0.0365  0.2061  0.6159
19115TIP3   OH278835   3.589   3.077   5.713 -0.3632  0.1081 -0.1359
19115TIP3    H178836   3.613   3.122   5.632  0.9751  0.2527  0.3359
19115TIP3    H278837   3.550   2.995   5.684  0.2509  0.0893 -0.9189
19116TIP3   OH278838   3.625   5.419  13.383  0.2883 -0.3872 -0.2047
19116TIP3    H178839   3.711   5.459  13.396 -0.2172  0.8957 -0.6448
19116TIP3    H278840   3.584   5.473  13.315 -1.6486  0.3375  1.4606
19117TIP3   OH278841   6.029   1.956  16.119  0.5613 -0.9642 -0.4576
19117TIP3    H178842   5.983   1.941  16.036  0.8954 -1.7058 -0.5119
19117TIP3    H278843   6.120   1.932  16.101  0.9753  0.4902 -0.3415
19118TIP3   OH278844   4.754   2.067  14.122 -0.2165 -0.1671  0.4324
19118TIP3    H178845   4.820   2.103  14.063 -0.3793  2.5033  1.8356
19118TIP3    H278846   4.766   2.113  14.205 -3.2571 -0.2281  0.9858
19119TIP3   OH278847   3.458   4.922   1.107  0.4051 -0.1768  0.3237
19119TIP3    H178848   3.540   4.925   1.058  0.8017 -0.5019  0.9564
19119TIP3    H278849   3.405   4.993   1.070  2.1045  1.9941  1.8733
19120TIP3   OH278850   2.116   0.780  15.632  0.2517 -0.0351  0.2024
19120TIP3    H178851   2.202   0.817  15.654  0.7155 -1.0956  0.1801
19120TIP3    H278852   2.108   0.702  15.687 -0.1644 -0.6445 -0.7078
19121TIP3   OH278853   2.121   0.668  13.819 -0.7677 -0.2065 -0.3076
19121TIP3    H178854   2.064   0.725  13.871 -0.5585 -0.3787  0.1145
19121TIP3    H278855   2.083   0.669  13.731  0.5004  2.3745 -0.8816
19122TIP3   OH278856   6.611   1.713  17.160  0.7318 -0.5933 -0.2314
19122TIP3    H178857   6.604   1.686  17.068  1.7799 -1.1567 -0.1502
19122TIP3    H278858   6.659   1.795  17.157 -0.4269  0.0887 -0.2939
19123TIP3   OH278859   5.370   3.689  17.176 -0.0529 -0.3245  0.0470
19123TIP3    H178860   5.438   3.731  17.124 -0.7674  1.0007  0.1516
19123TIP3    H278861   5.289   3.706  17.128 -0.1652 -3.1708 -0.8566
19124TIP3   OH278862   0.718   6.738  14.676  0.0777 -0.4784  0.2648
19124TIP3    H178863   0.711   6.652  14.719  0.4908 -0.1371  1.0177
19124TIP3    H278864   0.670   6.727  14.594 -0.6723 -1.1577  0.7798
19125TIP3   OH278865   4.867   1.691  17.110 -0.1511 -0.0718  0.1135
19125TIP3    H178866   4.786   1.661  17.152  0.0754  0.5375  1.0043
19125TIP3    H278867   4.838   1.738  17.032 -0.6598  0.2118  0.4704
19126TIP3   OH278868   2.618   3.532   2.328 -0.4773  0.1119  0.3836
19126TIP3    H178869   2.623   3.526   2.424  0.0703 -1.6768  0.2628
19126TIP3    H278870   2.677   3.604   2.306  1.0155 -0.8166  1.2592
19127TIP3   OH278871   2.566   4.586   3.786 -0.6852 -0.0582 -0.0941
19127TIP3    H178872   2.522   4.656   3.737 -0.1651  0.8815  0.7465
19127TIP3    H278873   2.652   4.623   3.808 -1.3282  0.0235  2.5226
19128TIP3   OH278874   3.878   2.969  16.798  0.8770  0.0370 -0.6100
19128TIP3    H178875   3.852   2.974  16.890  1.2617  0.4875 -0.5233
19128TIP3    H278876   3.796   2.971  16.750  0.7262  1.4079 -0.3343
19129TIP3   OH278877   4.295   0.224   2.689 -0.3400  0.3895 -0.0955
19129TIP3    H178878   4.363   0.246   2.753 -0.6535 -0.6777  0.6021
19129TIP3    H278879   4.331   0.253   2.605  2.0822 -2.4698 -0.1061
19130TIP3   OH278880   1.441   3.124  14.376 -0.3993  0.6571 -0.7334
19130TIP3    H178881   1.397   3.069  14.441 -0.1079  0.3138 -0.8257
19130TIP3    H278882   1.487   3.191  14.428 -0.0426  0.2931 -0.5732
19131TIP3   OH278883   0.693   1.038  12.916 -0.4020 -0.1662 -0.0000
19131TIP3    H178884   0.690   0.977  12.842  0.3788 -0.6079  0.3279
19131TIP3    H278885   0.777   1.021  12.958  0.3386  1.9152 -0.5538
19132TIP3   OH278886   2.529   1.374   0.154  0.4571  0.4317 -0.0094
19132TIP3    H178887   2.550   1.333   0.071  2.4523  1.5446 -0.1041
19132TIP3    H278888   2.501   1.302   0.211  3.4240 -1.0202 -0.2973
19133TIP3   OH278889   5.615   3.113   1.620 -0.2939 -0.3795 -0.5628
19133TIP3    H178890   5.703   3.089   1.590 -0.0242 -0.2350  0.0886
19133TIP3    H278891   5.562   3.113   1.541  0.5634  0.7853 -1.1628
19134TIP3   OH278892   2.781   0.928  10.790  0.2438  0.1314  0.1371
19134TIP3    H178893   2.788   0.890  10.877  1.1175 -1.0933 -0.4641
19134TIP3    H278894   2.733   0.863  10.739  0.7400  0.3316 -0.5922
19135TIP3   OH278895   3.943   0.013  12.421 -0.3246 -0.1191 -0.3039
19135TIP3    H178896   3.848   0.002  12.425 -0.0733 -1.7905  2.4149
19135TIP3    H278897   3.967   0.040  12.509  1.9554 -1.9910 -0.3118
19136TIP3   OH278898   5.698   1.790   6.124 -0.0160 -0.4491 -0.7962
19136TIP3    H178899   5.730   1.848   6.193 -0.8262  0.5099 -1.2302
19136TIP3    H278900   5.681   1.707   6.170 -0.1272  0.0431  0.0719
19137TIP3   OH278901   6.000   2.665   1.663 -0.1510  0.2090  0.4946
19137TIP3    H178902   6.005   2.689   1.571  1.9591 -1.7226  0.0438
19137TIP3    H278903   5.915   2.622   1.673  0.0541 -0.5168 -0.8282
19138TIP3   OH278904   5.788   3.536  10.954 -0.5054 -0.0947 -0.0909
19138TIP3    H178905   5.845   3.461  10.935  0.8206  0.9891 -0.4353
19138TIP3    H278906   5.739   3.550  10.873  0.3676  0.3814 -0.5391
19139TIP3   OH278907   2.366   1.961  16.497 -0.0042  0.6381  0.2392
19139TIP3    H178908   2.460   1.947  16.507  0.0148 -1.2735 -2.0692
19139TIP3    H278909   2.357   2.008  16.414 -1.1496 -0.4216 -0.2567
19140TIP3   OH278910   2.842   4.070   5.478  0.5133 -0.2372  0.1163
19140TIP3    H178911   2.911   4.006   5.498  0.2588  0.0703  2.0557
19140TIP3    H278912   2.765   4.037   5.524 -0.7055 -0.6676 -2.1791
19141TIP3   OH278913   2.651   3.101  15.300  0.2637 -0.2426  0.4743
19141TIP3    H178914   2.671   3.168  15.364  0.9374 -0.4328  0.4661
19141TIP3    H278915   2.711   3.118  15.227 -1.2053  0.6113 -0.5675
19142TIP3   OH278916   1.783   6.351   5.441  0.8232  0.4918  0.1005
19142TIP3    H178917   1.733   6.425   5.476 -0.0604 -0.1407  0.1815
19142TIP3    H278918   1.799   6.295   5.517  1.2478  0.4489 -0.0155
19143TIP3   OH278919   0.736   2.470  11.753  0.1321  0.2190 -0.0812
19143TIP3    H178920   0.705   2.426  11.674 -1.0188 -0.1323  0.5548
19143TIP3    H278921   0.671   2.448  11.820  0.6920  1.1269  0.7755
19144TIP3   OH278922   1.670   5.616   0.382  0.3679 -0.0684 -0.0158
19144TIP3    H178923   1.676   5.705   0.347 -1.0035 -0.8125 -2.2297
19144TIP3    H278924   1.591   5.580   0.343 -0.2681 -1.5759  2.5230
19145TIP3   OH278925   1.831   2.462   2.899 -0.4250  0.5512 -0.4062
19145TIP3    H178926   1.879   2.484   2.820  2.4418 -1.9582  0.5456
19145TIP3    H278927   1.874   2.513   2.968 -0.3766 -0.2389  0.1507
19146TIP3   OH278928   6.616   4.409  11.219  0.9183 -0.4579  0.1968
19146TIP3    H178929   6.567   4.439  11.142  2.0531  0.6058 -0.1382
19146TIP3    H278930   6.568   4.332  11.249 -0.4099 -0.0113 -0.6791
19147TIP3   OH278931   3.395   3.364   3.424  0.8771 -0.2554 -0.2341
19147TIP3    H178932   3.442   3.342   3.344  0.6499 -0.6964 -0.2494
19147TIP3    H278933   3.311   3.318   3.416  0.2332  0.9477 -0.4490
19148TIP3   OH278934   5.801   0.074   3.103 -0.3119  0.2630  0.1139
19148TIP3    H178935   5.778   0.066   3.195  1.4612 -2.9204  0.3303
19148TIP3    H278936   5.887   0.117   3.103  0.1965 -0.7567 -0.0066
19149TIP3   OH278937   2.927   6.619  14.890  0.1170 -0.1945 -0.2356
19149TIP3    H178938   2.872   6.615  14.812  0.0672 -0.1111 -0.2043
19149TIP3    H278939   3.013   6.648  14.858  0.9145 -2.9566 -0.6844
19150TIP3   OH278940   4.300   0.893   2.172  0.1060  0.2541 -0.0110
19150TIP3    H178941   4.284   0.982   2.141 -4.2138 -0.2798  0.3691
19150TIP3    H278942   4.268   0.893   2.263 -0.7525 -1.8666 -0.2840
19151TIP3   OH278943   2.066   3.599   0.797  0.2187  0.3501 -0.0136
19151TIP3    H178944   2.067   3.633   0.708  1.7360 -0.4086 -0.3026
19151TIP3    H278945   2.120   3.661   0.847  0.3116  0.1586  0.1282
19152TIP3   OH278946   6.375   1.299  12.335 -0.6158  0.5826 -0.1540
19152TIP3    H178947   6.340   1.224  12.384 -1.7885  1.1209 -0.1565
19152TIP3    H278948   6.341   1.286  12.246  1.1951 -0.1910 -0.7727
19153TIP3   OH278949   4.232   2.908   6.000  0.3930 -0.0778 -0.0509
19153TIP3    H178950   4.213   2.814   6.007  0.9865 -0.3958 -2.3274
19153TIP3    H278951   4.323   2.916   6.030  1.0192 -0.5591 -1.7602
19154TIP3   OH278952   3.131   6.515   5.121 -0.3854 -0.0987 -0.5185
19154TIP3    H178953   3.150   6.519   5.214 -0.6701 -1.0288 -0.4186
19154TIP3    H278954   3.037   6.500   5.116 -0.4449  0.3881 -0.9689
19155TIP3   OH278955   2.683   4.793   6.076  0.4272 -0.5515 -0.2374
19155TIP3    H178956   2.590   4.808   6.059  0.2877 -1.4004 -0.2845
19155TIP3    H278957   2.700   4.835   6.160 -0.3543 -1.6498  0.4900
19156TIP3   OH278958   6.188   0.743  15.295  0.2924  0.0912  0.0275
19156TIP3    H178959   6.125   0.776  15.232  0.2586 -1.2444 -0.6407
19156TIP3    H278960   6.145   0.669  15.337  1.1297 -0.3565  0.1066
19157TIP3   OH278961   0.614   6.552  13.274  0.0050 -0.4590  0.0093
19157TIP3    H178962   0.694   6.508  13.244 -0.2612 -1.3355  0.5673
19157TIP3    H278963   0.624   6.642  13.245  1.4051 -0.4580  0.4569
19158TIP3   OH278964   4.784   0.669   3.900 -0.2262 -0.2065  0.0343
19158TIP3    H178965   4.692   0.694   3.903 -0.5520 -1.3979  0.0001
19158TIP3    H278966   4.831   0.751   3.917 -1.3256 -0.0335  2.4034
19159TIP3   OH278967   4.867   6.278   1.628  0.1039 -0.1828  0.0945
19159TIP3    H178968   4.947   6.228   1.617 -0.2815 -1.0490  1.1262
19159TIP3    H278969   4.816   6.260   1.549  0.8595  0.2635 -0.4960
19160TIP3   OH278970   1.607   3.081   1.226  0.0931  0.6124  0.4427
19160TIP3    H178971   1.580   3.130   1.304 -0.4656  0.1494  0.5403
19160TIP3    H278972   1.529   3.033   1.199  0.1682  1.0915 -0.6499
19161TIP3   OH278973   3.281   2.896  16.984  0.5597 -0.3663  0.1074
19161TIP3    H178974   3.259   2.939  16.901 -0.5376  0.0264  0.6040
19161TIP3    H278975   3.344   2.955  17.025 -0.4078  0.4104  0.4685
19162TIP3   OH278976   5.263   5.718   5.600  0.4206  0.2297 -0.7555
19162TIP3    H178977   5.246   5.665   5.522 -0.5904 -1.1240  0.3418
19162TIP3    H278978   5.181   5.763   5.617  0.5781  0.3709 -0.3603
19163TIP3   OH278979   0.687   3.503   2.069 -0.0878  0.3814  0.2410
19163TIP3    H178980   0.746   3.433   2.095  2.2082  0.7762 -3.4727
19163TIP3    H278981   0.723   3.581   2.111 -0.1979  0.0151  1.0236
19164TIP3   OH278982   0.941   4.149   0.277 -0.6394  0.1122  0.2134
19164TIP3    H178983   0.968   4.133   0.186  0.1206 -0.9528  0.6117
19164TIP3    H278984   0.890   4.072   0.301 -1.2219  0.5957  0.5597
19165TIP3   OH278985   4.488   2.112  12.554  0.2328  0.0353  0.2744
19165TIP3    H178986   4.569   2.087  12.510 -0.1857 -0.3663 -0.2660
19165TIP3    H278987   4.422   2.053  12.518 -0.5116  1.0742 -0.0783
19166TIP3   OH278988   3.682   5.222   4.127  0.3158  0.5744  0.1879
19166TIP3    H178989   3.639   5.308   4.132 -1.0914 -0.1047 -0.2207
19166TIP3    H278990   3.721   5.221   4.039  0.9061  1.0497  0.4349
19167TIP3   OH278991   4.835   1.472   5.463  0.0771 -0.0933  0.1424
19167TIP3    H178992   4.845   1.384   5.426  1.1668  1.3042 -2.9834
19167TIP3    H278993   4.751   1.503   5.430  0.8588  1.0009 -0.8592
19168TIP3   OH278994   3.803   1.202  11.744  0.0010  0.2392 -0.3313
19168TIP3    H178995   3.786   1.175  11.835  0.4917 -1.1177 -0.6286
19168TIP3    H278996   3.720   1.187  11.699  0.3829 -1.2210 -0.5854
19169TIP3   OH278997   2.275   3.795  11.948 -0.3451 -0.2057  0.2188
19169TIP3    H178998   2.203   3.757  11.898 -0.6077 -2.3410  2.1498
19169TIP3    H278999   2.313   3.861  11.889 -0.2109 -3.0697 -3.0610
19170TIP3   OH279000   6.597   4.621  12.228  0.1468  0.5601  0.2733
19170TIP3    H179001   6.605   4.692  12.292 -0.3435  0.2097  0.7253
19170TIP3    H279002   6.535   4.653  12.163 -1.1268  0.0063  1.2098
19171TIP3   OH279003   2.064   4.200   0.179 -0.3515 -0.0674 -0.0502
19171TIP3    H179004   2.042   4.248   0.099 -2.2952 -0.8935 -0.0443
19171TIP3    H279005   1.997   4.228   0.242 -0.2276 -1.1575  0.5804
19172TIP3   OH279006   1.022   3.167  16.350 -0.1430  0.4755 -0.2205
19172TIP3    H179007   1.090   3.213  16.399 -0.8350  2.0909 -0.7701
19172TIP3    H279008   1.028   3.201  16.261 -0.1395 -1.0741 -0.8298
19173TIP3   OH279009   1.309   4.832   6.499 -0.4534 -0.8036 -0.4974
19173TIP3    H179010   1.244   4.897   6.470  1.5555  1.8504  0.7804
19173TIP3    H279011   1.264   4.784   6.568 -1.4091  0.3794 -0.2688
19174TIP3   OH279012   5.544   0.424   2.011  0.0876 -0.3186  0.2288
19174TIP3    H179013   5.492   0.481   2.067 -0.0055  0.0229 -0.1981
19174TIP3    H279014   5.559   0.476   1.932 -1.2494 -1.4450 -0.7649
19175TIP3   OH279015   4.549   3.989  17.157 -0.2788 -0.6063 -0.4680
19175TIP3    H179016   4.501   4.055  17.207 -0.5614 -1.8914  0.9794
19175TIP3    H279017   4.502   3.982  17.075 -0.0075  1.2921 -0.8126
19176TIP3   OH279018   1.427   1.479   2.771 -0.1528  0.7678  0.1279
19176TIP3    H179019   1.467   1.392   2.777  0.5468  1.0632 -0.1191
19176TIP3    H279020   1.481   1.533   2.829 -0.3901  1.1087  0.0295
19177TIP3   OH279021   0.301   1.433  12.498 -0.1805  0.0382  0.0339
19177TIP3    H179022   0.249   1.358  12.528 -1.8600  0.1639 -2.4051
19177TIP3    H279023   0.371   1.394  12.445 -0.8469  0.1719 -0.9455
19178TIP3   OH279024   1.744   4.928  13.324  0.5712 -0.3530 -0.0510
19178TIP3    H179025   1.800   4.935  13.401  0.0636 -1.9483  0.4791
19178TIP3    H279026   1.665   4.977  13.348 -0.2017 -2.0964  1.0335
19179TIP3   OH279027   4.805   0.632  14.763  0.0954  0.0663 -0.3082
19179TIP3    H179028   4.861   0.680  14.702 -1.0326 -0.0706 -1.4711
19179TIP3    H279029   4.818   0.540  14.740  0.2528 -0.0341  0.1748
19180TIP3   OH279030   4.636   0.659  11.665 -0.4491  0.0458 -0.8309
19180TIP3    H179031   4.578   0.625  11.733  1.7435 -0.0247  1.0712
19180TIP3    H279032   4.681   0.582  11.630  1.1067  0.4393  0.2372
19181TIP3   OH279033   3.709   6.745   1.692  0.4061  0.1049 -0.5922
19181TIP3    H179034   3.720   6.727   1.599 -0.5099 -2.4089 -0.2303
19181TIP3    H279035   3.659   6.671   1.726 -0.6202  1.7428  1.6063
19182TIP3   OH279036   3.907   0.721   4.954 -0.2559  0.4371  0.5022
19182TIP3    H179037   3.918   0.644   5.010 -1.6335 -0.0314  0.1474
19182TIP3    H279038   3.833   0.699   4.897  1.3590  0.7536 -1.7789
19183TIP3   OH279039   3.876   5.878  14.728  0.2250 -0.2117  0.2850
19183TIP3    H179040   3.953   5.832  14.759 -0.7881 -0.4329  2.5543
19183TIP3    H279041   3.810   5.865  14.796 -2.2433 -1.0754 -2.1251
19184TIP3   OH279042   0.475   6.242  12.513  0.3286  0.0662 -0.1981
19184TIP3    H179043   0.434   6.200  12.437  0.4172 -0.6072  0.1242
19184TIP3    H279044   0.405   6.245  12.579  0.3012  0.4957 -0.2427
19185TIP3   OH279045   5.331   6.606  15.569 -0.9837  0.4880 -0.0406
19185TIP3    H179046   5.355   6.553  15.494 -1.5713 -0.2911  0.3267
19185TIP3    H279047   5.317   6.694  15.533  1.4676  0.7724 -0.4307
19186TIP3   OH279048   3.438   1.327  12.624  0.6993 -0.7315 -0.0213
19186TIP3    H179049   3.527   1.319  12.589  0.0429 -1.0103 -1.6832
19186TIP3    H279050   3.384   1.276  12.563 -0.5130 -1.1194  1.3462
19187TIP3   OH279051   2.446   3.323   4.564  0.5700 -0.3079  0.3102
19187TIP3    H179052   2.451   3.267   4.642  1.0828 -1.3614 -0.4650
19187TIP3    H279053   2.391   3.397   4.590 -3.0572 -2.9076  0.2851
19188TIP3   OH279054   3.454   3.068  15.078 -0.1694 -0.2977 -0.1794
19188TIP3    H179055   3.532   3.051  15.025 -0.2954 -0.0643 -0.4409
19188TIP3    H279056   3.405   2.986  15.076  0.4952 -0.7287  0.7068
19189TIP3   OH279057   6.632   5.125  16.887 -0.4440  0.3453  0.0195
19189TIP3    H179058   6.666   5.127  16.797  0.4914  0.7335  0.3779
19189TIP3    H279059   6.558   5.186  16.885 -2.0478 -1.5729 -1.1230
19190TIP3   OH279060   0.922   1.938   4.061  0.6531  0.0277  0.0360
19190TIP3    H179061   0.983   1.867   4.083 -0.2636 -0.7662  0.0457
19190TIP3    H279062   0.848   1.926   4.120  0.3920  0.8728 -0.1043
19191TIP3   OH279063   1.147   2.956   3.482 -0.2469 -0.0944 -0.2808
19191TIP3    H179064   1.241   2.967   3.471 -0.3385 -1.1845 -2.4150
19191TIP3    H279065   1.108   3.023   3.426 -0.7323 -0.5899 -0.5439
19192TIP3   OH279066   1.601   5.123  11.047  0.1785  0.7594 -0.6122
19192TIP3    H179067   1.541   5.118  10.973 -0.8363 -0.1363  0.2693
19192TIP3    H279068   1.685   5.094  11.012  0.0912  1.9009 -1.8153
19193TIP3   OH279069   2.491   0.331   4.437  0.1318 -0.2418  0.1424
19193TIP3    H179070   2.509   0.287   4.520 -0.4074 -0.9597 -0.1201
19193TIP3    H279071   2.405   0.370   4.448  1.1696  1.9267  0.8582
19194TIP3   OH279072   5.724   6.709  14.811  0.6682 -0.2051 -0.0531
19194TIP3    H179073   5.748   6.773  14.744  1.8630  2.0111  2.4086
19194TIP3    H279074   5.779   6.632  14.791  2.0469  0.9414 -0.7837
19195TIP3   OH279075   5.263   1.454  16.784  0.2039  0.1414 -0.4894
19195TIP3    H179076   5.333   1.406  16.739  1.4107  0.3894  1.0683
19195TIP3    H279077   5.265   1.542  16.746 -0.4029 -0.3380 -1.6440
19196TIP3   OH279078   0.215   4.954   1.958 -0.4255 -0.8996  0.2014
19196TIP3    H179079   0.133   4.970   2.005  0.3903  0.0733  1.3190
19196TIP3    H279080   0.270   5.029   1.979  0.0354 -0.4972 -2.2123
19197TIP3   OH279081   2.578   6.110  11.238  0.4708 -0.5095  0.0968
19197TIP3    H179082   2.667   6.077  11.226 -0.2749 -2.7418  0.4656
19197TIP3    H279083   2.548   6.132  11.150  0.3443 -2.5886 -0.4078
19198TIP3   OH279084   5.633   5.452   0.745 -0.0445 -0.6583 -0.2001
19198TIP3    H179085   5.566   5.504   0.789 -0.5187  1.0140 -2.7868
19198TIP3    H279086   5.587   5.373   0.716 -0.5165 -0.2876 -0.4738
19199TIP3   OH279087   0.629   6.736   1.059 -0.1645  0.1612 -0.7604
19199TIP3    H179088   0.697   6.710   0.996  0.3378 -1.6071  0.4807
19199TIP3    H279089   0.676   6.779   1.130 -0.0705 -2.5363  0.9046
19200TIP3   OH279090   1.944   0.192  13.127  0.0748  0.2681  0.9209
19200TIP3    H179091   1.979   0.139  13.055  2.1597  1.2747  1.1364
19200TIP3    H279092   1.882   0.134  13.171 -0.9818 -0.4783 -1.4731
19201TIP3   OH279093   5.240   3.089   1.749  0.2072  0.1638  0.3667
19201TIP3    H179094   5.276   3.137   1.674  1.6426 -2.0279 -0.4373
19201TIP3    H279095   5.218   3.003   1.712  1.0866 -1.0008  2.4735
19202TIP3   OH279096   4.408   1.562   0.379  0.0599  0.4624  0.2256
19202TIP3    H179097   4.465   1.487   0.364 -1.5450 -0.4985 -1.1190
19202TIP3    H279098   4.388   1.559   0.473  0.2995 -0.5685  0.2491
19203TIP3   OH279099   1.273   4.245  10.982 -0.8021  0.2350  0.6847
19203TIP3    H179100   1.248   4.271  10.893 -0.1057  1.2156  0.7671
19203TIP3    H279101   1.207   4.180  11.007  0.1512 -1.5739 -1.3007
19204TIP3   OH279102   1.314   2.237  16.374  0.0792  0.4521  0.0330
19204TIP3    H179103   1.286   2.233  16.282  2.4799  0.5839 -0.7360
19204TIP3    H279104   1.373   2.312  16.378  0.9666 -0.2922  1.4135
19205TIP3   OH279105   3.087   6.799   4.942  0.1611  0.4836 -0.0215
19205TIP3    H179106   3.028   6.810   5.017  0.7646 -0.7468  0.6538
19205TIP3    H279107   3.155   6.740   4.974  1.5416  1.5471 -0.9214
19206TIP3   OH279108   0.690   3.533   4.446  0.1121  0.1152  0.4014
19206TIP3    H179109   0.757   3.475   4.410  0.3455  0.7020 -0.1244
19206TIP3    H279110   0.643   3.479   4.510 -1.3477 -1.4279 -1.9176
19207TIP3   OH279111   4.204   6.419   2.942 -0.1354 -0.1180 -0.2044
19207TIP3    H179112   4.202   6.491   3.005 -0.6075 -1.9126  1.8882
19207TIP3    H279113   4.130   6.437   2.884 -0.9063  0.5269  0.9540
19208TIP3   OH279114   4.235   5.623  16.889  0.3569  0.1831  0.1054
19208TIP3    H179115   4.244   5.606  16.796  1.9073 -1.4867  0.5404
19208TIP3    H279116   4.258   5.715  16.900  3.8942 -0.5588 -0.6716
19209TIP3   OH279117   2.044   5.186   5.654  0.0415 -0.5090 -0.2021
19209TIP3    H179118   1.957   5.176   5.615  0.8455 -1.0445 -1.9178
19209TIP3    H279119   2.092   5.242   5.592  1.0368 -0.5352  0.5316
19210TIP3   OH279120   6.527   6.642  11.970 -0.1742  0.6939  0.2311
19210TIP3    H179121   6.615   6.614  11.947 -0.6047 -2.0986  1.8317
19210TIP3    H279122   6.476   6.634  11.889 -0.1120 -2.5193  0.4762
19211TIP3   OH279123   5.985   5.733  15.626 -0.1504  0.3403 -0.1727
19211TIP3    H179124   6.080   5.744  15.634 -0.1085  0.7887 -1.2215
19211TIP3    H279125   5.949   5.821  15.640 -0.5253 -0.0919  1.7311
19212TIP3   OH279126   2.222   0.009   1.551 -0.1243  0.1503  0.2282
19212TIP3    H179127   2.159   0.062   1.502  0.9393  1.4567  0.2132
19212TIP3    H279128   2.302   0.061   1.549  0.3582 -0.4948  2.0424
19213TIP3   OH279129   2.088   2.010   1.583  0.2159 -0.0327  0.3068
19213TIP3    H179130   2.007   2.031   1.538  2.6469  1.9946 -3.3567
19213TIP3    H279131   2.132   1.947   1.526  2.6510  1.3581  0.5601
19214TIP3   OH279132   5.986   6.242   1.690  0.0242 -0.5116  1.1597
19214TIP3    H179133   5.907   6.286   1.661  1.3325  1.9564  1.1964
19214TIP3    H279134   5.984   6.157   1.646  0.0634  1.6025 -3.1904
19215TIP3   OH279135   5.319   0.889   5.769 -0.1937  0.2658  0.6799
19215TIP3    H179136   5.322   0.903   5.863  0.2555  0.4868  0.6338
19215TIP3    H279137   5.411   0.890   5.742 -0.3654  0.9915  0.1188
19216TIP3   OH279138   0.372   0.036   6.531  0.7539 -1.0899  0.2905
19216TIP3    H179139   0.431   0.097   6.488 -0.6738 -0.3655 -0.7010
19216TIP3    H279140   0.326  -0.008   6.459 -0.8822 -0.6528  1.0383
19217TIP3   OH279141   2.588   3.290  15.649  0.3538 -0.0934  0.3795
19217TIP3    H179142   2.529   3.359  15.681  0.0706  0.1032 -0.5700
19217TIP3    H279143   2.659   3.338  15.607  0.1680 -0.3716 -0.2621
19218TIP3   OH279144   0.903   6.576  11.712 -0.1004 -0.1024  0.0424
19218TIP3    H179145   0.962   6.650  11.699  0.7054 -0.9785 -1.4170
19218TIP3    H279146   0.939   6.529  11.788  1.1847 -0.7023 -0.9180
19219TIP3   OH279147   4.411   3.772   2.969  0.2960 -0.3253 -0.8862
19219TIP3    H179148   4.448   3.696   2.926 -0.1191 -1.7825  1.2271
19219TIP3    H279149   4.340   3.801   2.911  0.4030 -1.5930 -1.6545
19220TIP3   OH279150   1.369   5.679  15.128 -0.5975  0.3408 -0.1677
19220TIP3    H179151   1.336   5.760  15.090  2.7511  2.2440  0.7387
19220TIP3    H279152   1.352   5.687  15.222 -2.7620 -1.2956 -0.3979
19221TIP3   OH279153   6.696   2.671   0.841 -0.2048  0.1498  0.2012
19221TIP3    H179154   6.690   2.735   0.911 -1.4653 -1.3005  1.4578
19221TIP3    H279155   6.753   2.602   0.876 -1.1914 -0.7911 -0.0219
19222TIP3   OH279156   1.704   5.914  12.211  0.1371 -0.6762 -0.1936
19222TIP3    H179157   1.658   5.909  12.128  2.2841  2.0423 -1.6468
19222TIP3    H279158   1.797   5.919  12.187  0.8481 -0.4770  2.3913
19223TIP3   OH279159   2.656   2.970  13.730 -0.0862  0.1147 -0.1196
19223TIP3    H179160   2.624   3.026  13.801  0.7649 -0.8983  1.0803
19223TIP3    H279161   2.626   3.013  13.650 -3.4769 -0.2139  0.9242
19224TIP3   OH279162   2.485   0.714   5.897 -0.3472 -0.2247 -0.1913
19224TIP3    H179163   2.530   0.696   5.815 -0.2005 -1.9338  0.2465
19224TIP3    H279164   2.525   0.654   5.960  0.2684  1.7845  1.3965
19225TIP3   OH279165   6.312   0.206  14.104 -0.6872 -0.2826  0.0254
19225TIP3    H179166   6.294   0.135  14.042 -0.1539  1.2062 -1.9143
19225TIP3    H279167   6.227   0.247  14.119 -0.8182 -0.6433  0.2598
19226TIP3   OH279168   5.159   6.432   3.697 -0.8846  0.4791 -0.1180
19226TIP3    H179169   5.118   6.519   3.704  0.4123  0.9797  1.8796
19226TIP3    H279170   5.183   6.410   3.787  4.3163  0.7790 -1.2754
19227TIP3   OH279171   0.205   4.139  10.173  0.3898 -0.1630  0.0499
19227TIP3    H179172   0.274   4.075  10.190  1.9947  1.0006 -1.9322
19227TIP3    H279173   0.135   4.089  10.131  0.5792 -1.0806  0.8046
19228TIP3   OH279174   1.185   1.168   4.580  0.0657  0.0975  0.0300
19228TIP3    H179175   1.215   1.256   4.602 -0.3763  0.1104  0.5847
19228TIP3    H279176   1.202   1.159   4.487  0.3773  0.6677  0.0334
19229TIP3   OH279177   0.014   5.902  14.162 -0.1801  0.5097 -0.4137
19229TIP3    H179178   0.099   5.886  14.119 -0.1773  0.0892 -0.2494
19229TIP3    H279179  -0.010   5.818  14.199  0.3945  1.1469  1.4601
19230TIP3   OH279180   3.746   4.287  14.124  0.0485 -0.2493  0.0929
19230TIP3    H179181   3.741   4.230  14.047 -0.0854  0.9993 -0.8500
19230TIP3    H279182   3.840   4.296  14.141  0.1695  0.9097 -1.0584
19231TIP3   OH279183   0.952   4.475  16.650 -1.1263 -0.3730  0.2467
19231TIP3    H179184   1.047   4.461  16.648 -1.0022  0.4454  0.2532
19231TIP3    H279185   0.919   4.405  16.706 -0.6387 -1.2812 -0.5686
19232TIP3   OH279186   1.347   2.820   5.650  0.1914 -0.2190 -0.0261
19232TIP3    H179187   1.325   2.794   5.560  0.4865 -2.5449  0.5221
19232TIP3    H279188   1.268   2.863   5.683 -0.8557 -1.6892 -0.5578
19233TIP3   OH279189   0.857   0.360   1.127  0.0483 -0.1850 -0.0189
19233TIP3    H179190   0.890   0.416   1.197 -1.3640  1.0061 -0.2708
19233TIP3    H279191   0.781   0.407   1.093 -0.1198 -1.4312 -1.4132
19234TIP3   OH279192   5.853   0.647   3.135  0.2446 -0.8185 -0.6959
19234TIP3    H179193   5.795   0.591   3.083 -0.3954 -0.6076 -0.2204
19234TIP3    H279194   5.807   0.657   3.219  0.8055 -0.3628 -0.4426
19235TIP3   OH279195   2.552   3.313   3.094 -0.9279  0.4804  0.5088
19235TIP3    H179196   2.501   3.233   3.090  0.4757 -0.3480 -4.1913
19235TIP3    H279197   2.623   3.294   3.156 -2.6519 -0.5390  2.2198
19236TIP3   OH279198   3.018   2.871   0.376  0.2962 -0.3254  0.0502
19236TIP3    H179199   3.012   2.932   0.450 -0.2738  0.6918 -0.8366
19236TIP3    H279200   2.929   2.838   0.365  0.6150 -1.3962  0.5741
19237TIP3   OH279201   4.925   4.303  14.275 -0.3798  0.1228  0.2493
19237TIP3    H179202   4.887   4.234  14.330  0.5480 -0.4703  0.1627
19237TIP3    H279203   4.900   4.385  14.318 -1.5360 -0.2555  0.3235
19238TIP3   OH279204   0.425   1.019  13.654 -0.0205 -0.0214  0.5435
19238TIP3    H179205   0.449   1.108  13.629 -1.9895  0.2458 -0.5043
19238TIP3    H279206   0.508   0.975  13.671  1.0909  1.3586 -1.2483
19239TIP3   OH279207   6.783   4.287  14.469  0.0321 -0.3913 -0.3513
19239TIP3    H179208   6.749   4.376  14.476 -2.6264 -1.3754 -0.1314
19239TIP3    H279209   6.823   4.269  14.555  0.9479  0.6965 -0.5340
19240TIP3   OH279210   1.100   1.241   0.986  0.3567 -0.2662 -0.1226
19240TIP3    H179211   1.109   1.167   0.926  0.3483  0.0168 -0.4729
19240TIP3    H279212   1.168   1.303   0.960  0.3998 -0.1712  0.2042
19241TIP3   OH279213   2.436   6.212  12.468 -0.0397 -0.1206 -0.3445
19241TIP3    H179214   2.469   6.251  12.387 -2.2811 -0.0092 -1.2527
19241TIP3    H279215   2.377   6.142  12.439 -0.0761 -0.7546  1.1999
19242TIP3   OH279216   5.122   2.155   1.600  0.4678 -0.4534  0.2978
19242TIP3    H179217   5.104   2.064   1.622  1.9013 -1.0167 -0.7922
19242TIP3    H279218   5.129   2.198   1.686  1.1563 -1.6514  0.8697
19243TIP3   OH279219   6.816   5.414  15.480  0.0456 -0.4351  0.3394
19243TIP3    H179220   6.844   5.483  15.540 -0.8772  0.1271  0.1325
19243TIP3    H279221   6.828   5.453  15.393  1.1143 -1.1421  0.1655
19244TIP3   OH279222   6.206   3.822  16.186 -0.2487  0.8557 -0.2272
19244TIP3    H179223   6.161   3.901  16.155 -1.5818  0.7467  1.3764
19244TIP3    H279224   6.154   3.749  16.153 -0.0263  0.6899 -0.2131
19245TIP3   OH279225   2.170   3.421   5.552 -0.2920 -0.2687 -0.1470
19245TIP3    H179226   2.255   3.382   5.570 -0.3481 -0.0981  0.4939
19245TIP3    H279227   2.137   3.373   5.476  1.3083  1.1080 -1.7621
19246TIP3   OH279228   1.839   3.033  13.922 -0.2245  0.0301  0.1677
19246TIP3    H179229   1.838   3.027  14.018 -0.9592 -1.0339  0.0934
19246TIP3    H279230   1.791   2.956  13.893  1.6322 -0.6721 -1.1211
19247TIP3   OH279231   6.347   4.844   3.548  0.0093  0.3328  0.1664
19247TIP3    H179232   6.334   4.920   3.491  0.0355  0.2270  0.0175
19247TIP3    H279233   6.360   4.881   3.635 -1.2299  0.4491  0.3108
19248TIP3   OH279234   3.113   4.183   5.450 -1.3086 -0.3784 -0.1871
19248TIP3    H179235   3.058   4.251   5.412 -0.0273  0.8681  0.1569
19248TIP3    H279236   3.088   4.181   5.542 -0.3470  0.6271  0.1023
19249TIP3   OH279237   3.837   4.663  15.762 -0.3643  0.2726 -0.6874
19249TIP3    H179238   3.874   4.601  15.699  1.5557  1.1287 -0.4517
19249TIP3    H279239   3.744   4.668  15.740 -0.5272 -2.5492 -0.8055
19250TIP3   OH279240   6.426   6.296   3.884  0.1144  0.0826 -0.0639
19250TIP3    H179241   6.341   6.266   3.916  1.0083 -1.5920  0.7962
19250TIP3    H279242   6.461   6.349   3.956  0.1083  0.1699 -0.1259
19251TIP3   OH279243   1.390   3.856   3.210 -0.1236 -0.1333 -0.3070
19251TIP3    H179244   1.305   3.865   3.167  0.7826 -0.0384 -2.1477
19251TIP3    H279245   1.452   3.897   3.150  1.4101 -1.3552  0.3797
19252TIP3   OH279246   6.259   3.425   0.130 -0.6581 -0.7339  0.2515
19252TIP3    H179247   6.243   3.456   0.219  1.6304 -2.2571  1.2743
19252TIP3    H279248   6.197   3.353   0.118 -2.0335  0.4874  0.0303
19253TIP3   OH279249   0.615   6.791  13.091  0.2911  0.0577 -0.0896
19253TIP3    H179250   0.537   6.757  13.047  1.2964  0.7033 -2.4823
19253TIP3    H279251   0.666   6.833  13.021  1.7350  1.5818  1.7995
19254TIP3   OH279252   2.808   4.043  16.947  0.4390 -0.2600 -0.3795
19254TIP3    H179253   2.818   3.972  17.010  1.6261  0.9900  0.8429
19254TIP3    H279254   2.716   4.069  16.955  0.1649 -1.2129 -0.3656
19255TIP3   OH279255   4.335   0.966   1.650 -0.0951 -0.4054 -0.4849
19255TIP3    H179256   4.242   0.945   1.640 -0.4320  1.1479 -0.8120
19255TIP3    H279257   4.343   0.999   1.739  0.1049 -0.3183 -0.5353
19256TIP3   OH279258   6.461   6.503   2.534  0.0836  0.1398 -0.3018
19256TIP3    H179259   6.407   6.578   2.557 -1.2855 -0.9110 -0.0052
19256TIP3    H279260   6.423   6.430   2.583  0.9657 -0.8773 -1.0935
19257TIP3   OH279261   1.041   3.111   2.785  0.2635  0.4473 -0.4901
19257TIP3    H179262   1.119   3.123   2.731  1.5297 -2.1785  0.6798
19257TIP3    H279263   1.009   3.200   2.801  2.8521  1.5468 -1.1694
19258TIP3   OH279264   1.255   0.381  12.028 -0.3444 -0.2817  0.5136
19258TIP3    H179265   1.330   0.397  12.084 -0.1535  1.0526 -0.1113
19258TIP3    H279266   1.184   0.432  12.067 -0.4176  0.0172 -0.0077
19259TIP3   OH279267   3.895   4.362   4.948  0.2848 -0.0006  1.1407
19259TIP3    H179268   3.987   4.358   4.922  0.5126  1.0290  1.7359
19259TIP3    H279269   3.883   4.287   5.006 -0.2420 -2.3432 -1.9030
19260TIP3   OH279270   6.736   5.901   4.364 -0.7772 -0.4758 -0.0228
19260TIP3    H179271   6.689   5.863   4.290  0.0968  0.2644 -0.9788
19260TIP3    H279272   6.707   5.850   4.440 -2.0434 -0.9314 -0.8001
19261TIP3   OH279273   4.359   5.111  16.501  0.7976  0.1594 -0.4424
19261TIP3    H179274   4.333   5.122  16.593  0.1276  0.0425 -0.6182
19261TIP3    H279275   4.374   5.017  16.492  0.0376  0.0550 -0.6688
19262TIP3   OH279276   3.295   6.551   1.696  0.4156  0.1722  0.8198
19262TIP3    H179277   3.274   6.644   1.686  1.7645  0.4666  0.6425
19262TIP3    H279278   3.211   6.506   1.690 -0.0490  1.2439 -0.8933
19263TIP3   OH279279   2.348   1.998  14.827 -0.0488 -0.6442  0.4385
19263TIP3    H179280   2.401   2.006  14.907  1.6232 -1.9582 -0.5011
19263TIP3    H279281   2.309   1.911  14.833 -3.3132  0.8095  1.7819
19264TIP3   OH279282   3.233   2.380  13.769  0.2344 -0.2690 -0.1992
19264TIP3    H179283   3.145   2.413  13.782 -0.8631 -2.4494 -1.7246
19264TIP3    H279284   3.225   2.285  13.782  2.3816 -0.4709 -0.1684
19265TIP3   OH279285   2.628   3.696  11.276  0.1418 -0.8282 -0.1588
19265TIP3    H179286   2.701   3.639  11.300  0.4361 -0.6094 -0.5206
19265TIP3    H279287   2.645   3.718  11.184 -1.2517 -2.1168 -0.7429
19266TIP3   OH279288   4.098   4.418   4.350  0.3299  0.0440 -0.3361
19266TIP3    H179289   4.028   4.482   4.335 -0.1697 -0.8066 -1.7992
19266TIP3    H279290   4.171   4.469   4.385 -0.2427  1.3256 -0.9879
19267TIP3   OH279291   4.830   1.022   5.948 -0.1931 -0.4292  0.2669
19267TIP3    H179292   4.778   1.020   6.028  0.4496  0.5100  0.7195
19267TIP3    H279293   4.921   1.017   5.978 -0.0259 -2.5001 -0.5460
19268TIP3   OH279294   3.596   3.585   0.387  0.1759 -0.2383 -0.1792
19268TIP3    H179295   3.548   3.583   0.304 -0.4921 -0.1291  0.1929
19268TIP3    H279296   3.529   3.565   0.453  0.1620  2.1144  0.5755
19269TIP3   OH279297   0.260   2.199   2.466 -0.1728  0.3694 -0.5814
19269TIP3    H179298   0.226   2.222   2.379  0.7582 -0.7736 -1.2688
19269TIP3    H279299   0.192   2.145   2.506 -1.4390  2.4554  0.1881
19270TIP3   OH279300   6.507   4.574  10.990  0.3725 -0.0791 -0.3016
19270TIP3    H179301   6.460   4.641  10.941 -0.2652 -0.2273  0.1094
19270TIP3    H279302   6.505   4.496  10.933 -0.3867 -0.2587 -0.0296
19271TIP3   OH279303   0.203   4.695   5.054 -0.0124  0.3233 -0.2013
19271TIP3    H179304   0.178   4.783   5.025 -0.4250  0.1575 -0.3510
19271TIP3    H279305   0.140   4.637   5.012 -0.3279  0.0346  0.6657
19272TIP3   OH279306   0.875   3.884  10.964 -0.3666 -0.0510  0.2397
19272TIP3    H179307   0.856   3.941  10.890  1.6359  3.2960  2.2166
19272TIP3    H279308   0.899   3.800  10.924 -2.1572  0.7844 -2.7585
19273TIP3   OH279309   0.444   4.442  13.616 -0.7906  0.2145 -0.1568
19273TIP3    H179310   0.516   4.503  13.601  1.3577 -1.8768  1.1671
19273TIP3    H279311   0.419   4.413  13.528  1.4476 -0.5790 -0.5805
19274TIP3   OH279312   6.728   3.527   4.618  0.1455  0.8547  0.1736
19274TIP3    H179313   6.750   3.591   4.551 -1.4973  2.1635  0.8469
19274TIP3    H279314   6.674   3.462   4.573  3.3221 -1.1372 -0.9451
19275TIP3   OH279315   3.961   3.910   4.436 -0.4715  0.2111 -0.0825
19275TIP3    H179316   4.022   3.859   4.383 -0.2735  1.7604 -1.4125
19275TIP3    H279317   3.998   3.998   4.437 -3.0488  1.3957 -1.6265
19276TIP3   OH279318   3.295   4.172  10.821 -0.0947  0.9153  0.3498
19276TIP3    H179319   3.375   4.165  10.872 -0.4753 -0.9196  0.7191
19276TIP3    H279320   3.249   4.247  10.859  0.9669  1.3359  0.8107
19277TIP3   OH279321   4.935   6.725   6.294  0.0050  0.4297  0.2315
19277TIP3    H179322   4.974   6.777   6.365  3.6971 -1.3977 -0.3396
19277TIP3    H279323   4.901   6.647   6.338  3.3965 -1.2898 -0.0467
19278TIP3   OH279324   1.015   4.505  15.246  0.2726  0.3414 -0.3130
19278TIP3    H179325   1.058   4.474  15.167  0.0259 -0.5828 -0.0914
19278TIP3    H279326   0.921   4.497  15.227  0.2008 -1.7658  0.7775
19279TIP3   OH279327   0.287   3.841  10.118 -0.3174  0.8242 -0.4063
19279TIP3    H179328   0.251   3.779  10.054  0.0753  0.9272 -0.7268
19279TIP3    H279329   0.247   3.815  10.201  0.0720 -0.0385 -0.4891
19280TIP3   OH279330   1.061   3.645   5.793 -0.5912  0.1889  0.1704
19280TIP3    H179331   1.018   3.611   5.871 -0.4588 -1.0110 -0.2765
19280TIP3    H279332   0.995   3.637   5.724  0.0478 -0.8481 -0.3256
19281TIP3   OH279333   5.953   1.755  13.537  0.4528 -0.2155  0.0983
19281TIP3    H179334   6.039   1.791  13.514  1.1817 -1.1179  1.3588
19281TIP3    H279335   5.953   1.666  13.502 -0.9256  0.5541 -2.0218
19282TIP3   OH279336   3.527   3.119  15.599 -0.5390  0.1179  0.2104
19282TIP3    H179337   3.494   3.188  15.657  0.1021  1.3100 -0.8319
19282TIP3    H279338   3.551   3.047  15.659 -2.4035  0.2785  1.2028
19283TIP3   OH279339   5.032   1.007  11.758  0.5592 -0.0399 -0.2630
19283TIP3    H179340   4.957   1.028  11.815 -0.4224 -3.1288 -0.3460
19283TIP3    H279341   4.994   1.000  11.671  1.0786 -0.8185 -0.4268
19284TIP3   OH279342   5.084   3.678   1.486 -0.5156 -0.2373  0.2816
19284TIP3    H179343   5.078   3.691   1.581 -0.7966  2.5598 -0.0544
19284TIP3    H279344   4.994   3.689   1.456 -0.1581  0.7109 -0.4731
19285TIP3   OH279345   5.260   4.612  12.590 -0.4723 -0.4925 -0.1880
19285TIP3    H179346   5.308   4.550  12.536  0.6366 -0.3538  0.6294
19285TIP3    H279347   5.226   4.676  12.528  1.0506 -0.1639 -0.6998
19286TIP3   OH279348   6.665   1.108   0.477 -0.9596  0.1771  0.4308
19286TIP3    H179349   6.588   1.105   0.420 -0.3371 -2.4284 -0.3620
19286TIP3    H279350   6.633   1.145   0.559 -3.0065 -0.6073  0.0224
19287TIP3   OH279351   2.022   0.407  16.728 -0.3496  0.2150 -0.5666
19287TIP3    H179352   1.953   0.348  16.696 -0.2076  1.6904 -3.7948
19287TIP3    H279353   2.091   0.349  16.759 -1.5162 -1.3104 -0.7634
19288TIP3   OH279354   6.339   3.671   2.975 -0.6547 -0.5118 -0.1113
19288TIP3    H179355   6.372   3.760   2.966 -2.5555  0.2170 -0.2345
19288TIP3    H279356   6.249   3.683   3.007 -0.6351 -2.4149  0.7072
19289TIP3   OH279357   0.642   3.961   5.103 -0.2200 -0.2583  0.6664
19289TIP3    H179358   0.592   3.884   5.075 -0.5315  0.6459 -1.3548
19289TIP3    H279359   0.659   4.009   5.022  0.6775  1.3880  1.8058
19290TIP3   OH279360   5.062   0.971   1.959  0.3976  0.1406 -0.0734
19290TIP3    H179361   4.975   0.978   1.922 -1.2030 -0.2424  3.4024
19290TIP3    H279362   5.082   1.060   1.991  0.4138 -0.2202  0.9356
19291TIP3   OH279363   2.707   5.218  15.968 -0.4669 -0.1163 -0.9701
19291TIP3    H179364   2.657   5.300  15.972 -1.1751 -0.5110 -1.5159
19291TIP3    H279365   2.663   5.161  16.031  0.6027  0.2278  0.1019
19292TIP3   OH279366   4.886   4.458  11.976  0.3055  0.0308  0.4772
19292TIP3    H179367   4.880   4.375  12.022  2.0085 -0.4091 -0.0688
19292TIP3    H279368   4.870   4.436  11.885 -0.0078  0.4294  0.4351
19293TIP3   OH279369   2.422   5.830  12.658 -0.2042  0.0956 -0.2206
19293TIP3    H179370   2.357   5.802  12.593 -1.3957  2.2487 -0.0370
19293TIP3    H279371   2.481   5.888  12.609  1.0821 -1.1688 -0.1871
19294TIP3   OH279372   5.667   6.635  17.111  0.2033 -0.2160  0.1732
19294TIP3    H179373   5.633   6.663  17.196 -0.3343  0.6251 -0.3166
19294TIP3    H279374   5.624   6.692  17.048  1.2367 -0.2761 -0.5994
19295TIP3   OH279375   1.988   4.311   2.531 -0.4767 -0.8214 -0.0169
19295TIP3    H179376   1.968   4.257   2.608  0.7257 -0.9447  0.2223
19295TIP3    H279377   1.902   4.332   2.494 -1.0374 -1.4370  0.8920
19296TIP3   OH279378   4.352   3.381  15.095 -0.7550 -0.4456 -0.5345
19296TIP3    H179379   4.352   3.408  15.187  1.8728  1.3413 -1.0059
19296TIP3    H279380   4.299   3.301  15.094 -3.2967  1.0834  2.0251
19297TIP3   OH279381   2.295   1.369   5.670  0.3422  0.2965 -0.3492
19297TIP3    H179382   2.343   1.444   5.706  0.6139 -0.7657  1.5069
19297TIP3    H279383   2.350   1.293   5.690  1.1319 -0.2304 -4.0779
19298TIP3   OH279384   1.165   2.738   3.937  0.4116  0.0336 -0.2666
19298TIP3    H179385   1.116   2.802   3.885  2.7751  1.0110 -1.3584
19298TIP3    H279386   1.176   2.663   3.879  0.8677  0.1302 -0.3116
19299TIP3   OH279387   5.550   0.065   0.880  0.1751 -0.1127 -0.0517
19299TIP3    H179388   5.497   0.066   0.800  1.2356  0.7442 -0.7749
19299TIP3    H279389   5.633   0.025   0.852  0.5974  0.3130  0.5801
19300TIP3   OH279390   6.672   3.704   3.005 -0.5475  0.1399 -0.1571
19300TIP3    H179391   6.647   3.627   3.056 -0.6119 -0.6417 -1.3306
19300TIP3    H279392   6.597   3.763   3.012  0.2232  0.8839  2.2249
19301TIP3   OH279393   3.096   1.414  15.253 -0.0148 -0.1406 -0.5882
19301TIP3    H179394   3.149   1.402  15.174  0.2783  1.2178 -0.5980
19301TIP3    H279395   3.066   1.504  15.248 -0.9705 -0.4156  0.2617
19302TIP3   OH279396   0.994   5.274   0.690 -0.9361 -0.1741  0.1355
19302TIP3    H179397   1.044   5.232   0.620 -1.6358  0.8494 -1.0232
19302TIP3    H279398   0.917   5.218   0.701 -1.8383  0.7246 -1.3636
19303TIP3   OH279399   5.787   3.981   3.474 -0.7084  0.0568  0.0195
19303TIP3    H179400   5.767   4.005   3.383 -1.3027 -0.2697  0.0662
19303TIP3    H279401   5.704   3.989   3.520 -0.3557  0.4746  0.5962
19304TIP3   OH279402   4.598   2.268  11.592 -0.9025  0.4759 -0.2063
19304TIP3    H179403   4.660   2.195  11.586 -0.2285  1.0656 -0.4776
19304TIP3    H279404   4.563   2.276  11.503  1.1629  2.3265 -0.8972
19305TIP3   OH279405   1.753   5.394   4.057  0.0840  0.2046  0.5887
19305TIP3    H179406   1.719   5.475   4.096  0.0109  0.1298  0.6786
19305TIP3    H279407   1.678   5.335   4.054  0.3551 -0.1799  1.3655
19306TIP3   OH279408   1.545   4.859  15.107  0.1573  0.9929 -0.5133
19306TIP3    H179409   1.558   4.938  15.055  0.0712  0.6688 -1.0275
19306TIP3    H279410   1.467   4.877  15.159  0.6531  1.5981  0.0340
19307TIP3   OH279411   4.656   5.101   3.929 -0.4636  0.0059  0.0119
19307TIP3    H179412   4.651   5.029   3.867 -0.4413 -0.2266  0.2814
19307TIP3    H279413   4.591   5.080   3.996 -0.7788  0.4630 -0.1475
19308TIP3   OH279414   5.736   1.244  13.400  0.0587  0.0999 -0.3686
19308TIP3    H179415   5.677   1.268  13.330 -0.7076  0.1493  0.2880
19308TIP3    H279416   5.737   1.148  13.400 -0.7661  0.0888  0.2361
19309TIP3   OH279417   0.293   4.470  13.838  0.4558  0.6378 -0.7221
19309TIP3    H179418   0.346   4.470  13.758  0.4337  0.5922 -0.7365
19309TIP3    H279419   0.206   4.442  13.811  0.5980  0.0588 -0.5860
19310TIP3   OH279420   5.080   6.371   1.082  0.2119 -0.2251 -0.6093
19310TIP3    H179421   5.075   6.339   0.991 -0.3711 -0.6824 -0.4195
19310TIP3    H279422   5.148   6.437   1.080  1.0477 -1.0907 -1.1312
19311TIP3   OH279423   1.876   6.243  14.988  0.4046  0.6000  0.0148
19311TIP3    H179424   1.895   6.271  14.899 -0.3097 -0.5422 -0.5069
19311TIP3    H279425   1.901   6.318  15.043  3.4731  0.3167 -0.8870
19312TIP3   OH279426   5.088   5.803   4.072  0.0924 -0.0755 -0.1344
19312TIP3    H179427   5.084   5.878   4.013  1.5757  1.0669  1.1875
19312TIP3    H279428   4.999   5.794   4.106  0.2060  1.9638  0.7563
19313TIP3   OH279429   6.219   6.144   5.213  0.1626  0.0907  0.3289
19313TIP3    H179430   6.251   6.055   5.224 -2.1397 -0.9445 -1.0394
19313TIP3    H279431   6.241   6.188   5.295  1.2016 -1.7636  1.0568
19314TIP3   OH279432   4.861   1.733  12.797 -0.4219  0.0543  0.1144
19314TIP3    H179433   4.803   1.809  12.798  0.3486  0.6429  0.5433
19314TIP3    H279434   4.863   1.703  12.888  0.9485  0.8123  0.3407
19315TIP3   OH279435   5.024   6.569  16.656 -0.0173 -0.2769 -0.1303
19315TIP3    H179436   5.072   6.560  16.738 -2.6530 -1.0333  1.4236
19315TIP3    H279437   5.022   6.481  16.619 -0.6849 -0.3871  0.1416
19316TIP3   OH279438   5.472   6.081  16.233  0.8514  0.2996 -0.0693
19316TIP3    H179439   5.439   6.025  16.163  2.5842 -0.2184 -0.5015
19316TIP3    H279440   5.473   6.169  16.195  0.6396  0.2146 -0.2734
19317TIP3   OH279441   1.051   0.097   3.252  0.4050 -0.1006  0.4673
19317TIP3    H179442   0.978   0.158   3.258  0.6281  0.1801  0.3045
19317TIP3    H279443   1.126   0.151   3.231  0.8176 -0.2857  1.4310
19318TIP3   OH279444   0.381   6.727  12.904  0.0199  0.1297 -0.3739
19318TIP3    H179445   0.443   6.658  12.882  0.0948  0.5803 -1.6778
19318TIP3    H279446   0.375   6.779  12.823 -1.5619  0.4517 -0.0610
19319TIP3   OH279447   1.576   0.405  15.446 -0.2996  0.3492 -0.4166
19319TIP3    H179448   1.596   0.438  15.358 -0.1271  0.0907 -0.4714
19319TIP3    H279449   1.576   0.484  15.501  1.0692  0.3247 -0.3701
19320TIP3   OH279450   1.194   5.427  17.022  0.2694 -0.1789  0.2513
19320TIP3    H179451   1.243   5.495  16.975 -0.1552  0.1070  0.2232
19320TIP3    H279452   1.111   5.420  16.975  0.3872 -0.8500  0.1398
19321TIP3   OH279453   2.566   5.693   6.173  0.4707  0.0527 -0.2117
19321TIP3    H179454   2.625   5.630   6.131  0.8688 -1.1579  2.0532
19321TIP3    H279455   2.621   5.769   6.191  0.2937  0.5752 -1.8711
19322TIP3   OH279456   4.105   2.505  16.324  0.4914 -0.0158 -0.6366
19322TIP3    H179457   4.146   2.590  16.341 -0.4841  0.5132 -0.8443
19322TIP3    H279458   4.064   2.515  16.238 -1.8801  0.2145  0.4667
19323TIP3   OH279459   1.618   2.825  12.423 -0.3961  0.6028 -0.1416
19323TIP3    H179460   1.675   2.758  12.385 -0.2746  0.7479 -0.2167
19323TIP3    H279461   1.577   2.782  12.498  1.4945  1.1683  1.2522
19324TIP3   OH279462   1.982   4.282   2.038 -0.3666  0.2160  0.0193
19324TIP3    H179463   1.949   4.201   1.999  1.0834  0.4723 -1.7801
19324TIP3    H279464   2.075   4.266   2.050  0.5216  2.6431 -3.0855
19325TIP3   OH279465   6.005   1.162  13.128 -0.4100  0.2046  0.3183
19325TIP3    H179466   5.963   1.080  13.153  1.7765 -2.0685 -3.0437
19325TIP3    H279467   6.093   1.155  13.165 -0.6100  1.6643  1.1037
19326TIP3   OH279468   1.990   0.450  12.993  0.3329 -0.1838  0.1305
19326TIP3    H179469   1.961   0.501  13.068  0.2446 -0.9285  0.6019
19326TIP3    H279470   1.977   0.359  13.018  0.1229 -0.4359 -0.8603
19327TIP3   OH279471   1.303   1.781   4.455 -0.4370 -0.3265  0.1209
19327TIP3    H179472   1.323   1.711   4.393  0.5669  0.8198 -0.8759
19327TIP3    H279473   1.346   1.754   4.537 -1.8143 -1.8693  0.3524
19328TIP3   OH279474   6.631   2.216   4.962 -0.2861  0.6527  0.1883
19328TIP3    H179475   6.655   2.234   5.053 -1.9203 -0.0297  0.7880
19328TIP3    H279476   6.696   2.261   4.910  0.8383  0.8257  1.7166
19329TIP3   OH279477   1.142   6.202  15.773 -0.5457  0.1560  0.1198
19329TIP3    H179478   1.213   6.214  15.835 -0.3354  2.3836 -0.4993
19329TIP3    H279479   1.105   6.290  15.762 -1.9992 -0.5986 -1.2038
19330TIP3   OH279480   4.192   2.773  16.261 -0.4774  0.3748 -0.3484
19330TIP3    H179481   4.171   2.806  16.348  2.6599  0.0305  0.5677
19330TIP3    H279482   4.132   2.820  16.203 -0.8029  2.5383  1.6717
19331TIP3   OH279483   6.579   6.555   3.701  0.1082 -0.1664 -0.6282
19331TIP3    H179484   6.617   6.643   3.699 -1.3639  0.5287  1.0885
19331TIP3    H279485   6.542   6.543   3.613  2.0980  0.1058 -1.5293
19332TIP3   OH279486   0.675   5.975  13.439 -0.0770  0.1725  0.6428
19332TIP3    H179487   0.670   5.999  13.532  1.5401 -1.6014  1.2187
19332TIP3    H279488   0.740   5.906  13.436  0.1537  0.4625 -1.8965
19333TIP3   OH279489   3.887   5.095  14.696  0.1320 -0.1307  0.0014
19333TIP3    H179490   3.938   5.120  14.619  2.6724  0.9250  1.9478
19333TIP3    H279491   3.849   5.177  14.727  0.1326 -0.3497  0.5816
19334TIP3   OH279492   1.666   0.919  14.383  0.0444  0.0982 -0.1458
19334TIP3    H179493   1.608   0.918  14.307 -1.4398  1.5507  0.9524
19334TIP3    H279494   1.725   0.993  14.368  0.2156 -0.0489 -0.2090
19335TIP3   OH279495   1.293   0.731  16.519 -0.9317  0.4719 -0.1988
19335TIP3    H179496   1.325   0.767  16.436 -0.9655 -0.0876 -0.4595
19335TIP3    H279497   1.368   0.739  16.579 -0.0959 -1.3515 -0.9546
19336TIP3   OH279498   1.342   3.815  16.897 -0.4961 -0.4452 -0.2575
19336TIP3    H179499   1.259   3.768  16.911 -1.5072  1.5217  0.7047
19336TIP3    H279500   1.369   3.791  16.809 -2.7952 -0.1508 -1.1023
19337TIP3   OH279501   6.203   6.474   4.690  0.4642  1.0903 -0.0468
19337TIP3    H179502   6.234   6.503   4.604 -3.1314 -0.3508 -1.9536
19337TIP3    H279503   6.121   6.523   4.703 -0.7045 -1.0826  1.0484
19338TIP3   OH279504   6.586   3.167   4.800 -0.6406 -0.0800 -0.3031
19338TIP3    H179505   6.601   3.083   4.758  2.6953  0.1227  0.3317
19338TIP3    H279506   6.584   3.147   4.894  0.7634  0.5551 -0.1107
19339TIP3   OH279507   1.197   1.469   2.569  0.0554  0.4264 -0.2332
19339TIP3    H179508   1.255   1.503   2.637  1.5944  0.0313 -1.2967
19339TIP3    H279509   1.223   1.377   2.559 -0.5777  0.3131 -0.9040
19340TIP3   OH279510   3.047   0.636   4.528 -0.4395  0.6929 -0.6023
19340TIP3    H179511   3.035   0.725   4.562 -1.3473  0.5224 -0.4508
19340TIP3    H279512   3.135   0.611   4.556 -0.3771  1.3534 -0.1988
19341TIP3   OH279513   2.479   2.154  16.687 -0.0951 -0.1516 -0.3581
19341TIP3    H179514   2.545   2.149  16.618  0.1462  0.6316 -0.1890
19341TIP3    H279515   2.396   2.144  16.641  0.0054  1.3669 -0.9064
19342TIP3   OH279516   6.515   0.264  14.769  0.5350  0.3709 -0.1492
19342TIP3    H179517   6.493   0.323  14.841  0.9636  0.8995 -0.4446
19342TIP3    H279518   6.587   0.308  14.723 -0.0899  0.3120 -1.2182
19343TIP3   OH279519   4.124   5.084  12.068 -0.2263 -0.0247 -0.7670
19343TIP3    H179520   4.200   5.053  12.117  0.1677  1.0995 -0.6721
19343TIP3    H279521   4.117   5.177  12.088 -1.6897 -0.1282 -0.6988
19344TIP3   OH279522   1.141   2.872  16.099 -0.1194  0.1459  0.5510
19344TIP3    H179523   1.226   2.913  16.087 -0.7258  0.8648 -1.5212
19344TIP3    H279524   1.154   2.781  16.072 -0.3923  0.6621 -1.3689
19345TIP3   OH279525   0.537   4.699  13.944  0.5596  0.0247  0.7094
19345TIP3    H179526   0.483   4.667  14.015 -0.6976  1.4722  0.4155
19345TIP3    H279527   0.480   4.696  13.867  2.0138 -1.9161 -0.3724
19346TIP3   OH279528   3.821   3.364   6.011 -0.0600  0.0660  0.6277
19346TIP3    H179529   3.765   3.290   6.034 -2.8535  1.5165 -1.1802
19346TIP3    H279530   3.783   3.438   6.059 -0.6244  1.3440 -1.7063
19347TIP3   OH279531   1.379   4.422  12.023  0.5050 -0.3080 -0.1757
19347TIP3    H179532   1.387   4.327  12.016  1.0109 -0.4838  2.4422
19347TIP3    H279533   1.453   4.448  12.078 -0.4873  1.4168  0.3746
19348TIP3   OH279534   6.124   3.487  13.253  0.2126  0.4685 -0.2195
19348TIP3    H179535   6.072   3.435  13.314 -1.5493  2.0850 -0.3074
19348TIP3    H279536   6.202   3.512  13.303  0.0432 -0.4608  0.5065
19349TIP3   OH279537   6.005   3.158   4.882  0.0385  0.0284  0.2262
19349TIP3    H179538   6.096   3.130   4.874  0.0474  0.3890 -1.0289
19349TIP3    H279539   5.975   3.169   4.791 -0.5867  2.0594  0.6682
19350TIP3   OH279540   1.028   5.591   1.389 -0.7155 -0.2063  0.2454
19350TIP3    H179541   0.986   5.676   1.376  0.7427  0.7264  1.4166
19350TIP3    H279542   1.030   5.579   1.484  0.5592 -0.7794  0.1595
19351TIP3   OH279543   2.274   1.095   1.543  0.3895  0.0401 -0.5360
19351TIP3    H179544   2.220   1.158   1.592  1.9839  0.6048  0.5304
19351TIP3    H279545   2.356   1.090   1.592  0.4907 -2.5075 -0.8962
19352TIP3   OH279546   3.183   3.133   5.717  0.8983 -0.1223  0.9925
19352TIP3    H179547   3.185   3.220   5.757 -0.2156  0.1144  0.5588
19352TIP3    H279548   3.210   3.073   5.787  0.1017  0.4153  1.7723
19353TIP3   OH279549   1.135   3.784   3.555 -0.3356 -0.0628 -0.1012
19353TIP3    H179550   1.088   3.713   3.599 -0.8272 -0.1921 -0.8341
19353TIP3    H279551   1.126   3.859   3.614  3.1731 -1.4821  2.4237
19354TIP3   OH279552   2.375   2.919   2.255  1.0155 -0.0785  0.2484
19354TIP3    H179553   2.316   2.956   2.321  2.1229 -0.1767  1.3224
19354TIP3    H279554   2.463   2.937   2.289  1.6045 -0.2347 -1.1525
19355TIP3   OH279555   0.503   2.727  10.869  0.9263 -0.3339  0.3719
19355TIP3    H179556   0.459   2.651  10.831 -2.6203  1.8678 -0.2454
19355TIP3    H279557   0.432   2.780  10.906  3.2909  2.4851  1.1181
19356TIP3   OH279558   0.103   3.648  17.108 -0.0275  0.2021  0.7674
19356TIP3    H179559   0.187   3.663  17.151 -0.0396  1.1117  0.4963
19356TIP3    H279560   0.126   3.609  17.024  0.3659  3.4356 -0.7003
19357TIP3   OH279561   3.501   6.385   2.162  0.4249  0.1188 -0.4434
19357TIP3    H179562   3.470   6.422   2.079 -0.7661  1.3367  0.5288
19357TIP3    H279563   3.565   6.449   2.195  0.2050  0.0979  0.0302
19358TIP3   OH279564   3.431   4.782  12.425  0.4897  0.5548  0.7781
19358TIP3    H179565   3.359   4.720  12.415  0.3825  0.8087 -0.0894
19358TIP3    H279566   3.463   4.796  12.335  1.6103  0.4524  1.1473
19359TIP3   OH279567   1.550   5.926   4.521 -0.1805  0.0289  0.0925
19359TIP3    H179568   1.577   5.848   4.473 -0.3869  0.0124  0.0016
19359TIP3    H279569   1.486   5.894   4.585  1.8615 -0.3366  2.0102
19360TIP3   OH279570   3.501   5.569   0.332 -0.3496 -0.3481 -0.3187
19360TIP3    H179571   3.459   5.482   0.330  0.8587 -0.9162 -1.2514
19360TIP3    H279572   3.576   5.558   0.390 -2.1858  1.0275  2.4552
19361TIP3   OH279573   3.028   0.518  12.040  0.0223  0.0373 -0.3797
19361TIP3    H179574   2.978   0.518  11.958 -0.3804  1.5425 -0.1487
19361TIP3    H279575   3.105   0.571  12.021  0.5365 -0.6220 -0.1370
19362TIP3   OH279576   5.212   6.439  16.126  0.0273 -0.0456  0.1031
19362TIP3    H179577   5.206   6.531  16.100  0.9610  0.3075  1.1030
19362TIP3    H279578   5.125   6.403  16.107 -0.2743  0.9840 -0.5036
19363TIP3   OH279579   1.073   0.786   5.767 -0.4100 -0.5194  0.0128
19363TIP3    H179580   1.084   0.855   5.701  0.8344 -1.1396 -0.4480
19363TIP3    H279581   1.110   0.708   5.726  1.4951 -0.6444  1.9137
19364TIP3   OH279582   5.769   1.543   1.528 -0.4787  0.1621  0.0569
19364TIP3    H179583   5.804   1.460   1.560 -0.2604 -0.8294 -2.6061
19364TIP3    H279584   5.843   1.603   1.531  0.0233 -0.4260 -0.2882
19365TIP3   OH279585   6.594   1.223  13.350 -0.1261 -0.1841  0.3060
19365TIP3    H179586   6.656   1.206  13.280 -0.9223 -0.5021 -0.3265
19365TIP3    H279587   6.508   1.219  13.308 -0.5021  2.0888  0.7924
19366TIP3   OH279588   6.759   1.605   5.045 -0.1842 -0.0092  0.3602
19366TIP3    H179589   6.746   1.700   5.046  0.4974  0.0782  0.9701
19366TIP3    H279590   6.689   1.573   4.988  0.3226  0.9601 -0.8352
19367TIP3   OH279591   2.952   2.824   2.015  0.7418  0.6911  0.2056
19367TIP3    H179592   2.964   2.729   2.023 -1.9337 -0.1274 -4.1638
19367TIP3    H279593   2.884   2.844   2.079  0.4023 -0.5654  0.2609
19368TIP3   OH279594   2.750   6.714  14.010  0.7592  0.0678  0.1018
19368TIP3    H179595   2.698   6.794  14.014 -0.7182 -0.8334 -0.6075
19368TIP3    H279596   2.836   6.740  14.043  0.3765  1.9938 -0.3305
19369TIP3   OH279597   6.755   4.558  14.493  0.1397  0.5436 -0.1208
19369TIP3    H179598   6.848   4.576  14.508  0.2557  0.3948 -0.6641
19369TIP3    H279599   6.735   4.600  14.409  0.1934 -1.0487 -0.9502
19370TIP3   OH279600   1.391   2.600  11.168  0.0190 -0.1199 -0.2009
19370TIP3    H179601   1.298   2.575  11.171  0.3642 -1.3918  0.0548
19370TIP3    H279602   1.397   2.659  11.093 -1.3477  1.4227  0.8660
19371TIP3   OH279603   6.129   1.785   5.191  0.1941  0.6403  0.1555
19371TIP3    H179604   6.169   1.781   5.278  0.0354 -1.4345  0.1741
19371TIP3    H279605   6.202   1.769   5.131  0.4112  2.6714 -0.1401
19372TIP3   OH279606   6.457   0.548   6.521 -0.4621 -0.0134  0.0375
19372TIP3    H179607   6.374   0.590   6.498 -1.5319 -2.6425 -1.1925
19372TIP3    H279608   6.461   0.471   6.463  3.5310  0.8268 -0.9667
19373TIP3   OH279609   1.478   4.390  15.287  0.3824  0.0064  0.3986
19373TIP3    H179610   1.492   4.441  15.367  0.1553 -0.6807  0.8869
19373TIP3    H279611   1.486   4.454  15.216 -0.4256  0.8137  1.0246
19374TIP3   OH279612   0.013   1.199   4.842  0.1636 -1.1966  0.1478
19374TIP3    H179613   0.068   1.125   4.868  1.5766 -0.7520 -1.5238
19374TIP3    H279614   0.074   1.263   4.806 -0.9396  1.1083  2.1733
19375TIP3   OH279615   2.251   3.158  15.362 -0.0047  0.3639  0.1691
19375TIP3    H179616   2.321   3.140  15.425  0.6347  3.8722  0.5759
19375TIP3    H279617   2.176   3.184  15.416 -0.6062 -0.1503 -0.4044
19376TIP3   OH279618   0.477   4.813  11.262 -0.2528  0.4206  0.3840
19376TIP3    H179619   0.454   4.879  11.327 -1.5258 -0.7516  1.1597
19376TIP3    H279620   0.442   4.846  11.180  1.5909  2.0411  0.1928
19377TIP3   OH279621   2.709   5.335   4.739 -0.1063  0.5089  0.1602
19377TIP3    H179622   2.799   5.367   4.739  0.7768 -1.8733 -1.2945
19377TIP3    H279623   2.666   5.385   4.668  0.3636  0.8132  0.0891
19378TIP3   OH279624   2.638   2.444  16.879 -0.1543  0.8642  0.4691
19378TIP3    H179625   2.705   2.423  16.814  1.1741 -0.6110  2.2711
19378TIP3    H279626   2.663   2.530  16.912  0.9800  0.2280  1.2806
19379TIP3   OH279627   5.950   0.113   1.055  0.2748 -0.0549  0.2397
19379TIP3    H179628   6.001   0.110   1.136  0.7589 -3.1075 -0.1041
19379TIP3    H279629   5.882   0.046   1.067  2.1633 -2.7420 -2.9458
19380TIP3   OH279630   4.989   1.331  16.764 -0.1840 -0.7130  0.3558
19380TIP3    H179631   5.074   1.369  16.789 -0.8483  0.4680  0.8602
19380TIP3    H279632   5.001   1.302  16.674  0.4201  0.5128  0.0192
19381TIP3   OH279633   3.798   3.515   1.678  0.8642 -0.0425 -0.0402
19381TIP3    H179634   3.722   3.507   1.736  0.5797 -0.1611 -0.4216
19381TIP3    H279635   3.764   3.489   1.592  0.9482  1.3808 -0.5130
19382TIP3   OH279636   5.242   1.270  16.285 -0.2693  0.2387 -0.0230
19382TIP3    H179637   5.287   1.199  16.239 -1.1341 -0.4772  0.2256
19382TIP3    H279638   5.306   1.342  16.287  0.2050 -0.1394 -1.2643
19383TIP3   OH279639   2.537   1.695   3.971  0.0149  0.2645  0.8091
19383TIP3    H179640   2.501   1.658   4.051  2.8472 -0.0465  1.9856
19383TIP3    H279641   2.475   1.668   3.903 -1.3466 -1.2228  2.5744
19384TIP3   OH279642   1.890   2.740   1.443  0.5641  0.5565 -0.1444
19384TIP3    H179643   1.862   2.831   1.459  1.5533  0.6193  1.3849
19384TIP3    H279644   1.981   2.748   1.415  1.0115 -0.0235  1.1191
19385TIP3   OH279645   5.801   3.625   0.113 -0.0674  0.0531 -0.7548
19385TIP3    H179646   5.736   3.693   0.098 -2.4419 -1.6062  1.6529
19385TIP3    H279647   5.823   3.633   0.205 -0.9463 -2.8820 -0.2389
19386TIP3   OH279648   1.231   1.423   4.721 -0.7352 -0.5768  0.2249
19386TIP3    H179649   1.268   1.488   4.661 -0.9759 -1.8156 -1.2739
19386TIP3    H279650   1.240   1.464   4.807 -1.2604  1.6304 -0.7166
19387TIP3   OH279651   5.421   5.138   3.965  0.3145 -0.1290 -0.3557
19387TIP3    H179652   5.338   5.111   4.003  1.2177 -1.5753  0.6408
19387TIP3    H279653   5.427   5.232   3.985 -1.4329  0.1762 -1.1596
19388TIP3   OH279654   5.066   0.650   4.317 -0.8150  0.6557 -0.0370
19388TIP3    H179655   4.994   0.708   4.343 -2.1019 -1.2488  0.7740
19388TIP3    H279656   5.024   0.583   4.262  0.4348 -0.1467 -0.0331
19389TIP3   OH279657   5.519   3.909   3.108 -0.3462  0.0325 -0.2371
19389TIP3    H179658   5.496   3.831   3.159  1.2309 -0.4873 -0.2771
19389TIP3    H279659   5.436   3.942   3.075 -1.2390 -0.4651  1.4664
19390TIP3   OH279660   4.898   4.682   2.730 -0.5597 -0.4359  0.6758
19390TIP3    H179661   4.932   4.770   2.716 -1.4654 -0.3346 -0.9893
19390TIP3    H279662   4.814   4.680   2.685 -0.8131 -1.9775  1.1624
19391TIP3   OH279663   1.357   6.345   4.321 -0.5613  0.6209 -0.2827
19391TIP3    H179664   1.342   6.255   4.290  0.3286  0.4480 -0.2291
19391TIP3    H279665   1.320   6.401   4.252  0.0685  0.2276 -0.9415
19392TIP3   OH279666   3.086   2.174   6.246  0.1178 -0.4120 -0.0117
19392TIP3    H179667   3.072   2.266   6.267  2.0693  0.1472 -1.0275
19392TIP3    H279668   3.156   2.146   6.305  0.1673 -1.0067 -0.3473
19393TIP3   OH279669   2.326   5.098   0.196  0.0631 -0.3859  0.0408
19393TIP3    H179670   2.239   5.111   0.160 -0.1759 -2.8824 -0.3495
19393TIP3    H279671   2.386   5.117   0.124 -0.1183  1.3670  0.3213
19394TIP3   OH279672   3.149   2.275  14.957 -0.5466 -0.1000 -0.4555
19394TIP3    H179673   3.195   2.352  14.991  1.8568 -0.9374 -1.6836
19394TIP3    H279674   3.095   2.245  15.029  0.6569  1.0839  0.9633
19395TIP3   OH279675   1.276   1.083   2.708 -0.2278 -0.3471 -0.3035
19395TIP3    H179676   1.327   1.109   2.631  1.1283 -1.0654  0.3322
19395TIP3    H279677   1.324   1.122   2.782 -2.5282  1.9024  0.0633
19396TIP3   OH279678   3.268   0.631   3.987  0.3309 -0.0071 -0.0898
19396TIP3    H179679   3.288   0.634   3.893  1.3266  0.3120  0.1220
19396TIP3    H279680   3.346   0.669   4.029 -1.0390  1.9527  0.7347
19397TIP3   OH279681   2.240   6.364   6.428  0.3409  0.3501 -0.2955
19397TIP3    H179682   2.261   6.449   6.467  0.1035 -0.2574  1.2104
19397TIP3    H279683   2.159   6.337   6.473 -1.3649  0.7600 -3.0118
19398TIP3   OH279684   4.282   1.355  13.892 -0.2196 -0.2454  0.3934
19398TIP3    H179685   4.261   1.448  13.897 -0.2414 -0.3298  2.1610
19398TIP3    H279686   4.377   1.351  13.899 -0.1755 -0.3130 -0.2779
19399TIP3   OH279687   6.619   2.671   1.282  0.2594 -0.2202 -0.0155
19399TIP3    H179688   6.576   2.737   1.229  0.5218 -1.2950 -1.6159
19399TIP3    H279689   6.656   2.719   1.356 -0.2817  1.2789 -0.7043
19400TIP3   OH279690   5.781   5.817  12.163  0.0505 -0.4864  0.3816
19400TIP3    H179691   5.874   5.836  12.167  0.2240 -0.7419 -2.0066
19400TIP3    H279692   5.750   5.861  12.083 -2.1022  0.5454  1.7161
19401TIP3   OH279693   0.088   2.745   2.059  0.2551 -0.1672  0.6896
19401TIP3    H179694   0.183   2.740   2.071  0.1683  0.6202  1.7743
19401TIP3    H279695   0.056   2.783   2.141 -0.8635  0.7463 -0.1573
19402TIP3   OH279696   2.554   4.381   1.430  0.0076  0.7293 -0.0652
19402TIP3    H179697   2.524   4.361   1.519 -3.1167  2.0558 -0.7642
19402TIP3    H279698   2.504   4.322   1.374  0.3396  1.4221 -1.1093
19403TIP3   OH279699   5.482   0.149  13.286  0.0849  0.1472  0.7902
19403TIP3    H179700   5.404   0.146  13.230  1.0242  2.3074 -0.7177
19403TIP3    H279701   5.452   0.193  13.366 -1.0676 -2.2363  1.7320
19404TIP3   OH279702   2.795   6.544  11.978 -0.0271 -0.0927 -0.0263
19404TIP3    H179703   2.767   6.605  11.910 -0.1742  0.3914  0.4660
19404TIP3    H279704   2.871   6.499  11.940 -0.9903 -0.8541 -1.0550
19405TIP3   OH279705   1.826   1.899   5.187 -0.1364  0.0594  0.0922
19405TIP3    H179706   1.775   1.954   5.128  1.2125  0.0303 -1.1422
19405TIP3    H279707   1.917   1.926   5.173  0.2458 -0.1127  2.0017
19406TIP3   OH279708   4.209   5.540   4.362 -0.4608  0.0420 -0.0971
19406TIP3    H179709   4.293   5.533   4.316 -0.9079 -3.0850 -0.5320
19406TIP3    H279710   4.149   5.575   4.297  0.3376  1.6748  0.0180
19407TIP3   OH279711   3.071   2.183  17.236 -0.1375  0.4767 -0.1992
19407TIP3    H179712   3.006   2.126  17.276  0.7969  0.0237  0.6795
19407TIP3    H279713   3.034   2.271  17.243 -1.3651  0.0454 -1.1270
19408TIP3   OH279714   0.583   0.170   2.029  0.2197  0.2043  0.2836
19408TIP3    H179715   0.565   0.223   1.952 -0.6506  0.1420  0.4427
19408TIP3    H279716   0.522   0.096   2.023  1.2319 -0.6450  0.1992
19409TIP3   OH279717   6.306   2.969   0.653 -0.0695 -0.0456 -0.7742
19409TIP3    H179718   6.363   2.971   0.575 -1.9847  2.2281 -2.1838
19409TIP3    H279719   6.234   2.912   0.629 -1.8111  2.3980 -1.5734
19410TIP3   OH279720   1.732   1.627  12.880  0.1840  0.2554 -0.0312
19410TIP3    H179721   1.677   1.659  12.952  1.4469 -1.1443  1.6018
19410TIP3    H279722   1.806   1.687  12.879 -0.5519  1.1494 -1.1368
19411TIP3   OH279723   0.439   0.357  15.580 -0.4333 -0.4811  0.0650
19411TIP3    H179724   0.475   0.384  15.495 -0.3627 -1.1572 -0.1243
19411TIP3    H279725   0.363   0.303  15.558 -1.0216  0.1843  0.4532
19412TIP3   OH279726   5.197   1.792  11.122 -0.2033 -0.1464  0.0936
19412TIP3    H179727   5.191   1.807  11.027 -0.5264 -0.8543 -0.0011
19412TIP3    H279728   5.199   1.879  11.160  0.0331  0.1466 -0.5758
19413TIP3   OH279729   1.561   5.626   4.061  0.0932  0.7085 -0.1353
19413TIP3    H179730   1.541   5.649   3.971  0.4156  2.0861  0.1326
19413TIP3    H279731   1.614   5.699   4.094 -0.9094  0.7493  1.4761
19414TIP3   OH279732   4.259   1.209  11.466 -0.2462 -0.1249 -0.4844
19414TIP3    H179733   4.212   1.290  11.450  1.2532  0.7509 -0.5638
19414TIP3    H279734   4.234   1.152  11.394  0.1004  0.9033 -1.4233
19415TIP3   OH279735   0.158   1.003   2.658  0.1381 -0.3221  0.1985
19415TIP3    H179736   0.225   1.028   2.722  0.4385 -0.4917 -0.0454
19415TIP3    H279737   0.179   1.056   2.581 -0.2316 -0.1065  0.2471
19416TIP3   OH279738   3.648   2.642   5.161  0.7410  0.3131  0.4970
19416TIP3    H179739   3.677   2.605   5.244 -1.8224  0.7365  1.6296
19416TIP3    H279740   3.620   2.731   5.183 -1.6924 -0.1699 -0.4219
19417TIP3   OH279741   5.273   6.057  15.938  0.2445 -0.2573 -0.5612
19417TIP3    H179742   5.215   6.124  15.900  1.1727 -0.3046 -2.1115
19417TIP3    H279743   5.360   6.096  15.933  0.9195 -1.9390 -2.3405
19418TIP3   OH279744   3.114   3.511   1.453  0.4241 -0.1134  0.0320
19418TIP3    H179745   3.177   3.572   1.490  0.8244 -0.5437  0.0653
19418TIP3    H279746   3.069   3.561   1.384  0.4756  0.3328  0.3205
19419TIP3   OH279747   3.188   3.691   3.830 -0.2024  0.0181  0.6863
19419TIP3    H179748   3.193   3.770   3.777 -1.7025  0.2084  0.8014
19419TIP3    H279749   3.266   3.641   3.807 -1.5217 -0.5781 -2.7586
19420TIP3   OH279750   0.378   5.404   4.052 -0.3755  0.6507  0.1832
19420TIP3    H179751   0.364   5.404   4.147  0.4455 -0.0470  0.3118
19420TIP3    H279752   0.473   5.409   4.042 -0.5311  2.1465 -0.6293
19421TIP3   OH279753   4.282   1.702   5.365 -0.1253 -0.5905  0.4582
19421TIP3    H179754   4.217   1.682   5.432 -0.2610  1.8571  1.1009
19421TIP3    H279755   4.359   1.732   5.414  0.7293 -1.3253 -0.3959
19422TIP3   OH279756   1.558   3.746  16.038 -0.5141 -0.1367  0.9580
19422TIP3    H179757   1.652   3.753  16.026 -0.4750 -0.9898  0.7574
19422TIP3    H279758   1.546   3.668  16.093 -1.1653 -0.7186  0.0150
19423TIP3   OH279759   3.115   1.729   2.496  0.7890 -0.3848  0.4720
19423TIP3    H179760   3.162   1.762   2.419 -0.5663  0.2210 -0.1190
19423TIP3    H279761   3.124   1.634   2.490  0.9317 -0.3294 -0.2796
19424TIP3   OH279762   5.352   3.330  11.993 -0.0623  0.4437 -0.2086
19424TIP3    H179763   5.365   3.369  12.080  0.4659 -0.9217  0.3362
19424TIP3    H279764   5.345   3.405  11.934 -0.2600  1.3841  0.9898
19425TIP3   OH279765   2.148   2.945   3.509 -0.7711 -0.1881  0.7667
19425TIP3    H179766   2.124   3.038   3.511  1.5614  0.5389 -1.6944
19425TIP3    H279767   2.119   2.910   3.593 -1.5985  2.7910  1.7594
19426TIP3   OH279768   2.574   3.690  11.699 -0.4213  0.5039 -0.1879
19426TIP3    H179769   2.521   3.722  11.626 -1.9690 -0.9650  0.2477
19426TIP3    H279770   2.616   3.768  11.735 -1.6220  1.5936 -1.0931
19427TIP3   OH279771   0.744   2.601   4.188  0.4822 -0.0090 -0.8257
19427TIP3    H179772   0.658   2.637   4.211  1.4852  3.0096 -1.5895
19427TIP3    H279773   0.738   2.509   4.211 -2.0605  0.7117  1.7073
19428TIP3   OH279774   6.305   1.062   1.971 -0.4987 -0.2248  0.2426
19428TIP3    H179775   6.373   1.012   1.926  3.9476  2.4184  3.5241
19428TIP3    H279776   6.297   1.020   2.056 -1.2524  0.8942  0.7306
19429TIP3   OH279777   1.305   0.069   6.004 -0.1060 -0.3632  0.1557
19429TIP3    H179778   1.261   0.035   6.082  1.1665  0.5839  1.3174
19429TIP3    H279779   1.399   0.060   6.025  0.2426  1.9171 -0.3540
19430TIP3   OH279780   2.756   6.502   2.607  0.3170 -0.4722  0.3068
19430TIP3    H179781   2.723   6.584   2.570  0.6255 -0.1594  0.7228
19430TIP3    H279782   2.732   6.435   2.542 -1.1437 -0.2555  0.6057
19431TIP3   OH279783   3.235   3.491   1.781  0.7833  0.1987 -0.2050
19431TIP3    H179784   3.302   3.486   1.712 -0.8414  0.3890 -1.8404
19431TIP3    H279785   3.199   3.402   1.785 -0.2116  0.5748 -0.7236
19432TIP3   OH279786   5.436   2.483   0.241 -0.4060 -0.2333 -0.0343
19432TIP3    H179787   5.448   2.389   0.248  2.2508  0.0390 -0.4518
19432TIP3    H279788   5.404   2.510   0.327 -0.5135 -1.4091  0.2982
19433TIP3   OH279789   0.014   2.424  16.581 -0.6248 -0.0064 -0.1513
19433TIP3    H179790   0.087   2.362  16.578  1.6583  2.6737 -1.3560
19433TIP3    H279791   0.030   2.484  16.508 -4.7639 -0.0925 -1.2831
19434TIP3   OH279792   3.136   1.246   6.522  0.1308  0.0533  0.0287
19434TIP3    H179793   3.205   1.261   6.457 -0.7916  0.5811 -0.8414
19434TIP3    H279794   3.093   1.331   6.532 -0.3710 -0.2614  0.6005
19435TIP3   OH279795   2.616   5.976  12.041 -0.2091 -0.2470 -0.2694
19435TIP3    H179796   2.577   5.941  11.961  0.4566 -0.9075 -0.3094
19435TIP3    H279797   2.670   5.905  12.074 -2.7162 -1.0317  2.3544
19436TIP3   OH279798   1.625   5.409   2.297 -0.3493 -0.3622  0.4951
19436TIP3    H179799   1.661   5.327   2.332  0.5693  0.1443  0.7563
19436TIP3    H279800   1.702   5.465   2.284 -0.8776  0.1448 -0.5256
19437TIP3   OH279801   2.571   2.772   1.667 -0.5646 -0.4538 -0.0320
19437TIP3    H179802   2.493   2.794   1.718  0.3496  1.6698  0.5256
19437TIP3    H279803   2.557   2.817   1.583 -1.2880 -2.5300 -1.0424
19438TIP3   OH279804   0.426   0.492  15.920  0.4547 -0.5275 -0.6500
19438TIP3    H179805   0.338   0.502  15.884 -0.1903 -1.8001  0.5490
19438TIP3    H279806   0.426   0.544  16.000  1.4775  1.2248 -1.7682
19439TIP3   OH279807   5.371   2.527   0.508  0.1318  0.1336 -0.0731
19439TIP3    H179808   5.294   2.580   0.488 -0.1967  0.2603  1.4360
19439TIP3    H279809   5.352   2.489   0.594  0.8833 -1.4605 -0.5853
19440TIP3   OH279810   4.321   2.092  13.729  0.7846  0.5982  0.4550
19440TIP3    H179811   4.331   2.040  13.649  0.1557  2.5792 -0.9443
19440TIP3    H279812   4.407   2.087  13.772  1.0929 -0.5726 -0.2794
19441TIP3   OH279813   1.388   3.072  11.865  0.0930 -0.2571  0.1147
19441TIP3    H179814   1.476   3.053  11.833 -0.0037  0.0147 -0.3110
19441TIP3    H279815   1.394   3.161  11.900 -0.0407 -0.1966 -0.0172
19442TIP3   OH279816   0.567   5.194  12.632 -0.0620 -0.5208 -0.6201
19442TIP3    H179817   0.537   5.264  12.690  0.8854 -2.4831  2.3929
19442TIP3    H279818   0.492   5.135  12.626  0.3500 -1.1232 -0.0256
19443TIP3   OH279819   2.570   1.748   0.636 -0.5266 -0.1505 -0.1370
19443TIP3    H179820   2.637   1.683   0.658  0.7046  0.8876 -0.7520
19443TIP3    H279821   2.528   1.714   0.558 -1.0295 -1.0289  0.5052
19444TIP3   OH279822   0.640   5.065  17.114 -0.1620  0.1715  0.3178
19444TIP3    H179823   0.615   4.994  17.054 -0.1962 -0.6176  1.2586
19444TIP3    H279824   0.572   5.065  17.181  1.5536 -1.0584  2.1089
19445TIP3   OH279825   6.038   6.234  17.015  0.3513 -0.0497 -0.2335
19445TIP3    H179826   6.000   6.149  16.995  1.5980 -0.6440 -0.1380
19445TIP3    H279827   6.043   6.236  17.111  0.5975  0.0087 -0.2470
19446TIP3   OH279828   4.816   4.782  11.385  0.3484  0.5280  0.3135
19446TIP3    H179829   4.823   4.735  11.467 -0.5012  1.0725  0.7067
19446TIP3    H279830   4.805   4.874  11.411  1.4569  0.8892 -0.4290
19447TIP3   OH279831   3.746   1.555  15.732 -0.8819 -0.3997 -0.6092
19447TIP3    H179832   3.725   1.570  15.825  2.0492 -0.0339  0.0232
19447TIP3    H279833   3.717   1.466  15.715  2.9216 -2.2807  2.0422
19448TIP3   OH279834   1.953   0.363  15.815  0.0369  0.0910  0.0360
19448TIP3    H179835   1.884   0.324  15.762 -0.1654 -0.0227  0.3786
19448TIP3    H279836   1.907   0.422  15.875  0.2278 -0.0188  0.2959
19449TIP3   OH279837   2.879   6.597  17.105 -0.0687 -0.2130  0.0695
19449TIP3    H179838   2.959   6.548  17.121 -0.0463 -0.1945  0.0160
19449TIP3    H279839   2.808   6.537  17.129 -0.0827 -0.8228 -1.4650
19450TIP3   OH279840   3.975   4.694   2.367  0.3009  0.3146  0.7676
19450TIP3    H179841   3.993   4.611   2.323 -0.2571  0.6581 -0.1115
19450TIP3    H279842   3.940   4.751   2.299 -0.2917  0.9439  1.5845
19451TIP3   OH279843   0.164   3.650  13.547  0.4892 -0.6742 -0.0860
19451TIP3    H179844   0.236   3.691  13.499  0.8891 -0.1139  0.9879
19451TIP3    H279845   0.199   3.636  13.635 -0.9744  0.3492  0.6751
19452TIP3   OH279846   0.622   0.069  16.045  0.4349  0.1606  0.1681
19452TIP3    H179847   0.710   0.106  16.047  0.6293 -0.2258 -0.8981
19452TIP3    H279848   0.574   0.124  15.984  0.1035 -0.0121  0.2700
19453TIP3   OH279849   1.071   3.889   2.275 -0.1184  0.2864 -0.1633
19453TIP3    H179850   1.132   3.927   2.338  0.4708 -0.4328 -0.3038
19453TIP3    H279851   1.035   3.965   2.228  2.2791  0.5819 -1.5733
19454TIP3   OH279852   5.994   4.144  12.690  0.1046  0.9339  0.0628
19454TIP3    H179853   5.955   4.229  12.669 -2.0935 -0.1873 -0.6496
19454TIP3    H279854   5.928   4.081  12.660  2.5970 -1.0703 -1.3284
19455TIP3   OH279855   0.543   1.205   3.114 -0.1771 -0.4514  0.3320
19455TIP3    H179856   0.474   1.184   3.178 -0.7012 -0.3897 -0.2064
19455TIP3    H279857   0.562   1.121   3.072 -1.3154 -0.1135 -0.8817
19456TIP3   OH279858   3.149   4.974  10.715  0.3330 -0.5752  0.0476
19456TIP3    H179859   3.242   4.976  10.694  0.3260  2.6679  0.1819
19456TIP3    H279860   3.105   5.005  10.636 -0.5795 -1.2130  0.2910
19457TIP3   OH279861   0.329   1.310  12.790 -0.1870  0.8101 -0.5989
19457TIP3    H179862   0.257   1.353  12.836 -0.2428 -1.8212  1.8582
19457TIP3    H279863   0.286   1.259  12.722 -0.4685  0.9597 -0.5351
19458TIP3   OH279864   6.525   1.430  12.637 -0.0228 -0.8333 -0.6161
19458TIP3    H179865   6.438   1.394  12.650 -0.0976 -1.0443 -1.6291
19458TIP3    H279866   6.516   1.523  12.657 -0.9115 -0.5023 -2.3981
19459TIP3   OH279867   5.589   2.250  15.072  0.4084  0.2924 -0.8126
19459TIP3    H179868   5.504   2.268  15.031  0.4313  1.5353 -0.3384
19459TIP3    H279869   5.643   2.217  15.000 -0.3708 -0.1904 -1.1932
19460TIP3   OH279870   5.727   0.910  14.480 -0.3090 -0.2666 -0.6717
19460TIP3    H179871   5.695   0.984  14.532  0.5829 -0.7980  0.6857
19460TIP3    H279872   5.770   0.950  14.404  1.8372  0.7429  1.0093
19461TIP3   OH279873   2.083   5.797  15.754 -0.2209  0.2010  0.4643
19461TIP3    H179874   2.125   5.875  15.716 -0.7077  0.4812  0.4922
19461TIP3    H279875   2.015   5.833  15.811 -3.7692 -0.2918 -3.2581
19462TIP3   OH279876   6.730   1.403  13.529  0.0137 -0.7296  0.3318
19462TIP3    H179877   6.687   1.329  13.486 -0.8385 -0.1835  0.2181
19462TIP3    H279878   6.815   1.410  13.487 -0.3851 -0.8847 -0.5043
19463TIP3   OH279879   3.817   4.014   3.341 -0.3943 -0.4572  0.0521
19463TIP3    H179880   3.832   3.922   3.321  0.0001  0.0816 -2.2278
19463TIP3    H279881   3.869   4.062   3.276  0.8061  1.3776  2.2898
19464TIP3   OH279882   2.008   3.535   1.353 -0.4536  0.6394 -0.2954
19464TIP3    H179883   1.983   3.627   1.345 -1.1497  0.9545  4.0793
19464TIP3    H279884   2.104   3.536   1.345 -0.2217  2.1631  1.9880
19465TIP3   OH279885   4.078   1.805   2.004 -0.3968  0.2270  0.6874
19465TIP3    H179886   3.983   1.793   1.994 -0.6974  1.9370  1.2909
19465TIP3    H279887   4.091   1.899   1.991  1.2884 -0.0769  0.1113
19466TIP3   OH279888   6.238   3.174   2.070 -0.9533  0.2069 -0.0141
19466TIP3    H179889   6.213   3.150   2.160 -0.2645 -0.5966 -0.0310
19466TIP3    H279890   6.227   3.094   2.019 -1.0500  0.5831 -0.5884
19467TIP3   OH279891   6.122   3.787  15.846  0.4360  0.3515  0.4948
19467TIP3    H179892   6.127   3.692  15.862  1.5383  0.3180 -0.0056
19467TIP3    H279893   6.214   3.815  15.841  0.1064  1.2115 -0.7961
19468TIP3   OH279894   4.322   4.109   2.574  0.3597  0.1526  0.4755
19468TIP3    H179895   4.272   4.036   2.538  1.1254  0.4356 -1.1980
19468TIP3    H279896   4.320   4.176   2.506 -0.0191  1.5733  1.8282
19469TIP3   OH279897   2.180   0.616   0.026 -0.0940  0.0743 -0.3616
19469TIP3    H179898   2.130   0.545  -0.015 -0.0575  0.8573 -1.7814
19469TIP3    H279899   2.210   0.578   0.109  0.9615 -1.9832 -1.6386
19470TIP3   OH279900   1.762   3.343   2.919  0.0610 -0.5222  0.2367
19470TIP3    H179901   1.819   3.335   2.842 -0.6425  0.0933 -0.3497
19470TIP3    H279902   1.720   3.428   2.909 -0.9151 -0.9449  0.7099
19471TIP3   OH279903   0.968   5.108  15.585 -0.7883  0.4035  0.6610
19471TIP3    H179904   1.050   5.103  15.536  0.0284  1.9398  1.8224
19471TIP3    H279905   0.907   5.153  15.525 -0.3240  0.6728  0.3868
19472TIP3   OH279906   0.158   0.109  13.580 -0.4759 -0.8132  0.1488
19472TIP3    H179907   0.182   0.176  13.644 -4.1873 -1.2234  2.1336
19472TIP3    H279908   0.180   0.148  13.495 -0.5458  2.0432  1.3853
19473TIP3   OH279909   2.546   3.538   4.389  0.1240  0.5439 -0.3645
19473TIP3    H179910   2.514   3.610   4.444  0.9044  0.7831 -0.2128
19473TIP3    H279911   2.513   3.459   4.430 -0.3833  0.7936 -0.2874
19474TIP3   OH279912   3.669   6.187   6.079  0.4921 -0.1410  0.2535
19474TIP3    H179913   3.606   6.126   6.041 -0.6728  1.0272  0.2671
19474TIP3    H279914   3.615   6.258   6.115  1.7126  0.0154  1.8325
19475TIP3   OH279915   5.304   2.470  11.837 -0.1000  0.4833  0.3903
19475TIP3    H179916   5.397   2.479  11.857 -0.5407  2.3131  1.7226
19475TIP3    H279917   5.292   2.521  11.756 -0.9140  4.9700  3.1648
19476TIP3   OH279918   2.454   0.318  14.159  0.2250 -0.3403 -0.2768
19476TIP3    H179919   2.412   0.374  14.093 -1.4093  1.3784  2.1063
19476TIP3    H279920   2.394   0.322  14.234  2.4622 -1.4968  1.6206
19477TIP3   OH279921   3.378   1.883  14.615  0.3766 -0.4893 -0.9577
19477TIP3    H179922   3.348   1.808  14.667 -1.4342  0.1358 -1.0352
19477TIP3    H279923   3.322   1.955  14.644  1.9640  0.7986 -1.0106
19478TIP3   OH279924   5.800   6.372   1.532  0.2222  0.2791  0.3275
19478TIP3    H179925   5.859   6.350   1.459 -3.0276 -1.6946 -1.8565
19478TIP3    H279926   5.785   6.466   1.522 -0.3764 -0.0071 -1.7349
19479TIP3   OH279927   3.488   3.362   5.131  0.3345  0.2363 -0.1351
19479TIP3    H179928   3.536   3.431   5.176 -1.4622  2.0101 -0.8765
19479TIP3    H279929   3.480   3.292   5.196  0.9627  1.2756  1.0780
19480TIP3   OH279930   0.267   2.732   0.586  0.1382 -0.7778 -0.0823
19480TIP3    H179931   0.230   2.653   0.546 -1.5506 -0.0487 -0.0242
19480TIP3    H279932   0.240   2.803   0.527  1.8318 -0.2680 -0.2560
19481TIP3   OH279933   1.395   5.848  11.821  0.0391  0.7465  0.1357
19481TIP3    H179934   1.329   5.883  11.881  0.1499 -1.8438  1.8462
19481TIP3    H279935   1.362   5.761  11.797  2.5187 -0.3545  0.5481
19482TIP3   OH279936   1.908   3.953   3.036 -0.4585  0.3367 -0.2867
19482TIP3    H179937   1.879   3.963   3.127  2.5667  1.2842  0.6488
19482TIP3    H279938   1.884   4.035   2.994 -1.0694  0.2489 -0.1118
19483TIP3   OH279939   4.716   1.285   0.673 -0.2507  0.5670 -0.1711
19483TIP3    H179940   4.659   1.232   0.618 -0.7411  0.8177  0.0858
19483TIP3    H279941   4.799   1.289   0.625 -0.3060 -0.1708 -0.3343
19484TIP3   OH279942   5.902   1.312  16.017  0.6571  0.2843  0.3291
19484TIP3    H179943   5.832   1.275  16.071 -0.7961  1.5236 -0.6356
19484TIP3    H279944   5.858   1.334  15.934  2.0204  1.7867 -0.0180
19485TIP3   OH279945   3.213   4.832   0.896  0.6972 -0.3444  0.6059
19485TIP3    H179946   3.207   4.842   0.801  0.6071 -1.2934  0.5015
19485TIP3    H279947   3.123   4.843   0.927  0.3643 -2.0790  0.3492
19486TIP3   OH279948   0.211   6.494  13.617 -0.5379  0.0870 -0.0721
19486TIP3    H179949   0.300   6.478  13.649 -0.5028  1.0632  0.3088
19486TIP3    H279950   0.223   6.530  13.529 -0.5859 -0.6389 -0.3834
19487TIP3   OH279951   5.916   5.153   4.847 -0.3419  0.1293  0.4942
19487TIP3    H179952   5.846   5.137   4.910 -1.7386 -1.5515 -1.4254
19487TIP3    H279953   5.878   5.214   4.783  0.1377 -0.2941 -0.2078
19488TIP3   OH279954   2.198   5.065   2.002  0.1997 -1.1470  0.2271
19488TIP3    H179955   2.232   4.977   2.016  0.6133 -0.8177  1.3366
19488TIP3    H279956   2.275   5.117   1.980  0.2636 -0.6549  1.5473
19489TIP3   OH279957   1.834   5.904  11.392 -0.0951  0.3739  0.4452
19489TIP3    H179958   1.901   5.843  11.421  1.8594  1.6865 -1.1551
19489TIP3    H279959   1.770   5.849  11.347  0.5913 -0.7566  0.8258
19490TIP3   OH279960   1.378   3.733  15.230  0.1178  0.1570  0.0721
19490TIP3    H179961   1.403   3.645  15.202  3.0941  0.6489  1.0091
19490TIP3    H279962   1.424   3.792  15.170  0.1451  1.0797  0.9666
19491TIP3   OH279963   4.435   5.194   5.658  0.3854  0.2755  0.3559
19491TIP3    H179964   4.471   5.282   5.647  1.6938 -0.5517 -2.3867
19491TIP3    H279965   4.341   5.208   5.667  0.6271  1.9838  0.4494
19492TIP3   OH279966   6.760   0.924   6.254  0.2039  0.3942 -0.4255
19492TIP3    H179967   6.759   0.912   6.159  1.9158  1.0880 -0.5531
19492TIP3    H279968   6.840   0.879   6.283  0.4349  1.3856  0.5077
19493TIP3   OH279969   0.655   6.000   0.157  0.0742  0.2330 -0.2878
19493TIP3    H179970   0.658   6.095   0.147 -2.0318  0.3312 -0.1557
19493TIP3    H279971   0.685   5.984   0.247  2.6804  0.5573 -1.0355
19494TIP3   OH279972   1.930   0.003  17.118 -0.2455 -0.7714  0.0588
19494TIP3    H179973   1.973  -0.039  17.193 -1.1077  0.0082  1.0026
19494TIP3    H279974   1.838   0.009  17.143 -0.2713  0.9461 -0.3946
19495TIP3   OH279975   1.432   1.383   6.725  0.2165 -0.2171 -0.3986
19495TIP3    H179976   1.419   1.296   6.687 -1.2958  0.0734 -0.6129
19495TIP3    H279977   1.368   1.438   6.679 -1.6379  0.1749  2.5169
19496TIP3   OH279978   1.487   1.821  11.874  0.0725 -0.0635  0.3408
19496TIP3    H179979   1.546   1.832  11.948 -0.9124 -1.1486  1.3101
19496TIP3    H279980   1.543   1.832  11.797  1.9694 -2.8794  1.2093
19497TIP3   OH279981   3.878   6.382   0.324  0.0976 -0.6396 -0.2262
19497TIP3    H179982   3.961   6.404   0.281  0.2886 -1.4588 -0.2696
19497TIP3    H279983   3.862   6.291   0.301 -0.9063 -0.4350 -0.3601
19498TIP3   OH279984   1.641   3.599   2.283 -0.2256 -0.1135 -0.0679
19498TIP3    H179985   1.724   3.601   2.330  0.2161 -1.1375 -0.7871
19498TIP3    H279986   1.598   3.682   2.305  0.8516  0.2766  0.5484
19499TIP3   OH279987   6.441   1.526  15.588 -0.8058  0.0940 -0.0555
19499TIP3    H179988   6.461   1.586  15.517 -1.4890  0.0536 -0.2830
19499TIP3    H279989   6.509   1.543  15.654  0.7209 -0.9203 -1.3350
19500TIP3   OH279990   0.105   2.760  16.318  0.2978 -0.1161 -0.0032
19500TIP3    H179991   0.032   2.746  16.379 -0.2331 -0.8174 -0.7914
19500TIP3    H279992   0.131   2.851  16.333 -1.6339  0.5804 -0.6940
19501TIP3   OH279993   5.326   4.505   3.026  0.3343 -0.2383  0.2699
19501TIP3    H179994   5.361   4.555   3.101 -0.7512 -0.2845  0.8160
19501TIP3    H279995   5.282   4.430   3.066 -0.6988  0.0093 -0.4024
19502TIP3   OH279996   3.792   1.188   2.079 -0.0611 -0.6827  0.3416
19502TIP3    H179997   3.808   1.280   2.098  0.4184 -0.4185 -1.2171
19502TIP3    H279998   3.869   1.143   2.113  0.4411 -0.3132 -0.2813
19503TIP3   OH279999   5.160   5.577  13.998 -0.3174 -0.0445 -0.4617
19503TIP3    H180000   5.172   5.654  14.053  0.5175  1.0492 -2.1100
19503TIP3    H280001   5.237   5.523  14.015  1.0959  1.3608 -2.2007
19504TIP3   OH280002   1.803   0.199  13.397 -0.3375  0.4949 -0.4407
19504TIP3    H180003   1.859   0.156  13.462 -3.7048 -2.6099  0.5541
19504TIP3    H280004   1.749   0.260  13.447 -1.8693 -0.7755 -0.5234
19505TIP3   OH280005   3.300   5.527   6.294  0.3232 -0.2064 -0.3865
19505TIP3    H180006   3.207   5.549   6.306  0.0918 -0.4845 -1.6165
19505TIP3    H280007   3.344   5.568   6.369 -0.1804  4.0233 -2.2103
19506TIP3   OH280008   2.717   5.579   0.421  0.1079  0.1972  0.1914
19506TIP3    H180009   2.682   5.553   0.506  0.2816  1.5064  0.6679
19506TIP3    H280010   2.726   5.496   0.373 -0.4075 -0.5031  1.2762
19507TIP3   OH280011   2.458   2.584  11.134  0.0097 -0.5523 -0.8648
19507TIP3    H180012   2.552   2.569  11.139  0.2320  0.4586 -1.8194
19507TIP3    H280013   2.425   2.511  11.081  0.5412  0.1485 -2.1941
19508TIP3   OH280014   3.921   3.195  12.182 -0.1582 -0.5620 -0.0492
19508TIP3    H180015   3.905   3.139  12.257 -1.5140 -0.0835  0.0266
19508TIP3    H280016   3.955   3.276  12.220 -0.2580 -0.5442  0.0014
19509TIP3   OH280017   4.087   0.566  14.436  0.5092  0.3590  0.4463
19509TIP3    H180018   4.020   0.583  14.370  0.0038 -0.5974  0.7173
19509TIP3    H280019   4.129   0.651  14.450 -0.7415  0.9848  0.3933
19510TIP3   OH280020   5.980   1.912   2.282 -0.0838  0.0430  0.2006
19510TIP3    H180021   6.004   2.001   2.258  0.1959 -0.8748 -3.1060
19510TIP3    H280022   5.932   1.922   2.365 -0.3906  3.2644 -0.2969
19511TIP3   OH280023   5.719   6.484  15.608 -0.2854  0.3617 -0.0818
19511TIP3    H180024   5.717   6.396  15.647  1.1579  1.1258  1.8439
19511TIP3    H280025   5.724   6.469  15.514  0.8564 -1.6625  0.2637
19512TIP3   OH280026   2.199   5.022   2.354  0.2806 -0.4513  0.8084
19512TIP3    H180027   2.233   5.107   2.382 -0.6066 -0.3850  1.7083
19512TIP3    H280028   2.233   5.010   2.265  2.1478 -0.1032  1.4470
19513TIP3   OH280029   1.606   3.072  11.707 -0.5655 -0.0555 -0.2570
19513TIP3    H180030   1.607   3.067  11.611 -0.4301  0.1109 -0.2648
19513TIP3    H280031   1.667   3.143  11.728 -0.9028  0.1798 -0.0648
19514TIP3   OH280032   5.172   3.956  13.253  0.2597 -0.1411 -0.6290
19514TIP3    H180033   5.129   3.908  13.183 -1.6274 -1.3357  1.2856
19514TIP3    H280034   5.237   3.894  13.289  0.7938  0.2494 -0.9119
19515TIP3   OH280035   0.385   3.152  15.767  0.0249 -0.1861  0.0000
19515TIP3    H180036   0.473   3.177  15.740  0.8777 -0.7064  2.2243
19515TIP3    H280037   0.391   3.059  15.789 -1.1754 -0.3317 -0.2304
19516TIP3   OH280038   1.785   0.823   2.317 -0.1833  0.6809  0.3954
19516TIP3    H180039   1.799   0.790   2.406 -0.8099 -0.5830  0.0381
19516TIP3    H280040   1.872   0.846   2.286  0.0450  1.1355  1.3416
19517TIP3   OH280041   0.297   5.271   1.133 -0.2025  0.3778  0.5871
19517TIP3    H180042   0.303   5.257   1.038 -1.6606  0.8308  0.4254
19517TIP3    H280043   0.243   5.200   1.165 -0.4590  0.7376  0.9569
19518TIP3   OH280044   5.955   2.328   1.175  0.5529  0.1768 -0.0940
19518TIP3    H180045   6.034   2.292   1.215  0.1399 -0.7882 -0.1344
19518TIP3    H280046   5.883   2.287   1.223  0.0649  1.1884  0.0640
19519TIP3   OH280047   6.721   1.094  14.494  0.2771  0.5739 -0.3712
19519TIP3    H180048   6.630   1.118  14.509  0.3839  2.2578 -2.2865
19519TIP3    H280049   6.772   1.162  14.540  0.5611  1.3132 -1.7574
19520TIP3   OH280050   5.958   2.369  15.933  0.5034 -0.3941  1.0551
19520TIP3    H180051   5.991   2.459  15.937 -0.1052 -0.1575  0.7979
19520TIP3    H280052   6.004   2.330  15.859 -1.1537  0.4933 -0.4689
19521TIP3   OH280053   1.943   4.578  12.854 -0.5649 -0.0792  0.8126
19521TIP3    H180054   1.881   4.619  12.914 -1.5712  0.4949 -0.5878
19521TIP3    H280055   1.888   4.532  12.791  0.3824  1.5356 -1.2300
19522TIP3   OH280056   6.462   1.046   2.995  0.3852  0.4000 -0.4867
19522TIP3    H180057   6.411   1.093   3.061  1.8014  1.0222  0.1810
19522TIP3    H280058   6.414   1.059   2.913 -1.5157 -0.5557  0.4242
19523TIP3   OH280059   6.712   4.882   4.598  0.4631  0.5387 -0.5949
19523TIP3    H180060   6.746   4.811   4.653 -1.4394  0.6769  0.8334
19523TIP3    H280061   6.786   4.942   4.588  1.2490 -0.1927  0.6787
19524TIP3   OH280062   5.325   6.068   1.619 -0.5390 -0.3479 -0.4071
19524TIP3    H180063   5.339   6.151   1.574 -0.8016 -0.0352  0.0716
19524TIP3    H280064   5.235   6.044   1.597 -0.3431 -0.6965 -0.8427
19525TIP3   OH280065   6.386   6.625  15.933  0.0622 -0.2950  0.1808
19525TIP3    H180066   6.402   6.697  15.872  2.6133  0.8376  2.1238
19525TIP3    H280067   6.424   6.548  15.891  3.6914  0.8714  1.2019
19526TIP3   OH280068   2.539   1.436  16.944 -0.2938 -0.0182 -0.1649
19526TIP3    H180069   2.616   1.451  17.000  0.0714 -0.8473 -0.4291
19526TIP3    H280070   2.482   1.511  16.960  1.9533  2.2100 -2.3266
19527TIP3   OH280071   6.686   2.283  17.182  0.4323  0.1810  0.3542
19527TIP3    H180072   6.729   2.212  17.135  0.0366 -0.3290  0.7710
19527TIP3    H280073   6.680   2.354  17.117  0.6548 -0.2229 -0.1094
19528TIP3   OH280074   5.860   3.988  13.991  0.3437 -0.7210 -0.1492
19528TIP3    H180075   5.888   4.079  13.980 -0.8601 -0.2141  0.8019
19528TIP3    H280076   5.917   3.954  14.060  1.3218 -0.9411 -1.0479
19529TIP3   OH280077   0.169   3.330   3.602 -0.3708  0.0810 -0.0153
19529TIP3    H180078   0.099   3.356   3.542  0.7086  0.9933 -0.9170
19529TIP3    H280079   0.208   3.413   3.630 -0.2866 -0.3801  1.2519
19530TIP3   OH280080   4.944   2.154  13.967  0.3670  0.9172 -0.1819
19530TIP3    H180081   5.036   2.172  13.946  0.6481 -0.3179 -0.0004
19530TIP3    H280082   4.899   2.163  13.883  0.7321  1.0241 -0.3670
19531TIP3   OH280083   3.851   5.311  11.511 -0.0775 -0.5930  0.2493
19531TIP3    H180084   3.937   5.284  11.543  0.2742 -0.7166 -0.7738
19531TIP3    H280085   3.797   5.233  11.518 -0.8903  0.1869  3.4807
19532TIP3   OH280086   4.249   0.171  13.612  0.2382 -0.2680  0.1196
19532TIP3    H180087   4.246   0.225  13.533 -0.6024 -0.4442  0.0355
19532TIP3    H280088   4.263   0.233  13.683  1.0325 -0.1109 -0.1610
19533TIP3   OH280089   0.695   6.405   5.132  0.5778 -0.1382  0.2941
19533TIP3    H180090   0.777   6.364   5.160  1.2445  1.8518  1.2699
19533TIP3    H280091   0.708   6.498   5.147 -0.6242  0.5573 -2.6639
19534TIP3   OH280092   4.633   0.866   3.132 -0.0402 -0.3154  1.0445
19534TIP3    H180093   4.635   0.962   3.129  3.5204 -0.3828 -1.9475
19534TIP3    H280094   4.700   0.843   3.196 -0.2236 -0.8191  1.0550
19535TIP3   OH280095   1.884   0.712   4.771 -0.2712 -0.1665  0.1316
19535TIP3    H180096   1.859   0.666   4.851 -0.0962  0.1657  0.3791
19535TIP3    H280097   1.834   0.794   4.775  1.3014  0.7610  0.9089
19536TIP3   OH280098   4.489   0.706  13.856 -0.5059 -0.2855  0.3187
19536TIP3    H180099   4.568   0.656  13.875 -0.7471 -1.1795 -0.9653
19536TIP3    H280100   4.435   0.696  13.935 -0.3679 -1.7142  0.2537
19537TIP3   OH280101   5.966   5.117   4.259  0.4643 -0.4419  0.1454
19537TIP3    H180102   5.890   5.060   4.248 -1.4050  1.9237  0.3919
19537TIP3    H280103   5.967   5.170   4.179  1.6625 -0.2290  0.2971
19538TIP3   OH280104   5.304   6.380   1.804 -0.4224 -0.4010  0.0742
19538TIP3    H180105   5.268   6.465   1.779 -0.1928 -0.4186 -0.3247
19538TIP3    H280106   5.358   6.354   1.729 -0.7325 -1.0356  0.0670
19539TIP3   OH280107   1.839   0.671   6.911 -0.0134  0.0540  0.0105
19539TIP3    H180108   1.866   0.704   6.997  1.5724 -0.8138 -0.1359
19539TIP3    H280109   1.827   0.750   6.858  0.0816  0.5495  0.7225
19540TIP3   OH280110   6.219   4.641  12.408  0.0679  0.3638 -0.1561
19540TIP3    H180111   6.264   4.629  12.491 -0.3053  0.3748  0.0519
19540TIP3    H280112   6.142   4.584  12.414 -1.6951  2.7497  0.8431
19541TIP3   OH280113   3.949   2.339   1.684  0.3941 -0.5047  1.0122
19541TIP3    H180114   3.973   2.347   1.776 -0.1737 -1.6148  1.2616
19541TIP3    H280115   3.859   2.372   1.679  0.2561 -0.8879  0.9415
19542TIP3   OH280116   6.750   5.185  16.626 -0.1169  0.4146  0.2128
19542TIP3    H180117   6.829   5.234  16.602 -0.7317  1.5346  0.4400
19542TIP3    H280118   6.756   5.104  16.576  1.0454  0.6121  0.0174
19543TIP3   OH280119   3.750   1.514  14.346  0.5607 -0.2712 -0.3042
19543TIP3    H180120   3.830   1.547  14.388  0.1246  0.6690 -0.2000
19543TIP3    H280121   3.686   1.509  14.417 -0.0113  0.7627 -0.7423
19544TIP3   OH280122   3.715   5.105  14.365  0.5229  0.2906  0.1254
19544TIP3    H180123   3.631   5.119  14.322  0.7981  0.3431 -0.3960
19544TIP3    H280124   3.772   5.172  14.328  0.9708 -0.1575 -0.0023
19545TIP3   OH280125   5.722   3.700   3.519 -0.0150 -0.1592  0.8463
19545TIP3    H180126   5.780   3.775   3.511  0.1767 -0.3907 -0.0188
19545TIP3    H280127   5.692   3.702   3.610 -0.8913  1.6065  0.5436
19546TIP3   OH280128   1.335   2.895   1.108  0.6020 -0.3439  0.2425
19546TIP3    H180129   1.294   2.945   1.037 -0.1472 -0.6427  0.4586
19546TIP3    H280130   1.319   2.948   1.187  3.3791  1.1192 -0.1077
19547TIP3   OH280131   4.799   3.372   2.407 -0.4952  0.1240 -0.3148
19547TIP3    H180132   4.708   3.399   2.420 -0.0575  1.5903 -0.2370
19547TIP3    H280133   4.793   3.293   2.353 -1.9665 -1.5680  2.1798
19548TIP3   OH280134   4.898   6.354   5.695 -0.1560  0.2434  0.7355
19548TIP3    H180135   4.918   6.443   5.665  0.7253 -0.3090 -0.3501
19548TIP3    H280136   4.842   6.318   5.626  2.2582 -1.2011 -0.5663
19549TIP3   OH280137   5.961   0.076   5.194  0.5557 -0.2095  0.0367
19549TIP3    H180138   6.040   0.130   5.188  0.6664 -0.3818 -0.0697
19549TIP3    H280139   5.993  -0.010   5.224  0.1112  0.4268  2.4548
19550TIP3   OH280140   2.808   2.853   0.611  0.0388  0.1191  0.2350
19550TIP3    H180141   2.742   2.783   0.619 -0.5426  0.6786  0.3559
19550TIP3    H280142   2.834   2.871   0.702  1.2597 -0.9485  0.1104
19551TIP3   OH280143   1.501   6.433  14.300 -0.4718  0.4079 -0.3630
19551TIP3    H180144   1.436   6.365  14.283  0.2653  0.1181 -2.1898
19551TIP3    H280145   1.572   6.414  14.239  0.5288  1.7680  0.3527
19552TIP3   OH280146   5.031   1.700  12.044  0.4153 -0.1606 -0.2850
19552TIP3    H180147   4.983   1.723  11.964  0.2059 -0.7651 -0.3300
19552TIP3    H280148   5.114   1.663  12.013  0.4208 -0.2068 -0.2134
19553TIP3   OH280149   4.256   0.761   1.928  0.5506 -0.1750 -0.2504
19553TIP3    H180150   4.272   0.826   1.996  0.4954 -0.4582  0.0321
19553TIP3    H280151   4.238   0.813   1.849 -0.1855  0.1574  0.1338
19554TIP3   OH280152   3.879   3.621   3.145 -0.1388 -0.2046 -0.4061
19554TIP3    H180153   3.814   3.654   3.207  1.4103  2.5246 -0.1544
19554TIP3    H280154   3.957   3.605   3.199  0.2792 -0.7679 -1.1687
19555TIP3   OH280155   5.957   1.396   2.749  0.1320 -0.3264  0.1650
19555TIP3    H180156   5.907   1.410   2.829  0.4785 -2.5991  0.8159
19555TIP3    H280157   5.923   1.462   2.687 -0.5703  1.0301  1.9507
19556TIP3   OH280158   0.471   0.646  14.601 -0.1502  0.1616 -0.5380
19556TIP3    H180159   0.528   0.623  14.528  1.4707  1.7689  0.1822
19556TIP3    H280160   0.386   0.663  14.561  0.2982 -0.5832 -1.8366
19557TIP3   OH280161   6.324   0.233   3.222  0.8227  0.1152  0.4225
19557TIP3    H180162   6.340   0.164   3.287  1.5466  0.5479  0.7012
19557TIP3    H280163   6.299   0.309   3.274 -1.1242 -0.2394  0.0625
19558TIP3   OH280164   3.352   2.028   1.519  0.3090  0.4444 -0.5954
19558TIP3    H180165   3.361   1.991   1.607 -2.1057  0.2149 -0.3961
19558TIP3    H280166   3.389   1.962   1.460  0.3105 -0.1945  0.1144
19559TIP3   OH280167   1.231   0.617  14.208  0.1055  0.4520  0.5270
19559TIP3    H180168   1.304   0.614  14.270  0.5838 -0.2849 -0.0664
19559TIP3    H280169   1.157   0.649  14.260  0.1703 -1.4366  1.8317
19560TIP3   OH280170   4.266   1.145  12.802  0.4545  0.3729 -0.0554
19560TIP3    H180171   4.177   1.180  12.816  0.0088 -0.0528 -1.6830
19560TIP3    H280172   4.319   1.189  12.867 -0.5336  2.3934 -0.5519
19561TIP3   OH280173   3.171   3.722  12.996  0.2740  0.3837 -0.7283
19561TIP3    H180174   3.119   3.772  13.058 -1.2981 -1.3775 -0.6075
19561TIP3    H280175   3.108   3.688  12.933  1.1021 -2.6183  0.0060
19562TIP3   OH280176   5.929   4.433  15.479 -0.9022 -0.2009 -0.0483
19562TIP3    H180177   6.004   4.386  15.516 -0.3061  0.0420 -0.9209
19562TIP3    H280178   5.949   4.438  15.386 -1.1719  1.4048 -0.0239
19563TIP3   OH280179   3.340   5.238  11.925  0.6276 -0.7914 -0.4319
19563TIP3    H180180   3.304   5.152  11.904 -0.2619 -0.1734 -1.4578
19563TIP3    H280181   3.350   5.281  11.840  1.8571 -0.1879  0.0090
19564TIP3   OH280182   0.308   2.745  17.030  0.4203 -0.7901 -0.1948
19564TIP3    H180183   0.241   2.809  17.051  1.3106 -0.3523  1.3243
19564TIP3    H280184   0.332   2.706  17.114  1.2322 -1.7731 -0.8717
19565TIP3   OH280185   4.834   3.772   1.386 -0.2705 -0.0882  0.1184
19565TIP3    H180186   4.762   3.716   1.358 -0.3883 -0.0756  0.3974
19565TIP3    H280187   4.873   3.804   1.304 -0.2725 -0.4854 -0.0388
19566TIP3   OH280188   0.104   5.477  12.880  0.4709  0.3402 -0.1756
19566TIP3    H180189   0.195   5.489  12.909 -0.0256  1.9575  0.7474
19566TIP3    H280190   0.058   5.555  12.911 -1.4852 -0.9614  0.2797
19567TIP3   OH280191   3.244   3.125   2.360 -0.3833 -0.4336 -0.4002
19567TIP3    H180192   3.317   3.156   2.413 -0.3593 -0.3044 -0.5086
19567TIP3    H280193   3.218   3.202   2.309 -1.4967 -0.0760  0.6678
19568TIP3   OH280194   4.664   1.446  16.867 -0.2036 -0.4138 -0.4990
19568TIP3    H180195   4.722   1.484  16.801 -0.0211  1.4972  0.7398
19568TIP3    H280196   4.581   1.492  16.856  0.0968  0.5385  1.1920
19569TIP3   OH280197   0.825   1.150   4.167 -0.4661 -0.5281  0.0089
19569TIP3    H180198   0.857   1.231   4.208  0.8312 -1.5899  1.1713
19569TIP3    H280199   0.783   1.179   4.086  0.6389  1.2497  0.0327
19570TIP3   OH280200   2.418   1.297   4.188  0.3032  0.4942 -0.1943
19570TIP3    H180201   2.471   1.241   4.245 -0.7061  0.5161  0.7670
19570TIP3    H280202   2.338   1.248   4.173  1.3490 -0.3930 -3.2452
19571TIP3   OH280203   1.521   0.744  16.696 -0.0867 -0.5421 -0.5961
19571TIP3    H180204   1.544   0.831  16.663  2.0375 -0.0261  2.0452
19571TIP3    H280205   1.472   0.762  16.776 -1.0441 -1.7948 -0.8934
19572TIP3   OH280206   6.668   5.657  12.137 -0.7442  0.1363 -0.2220
19572TIP3    H180207   6.748   5.612  12.110 -0.8170  0.0781 -0.3423
19572TIP3    H280208   6.642   5.614  12.218 -1.6619 -1.0756 -1.1322
19573TIP3   OH280209   6.792   0.973  15.623 -0.2751  0.5060  0.0061
19573TIP3    H180210   6.823   0.983  15.533  2.4480 -2.6953  0.5006
19573TIP3    H280211   6.705   0.934  15.615 -0.0292  0.1989 -1.2232
19574TIP3   OH280212   3.871   3.608  13.088  0.2527 -0.1639  0.1164
19574TIP3    H180213   3.837   3.693  13.060 -0.4196 -0.4167  0.1410
19574TIP3    H280214   3.856   3.606  13.183 -0.5101 -0.6362  0.0013
19575TIP3   OH280215   2.716   4.887  12.727 -0.0063 -0.4176 -0.7722
19575TIP3    H180216   2.716   4.814  12.789 -2.1454  0.2886  0.1175
19575TIP3    H280217   2.807   4.917  12.725  0.2563 -0.9591  1.4226
19576TIP3   OH280218   5.787   6.470   4.799 -0.1953  0.4063  0.4236
19576TIP3    H180219   5.784   6.377   4.780 -0.5739  0.3149  0.9202
19576TIP3    H280220   5.858   6.504   4.744  0.0505 -0.1973  0.3675
19577TIP3   OH280221   3.041   3.871   2.245 -0.1399  0.3964 -0.0846
19577TIP3    H180222   3.109   3.819   2.203  1.4306  0.1485  2.6481
19577TIP3    H280223   3.005   3.813   2.313 -2.1223  1.0211 -0.5568
19578TIP3   OH280224   0.638   4.848   0.111 -0.0230  0.0868 -0.3866
19578TIP3    H180225   0.645   4.941   0.132  1.1852  0.2893 -1.6232
19578TIP3    H280226   0.728   4.816   0.110 -0.3079 -0.7191 -1.5747
19579TIP3   OH280227   4.557   1.010  14.135 -0.4009 -0.0959  0.1870
19579TIP3    H180228   4.596   1.072  14.196 -1.3050  0.4924  0.1579
19579TIP3    H280229   4.463   1.024  14.142 -0.5820 -1.0277 -0.2803
19580TIP3   OH280230   5.887   3.169   0.528 -0.7241  0.4696  0.0289
19580TIP3    H180231   5.906   3.214   0.610  1.4534 -0.4259  0.0326
19580TIP3    H280232   5.892   3.237   0.461 -2.1228  1.1274  0.5672
19581TIP3   OH280233   3.171   1.425  11.972 -0.6434 -0.2308  0.1649
19581TIP3    H180234   3.106   1.448  11.906 -0.7037 -2.0958 -0.4434
19581TIP3    H280235   3.146   1.338  12.002 -0.2798  0.3516  2.2560
19582TIP3   OH280236   0.185   2.726   5.220  0.0766  0.6498 -0.0857
19582TIP3    H180237   0.127   2.802   5.214 -1.3477 -0.4393 -0.3240
19582TIP3    H280238   0.149   2.663   5.158  2.7832  0.7314 -1.8518
19583TIP3   OH280239   1.916   2.658   3.384  0.1774 -0.2375 -0.5017
19583TIP3    H180240   1.861   2.645   3.461 -0.1684  2.1224 -0.3095
19583TIP3    H280241   1.881   2.598   3.319  0.5696 -2.3831  1.2024
19584TIP3   OH280242   1.369   1.112  15.327 -0.2227  0.7429 -0.4139
19584TIP3    H180243   1.456   1.127  15.292 -0.1243  2.3565  0.4936
19584TIP3    H280244   1.383   1.092  15.419 -0.7691  0.2888 -0.4252
19585TIP3   OH280245   4.562   3.133  12.454 -0.1442 -0.2369  0.7245
19585TIP3    H180246   4.559   3.068  12.384  1.3106 -0.9633  1.2934
19585TIP3    H280247   4.481   3.121  12.503 -0.5261 -0.6629 -0.0163
19586TIP3   OH280248   2.207   4.028  14.297 -0.2221 -0.1401  0.5400
19586TIP3    H180249   2.234   3.951  14.247 -0.2912  0.4865 -0.4696
19586TIP3    H280250   2.234   4.008  14.387  0.2866 -1.0916  0.1892
19587TIP3   OH280251   5.930   2.789  14.567 -0.4419  0.5002 -0.4300
19587TIP3    H180252   5.930   2.790  14.663 -1.0301  1.0370 -0.4377
19587TIP3    H280253   6.020   2.814  14.544 -0.6304  1.5530 -0.0321
19588TIP3   OH280254   0.420   4.302  14.496  0.1259  0.0188  0.3672
19588TIP3    H180255   0.429   4.264  14.583 -1.2999  0.2332  0.6165
19588TIP3    H280256   0.339   4.264  14.461  0.5497  0.1291 -0.7562
19589TIP3   OH280257   6.526   2.583  13.192 -0.6516  0.3434 -0.0665
19589TIP3    H180258   6.572   2.665  13.176 -0.4500  0.3616  0.6039
19589TIP3    H280259   6.495   2.556  13.106  2.1243 -0.5666 -0.8272
19590TIP3   OH280260   6.657   3.262  15.981 -0.0803 -0.4549 -0.3170
19590TIP3    H180261   6.732   3.297  15.933 -0.4337 -0.5439 -0.9460
19590TIP3    H280262   6.666   3.298  16.069  0.1529  0.3538 -0.6619
19591TIP3   OH280263   4.441   6.311   1.513  0.1043 -0.0668 -0.3012
19591TIP3    H180264   4.370   6.356   1.468  0.5432  1.1629  0.1958
19591TIP3    H280265   4.444   6.352   1.599  1.8955  0.4179 -0.5787
19592TIP3   OH280266   6.039   3.210  14.660 -0.0473  0.8478  0.5228
19592TIP3    H180267   6.002   3.256  14.735  0.7731  0.5334  1.1385
19592TIP3    H280268   6.130   3.239  14.657  0.4840 -0.6862  0.9123
19593TIP3   OH280269   0.010   3.355   0.441 -0.0013  0.0437  0.3697
19593TIP3    H180270   0.035   3.323   0.527  1.7253  0.6197  0.0980
19593TIP3    H280271  -0.012   3.276   0.391 -0.4315 -0.3282  1.1381
19594TIP3   OH280272   4.179   2.786  13.394  0.5697 -0.0952  0.6075
19594TIP3    H180273   4.116   2.752  13.458  0.4844 -0.0652  0.5404
19594TIP3    H280274   4.232   2.848  13.443 -1.1043  1.8144  0.0853
19595TIP3   OH280275   3.519   2.014   3.268  0.5145 -0.4651 -0.3114
19595TIP3    H180276   3.516   2.066   3.188  1.3259  0.4664  0.2518
19595TIP3    H280277   3.529   1.924   3.238  1.1941 -0.0858 -1.2532
19596TIP3   OH280278   2.697   5.137   5.822 -0.5901 -0.6535  0.1055
19596TIP3    H180279   2.669   5.228   5.821 -4.0967 -1.6482 -0.4511
19596TIP3    H280280   2.690   5.110   5.913 -0.2645 -0.5717  0.1550
19597TIP3   OH280281   6.565   0.570   4.087  0.1789 -0.7645 -0.3878
19597TIP3    H180282   6.521   0.645   4.127 -0.2757 -0.8465 -0.7226
19597TIP3    H280283   6.633   0.546   4.149  0.6600  0.2450 -0.5116
19598TIP3   OH280284   6.452   1.772  10.372 -0.0488  0.2617 -0.4174
19598TIP3    H180285   6.471   1.863  10.348 -2.4191  1.2959  1.3788
19598TIP3    H280286   6.523   1.721  10.334  1.6271  2.9403 -0.9769
19599TIP3   OH280287   0.523   5.231  11.552  0.3106 -0.1793  0.2269
19599TIP3    H180288   0.586   5.266  11.615  0.8646 -1.3042  0.3212
19599TIP3    H280289   0.575   5.205  11.477 -0.2725  0.5301 -0.4339
19600TIP3   OH280290   5.850   3.723  16.692  0.6226 -0.3985  0.1640
19600TIP3    H180291   5.873   3.812  16.720  2.5991 -1.7115  2.9536
19600TIP3    H280292   5.905   3.707  16.616 -0.9178  1.3081 -1.3537
19601TIP3   OH280293   0.821   1.042   0.541 -0.0150  0.5582 -0.1864
19601TIP3    H180294   0.911   1.025   0.569 -0.3130 -0.5648  0.1361
19601TIP3    H280295   0.786   0.955   0.520 -0.8844  1.0310 -0.7349
19602TIP3   OH280296   2.111   1.339   3.771 -0.3666  0.8034  0.0434
19602TIP3    H180297   2.199   1.322   3.740 -0.3413  1.3621 -0.1989
19602TIP3    H280298   2.062   1.260   3.750  0.3331  0.0465  1.1709
19603TIP3   OH280299   6.451   4.101   1.371  0.3949 -0.5354  0.0388
19603TIP3    H180300   6.375   4.156   1.392 -0.1523 -1.0355 -0.6054
19603TIP3    H280301   6.510   4.112   1.446 -0.2649 -0.0560  0.4951
19604TIP3   OH280302   6.067   4.081   2.269 -0.8852 -0.1938 -0.1349
19604TIP3    H180303   6.086   4.090   2.362 -0.1661 -0.0896 -0.2889
19604TIP3    H280304   5.972   4.087   2.263 -0.9217 -0.0403  0.5719
19605TIP3   OH280305   4.844   4.528  13.332  0.8377 -0.2668  0.5563
19605TIP3    H180306   4.862   4.525  13.426  1.1563 -1.4489  0.4661
19605TIP3    H280307   4.838   4.621  13.312 -0.2529 -0.0153  1.9417
19606TIP3   OH280308   3.568   2.523  14.628  0.0371  0.3723 -0.2273
19606TIP3    H180309   3.573   2.438  14.585  1.8873  0.5690 -0.4104
19606TIP3    H280310   3.520   2.578  14.566  1.8640  0.4001 -1.6426
19607TIP3   OH280311   3.622   3.305   3.578 -0.4660  0.3943 -0.6151
19607TIP3    H180312   3.539   3.317   3.531 -0.2751 -0.4598 -1.1947
19607TIP3    H280313   3.647   3.215   3.558  0.7904  0.7642 -0.7564
19608TIP3   OH280314   5.082   1.003   0.837 -0.3200  0.4334  0.4796
19608TIP3    H180315   5.047   1.083   0.799 -0.1293  0.8947  1.2878
19608TIP3    H280316   5.168   1.028   0.871  0.0565 -0.2834  0.0852
19609TIP3   OH280317   2.922   1.304   5.042  0.2855 -0.2623  0.2766
19609TIP3    H180318   2.901   1.327   5.132  0.3629  0.0370  0.2194
19609TIP3    H280319   2.929   1.209   5.042  2.0594 -0.1320  0.9446
19610TIP3   OH280320   3.802   5.414  15.725  0.4405 -0.2983 -0.3181
19610TIP3    H180321   3.828   5.402  15.816  0.5492  2.0228 -0.0060
19610TIP3    H280322   3.885   5.415  15.676  0.9168  4.2853  0.3344
19611TIP3   OH280323   5.910   3.955  16.805 -0.2688 -0.1533  0.0337
19611TIP3    H180324   5.858   3.968  16.885  0.0287 -0.4203  0.2709
19611TIP3    H280325   5.986   4.013  16.817 -0.6309  0.4206 -0.4230
19612TIP3   OH280326   1.909   5.752  14.847  0.3948  0.5204 -0.3365
19612TIP3    H180327   1.965   5.807  14.792 -0.9149 -0.0338 -2.2947
19612TIP3    H280328   1.825   5.798  14.848  0.6287  0.9435  1.9205
19613TIP3   OH280329   5.639   6.451   0.720 -0.4401 -0.1784 -0.5520
19613TIP3    H180330   5.701   6.388   0.756 -1.4495 -0.5081  0.6588
19613TIP3    H280331   5.685   6.535   0.722  0.0945 -0.4810  0.0295
19614TIP3   OH280332   4.357   2.357   3.258  0.7334  0.0451 -0.4436
19614TIP3    H180333   4.322   2.312   3.336  2.8212 -0.0375  0.5060
19614TIP3    H280334   4.359   2.449   3.282 -1.0044  0.3222 -1.3663
19615TIP3   OH280335   5.779   6.588  15.088  0.4721  0.3587 -0.2771
19615TIP3    H180336   5.744   6.596  15.177 -1.1399  1.2540 -0.9651
19615TIP3    H280337   5.721   6.643  15.034  1.5320 -0.0243 -1.8481
19616TIP3   OH280338   4.435   1.057   4.222 -0.0192 -0.2699  0.4353
19616TIP3    H180339   4.383   0.980   4.242 -0.4289 -0.2028 -0.3542
19616TIP3    H280340   4.526   1.027   4.231 -0.1815 -0.7264  0.5619
19617TIP3   OH280341   6.667   4.860   2.588 -0.3488  0.2081  0.4249
19617TIP3    H180342   6.705   4.791   2.641  0.1117  0.3869  0.3310
19617TIP3    H280343   6.625   4.814   2.515 -0.0889  0.0230  0.3906
19618TIP3   OH280344   4.957   3.019   5.854  0.1215 -0.1452  0.2796
19618TIP3    H180345   4.941   2.949   5.917  3.2421 -0.3396  0.9241
19618TIP3    H280346   4.958   2.975   5.769 -0.9681 -0.3688  0.3719
19619TIP3   OH280347   1.982   1.946   4.889  0.1338  0.0695  0.0630
19619TIP3    H180348   2.067   1.990   4.899 -0.3140  1.1949 -1.0005
19619TIP3    H280349   1.990   1.898   4.806 -0.5182  0.7563 -0.4032
19620TIP3   OH280350   1.398   0.761   2.593 -0.6358 -0.0256  0.0542
19620TIP3    H180351   1.428   0.809   2.515  2.1356 -0.1810  0.9897
19620TIP3    H280352   1.313   0.801   2.613 -0.4795  1.3977 -1.8507
19621TIP3   OH280353   4.990   1.251   5.078  0.2971 -0.4233 -0.2773
19621TIP3    H180354   4.967   1.343   5.071 -0.1630 -0.4640  0.7041
19621TIP3    H280355   5.085   1.250   5.089  0.4271 -0.1234 -1.3062
19622TIP3   OH280356   0.861   6.325  15.966  0.2336  0.5741  0.2729
19622TIP3    H180357   0.789   6.290  16.018 -1.3578  2.2238 -0.7245
19622TIP3    H280358   0.940   6.289  16.006 -0.9872  1.0069  3.1785
19623TIP3   OH280359   2.100   1.423  12.804  0.0374  0.3167 -1.2091
19623TIP3    H180360   2.017   1.415  12.850  0.5746 -1.4120 -0.5075
19623TIP3    H280361   2.163   1.450  12.871  0.3937 -0.1033 -1.3725
19624TIP3   OH280362   2.110   3.800  16.795 -0.1124 -0.0177  0.3419
19624TIP3    H180363   2.125   3.887  16.759 -1.3500 -0.5045 -1.4191
19624TIP3    H280364   2.191   3.752  16.778  0.5073  0.7127  1.1570
19625TIP3   OH280365   2.751   3.156  12.586  0.0739 -0.1373  0.1798
19625TIP3    H180366   2.843   3.150  12.610  0.0181 -0.0060  0.4340
19625TIP3    H280367   2.751   3.202  12.501  0.2029  0.4724  0.5061
19626TIP3   OH280368   4.288   2.654  16.581  0.1005 -0.0213 -0.0250
19626TIP3    H180369   4.349   2.712  16.626  0.0878  0.7901 -1.0233
19626TIP3    H280370   4.205   2.702  16.582  0.3107  0.4144 -1.6804
19627TIP3   OH280371   2.010   4.780  14.859  0.5910 -0.0670 -0.1842
19627TIP3    H180372   1.929   4.829  14.848  1.1714  0.8991 -0.2417
19627TIP3    H280373   1.989   4.712  14.922  0.4049  1.7909  1.8104
19628TIP3   OH280374   6.680   2.447   3.330 -0.6050  0.1792  0.5334
19628TIP3    H180375   6.767   2.444   3.370 -1.2925 -1.4636  1.9771
19628TIP3    H280376   6.649   2.536   3.346  0.3749  0.4523  0.9516
19629TIP3   OH280377   6.495   1.051   3.769  0.2529 -0.5085 -0.7285
19629TIP3    H180378   6.518   0.978   3.826  0.1082 -0.0556 -0.0968
19629TIP3    H280379   6.435   1.105   3.820  1.1091  0.5704 -0.8494
19630TIP3   OH280380   4.309   4.006   2.224  0.4078  0.3273  0.4954
19630TIP3    H180381   4.222   4.022   2.260 -0.0960 -0.7070 -0.2190
19630TIP3    H280382   4.344   4.093   2.205  0.1100  0.8094  2.1119
19631TIP3   OH280383   2.555   6.408   1.680  0.4958 -0.0589 -0.3063
19631TIP3    H180384   2.590   6.348   1.746  1.5625 -0.6050 -1.3496
19631TIP3    H280385   2.488   6.459   1.726  0.8099 -0.8510  1.0315
19632TIP3   OH280386   5.098   1.526   5.778 -0.1115  0.3706  0.3661
19632TIP3    H180387   5.014   1.569   5.797 -0.0738  0.5389  0.1483
19632TIP3    H280388   5.164   1.594   5.793 -0.0831  0.5228 -0.4253
19633TIP3   OH280389   5.315   5.516   4.778  0.2590 -0.1984 -0.4257
19633TIP3    H180390   5.340   5.584   4.841 -1.8655  0.0445  0.1957
19633TIP3    H280391   5.311   5.561   4.694  0.0553  0.1706 -0.2177
19634TIP3   OH280392   0.549   3.493   5.789  0.0741  0.2575  0.2373
19634TIP3    H180393   0.555   3.574   5.840 -1.3492 -0.1815  1.1099
19634TIP3    H280394   0.507   3.520   5.707  0.3099  0.5388  0.2066
19635TIP3   OH280395   1.272   1.488  17.083  0.2401 -0.1340  0.2564
19635TIP3    H180396   1.177   1.495  17.074  0.1478 -2.1283 -0.6578
19635TIP3    H280397   1.289   1.393  17.086  2.3993  0.1476 -1.9057
19636TIP3   OH280398   4.269   2.580   4.426 -0.0619  0.7942 -0.7028
19636TIP3    H180399   4.283   2.599   4.519 -0.4062 -0.7552 -0.3100
19636TIP3    H280400   4.324   2.643   4.380 -1.0848  2.6249  0.5040
19637TIP3   OH280401   0.664   4.443   3.445 -0.1582  0.3077 -0.1085
19637TIP3    H180402   0.693   4.387   3.516  2.2812  1.1913 -0.3795
19637TIP3    H280403   0.670   4.532   3.480  0.1845  0.6846 -1.0990
19638TIP3   OH280404   3.326   0.233  11.187 -0.0378 -0.2166 -0.0576
19638TIP3    H180405   3.287   0.148  11.169 -1.7664  0.5120  0.1755
19638TIP3    H280406   3.411   0.230  11.143  0.3752 -2.4387  0.8480
19639TIP3   OH280407   5.624   4.559  14.185 -0.0002  0.0967 -0.2076
19639TIP3    H180408   5.657   4.469  14.180  1.2265  0.6069 -1.5313
19639TIP3    H280409   5.700   4.613  14.165 -1.3754  1.3447 -2.1779
19640TIP3   OH280410   4.384   0.183  16.292  0.4534  0.2973 -0.6061
19640TIP3    H180411   4.301   0.229  16.284  0.3453  0.4326  1.0185
19640TIP3    H280412   4.451   0.252  16.293  0.7394  0.1276 -3.2815
19641TIP3   OH280413   5.949   1.980  15.577 -0.0847  0.1144 -0.2178
19641TIP3    H180414   6.044   1.993  15.578  0.1157 -1.0839 -1.7749
19641TIP3    H280415   5.928   1.946  15.664  0.6012  2.3703  0.8616
19642TIP3   OH280416   4.431   2.443  14.536 -0.3953 -0.1654  0.0745
19642TIP3    H180417   4.434   2.448  14.441 -0.7375  0.4530  0.0904
19642TIP3    H280418   4.502   2.384  14.560 -1.5312 -1.8953 -0.6808
19643TIP3   OH280419   4.383   4.431   0.515 -0.1298  0.7031 -0.1763
19643TIP3    H180420   4.307   4.424   0.457 -0.0447 -1.8164 -0.0435
19643TIP3    H280421   4.452   4.383   0.469  0.1121 -0.7795  1.6914
19644TIP3   OH280422   3.348   0.136  15.764  0.3339  0.1458 -0.1844
19644TIP3    H180423   3.425   0.180  15.728  1.3258 -0.5997  0.9873
19644TIP3    H280424   3.349   0.157  15.857  1.1789 -2.7701  0.5296
19645TIP3   OH280425   6.669   6.620  12.738  0.0301 -0.2093  0.0011
19645TIP3    H180426   6.629   6.635  12.823 -2.2827  1.2284 -1.2928
19645TIP3    H280427   6.740   6.685  12.734  0.7818 -0.9382  1.1969
19646TIP3   OH280428   0.714   5.296  10.743 -0.1518  0.0295 -0.0063
19646TIP3    H180429   0.723   5.379  10.790  1.3785 -0.1951  0.1352
19646TIP3    H280430   0.626   5.298  10.707 -0.7099  0.9996  1.3804
19647TIP3   OH280431   4.528   1.068   4.833  0.1043 -0.0154  0.1600
19647TIP3    H180432   4.623   1.080   4.837  0.2773 -1.6154  1.0768
19647TIP3    H280433   4.493   1.153   4.857  1.2953  0.6604 -0.4078
19648TIP3   OH280434   5.263   0.498   1.356 -0.1268 -0.4867  0.3020
19648TIP3    H180435   5.202   0.561   1.316 -0.1634 -0.7735 -0.0924
19648TIP3    H280436   5.338   0.551   1.381  0.2072 -0.4224 -0.8107
19649TIP3   OH280437   3.081   5.215   0.807 -0.3543  0.2632  0.0685
19649TIP3    H180438   3.025   5.138   0.806 -1.1421  0.8359 -0.5818
19649TIP3    H280439   3.141   5.203   0.734  1.6613 -1.2727  1.9254
19650TIP3   OH280440   4.611   5.557  16.573  0.5492  0.4967  0.1999
19650TIP3    H180441   4.532   5.577  16.623  1.4292  1.0718  1.3971
19650TIP3    H280442   4.676   5.534  16.640  1.2282 -0.5600 -0.8065
19651TIP3   OH280443   1.240   1.245   1.652  0.2905  0.2079  0.3732
19651TIP3    H180444   1.243   1.186   1.576 -0.0945 -1.1405  1.3738
19651TIP3    H280445   1.245   1.186   1.728  3.5202  1.6963  1.3991
19652TIP3   OH280446   6.223   1.745  13.555  0.0339 -0.4044  0.2348
19652TIP3    H180447   6.292   1.722  13.492 -0.3673  0.0688 -0.3891
19652TIP3    H280448   6.205   1.664  13.602 -0.0932 -0.9162 -0.6843
19653TIP3   OH280449   6.667   4.831  15.416 -0.4631 -0.2770 -0.1909
19653TIP3    H180450   6.703   4.920  15.411 -0.8053 -0.1452 -0.3360
19653TIP3    H280451   6.599   4.837  15.483 -2.8315  0.3974 -2.5456
19654TIP3   OH280452   6.311   3.738   5.498  0.0860  0.6040 -0.0297
19654TIP3    H180453   6.268   3.714   5.580  0.2229  2.4167  0.6008
19654TIP3    H280454   6.282   3.828   5.481  0.4778  0.4465 -1.6951
19655TIP3   OH280455   2.307   4.058   5.216 -0.4462 -0.0231 -0.1618
19655TIP3    H180456   2.377   4.107   5.173  2.4132 -1.4280  2.6903
19655TIP3    H280457   2.275   3.998   5.149  0.5829  1.1580 -1.7288
19656TIP3   OH280458   3.099   5.177  12.114 -0.0641  0.3689 -0.0394
19656TIP3    H180459   3.162   5.111  12.143 -1.9748 -0.2070  3.1172
19656TIP3    H280460   3.151   5.256  12.101  1.7866 -0.9299 -0.7602
19657TIP3   OH280461   0.389   0.622  10.638  0.0906  0.2780  0.2291
19657TIP3    H180462   0.435   0.553  10.686 -2.0376 -2.9779 -2.1869
19657TIP3    H280463   0.457   0.663  10.585  1.0410 -1.5715 -0.0462
19658TIP3   OH280464   6.775   6.451   2.053 -0.2867 -0.8719 -0.2032
19658TIP3    H180465   6.828   6.473   1.976  1.4247  0.1268  1.2177
19658TIP3    H280466   6.692   6.495   2.038  0.6967  0.9053 -0.6315
19659TIP3   OH280467   5.986   4.905  15.346 -0.7042  0.4896 -0.1812
19659TIP3    H180468   6.070   4.931  15.309 -0.7400  0.7640 -0.0697
19659TIP3    H280469   5.970   4.817  15.311  0.1103  0.0205  0.6248
19660TIP3   OH280470   4.923   1.006  16.757 -0.2635 -0.0210  0.0465
19660TIP3    H180471   4.839   1.036  16.790 -0.0486  0.8321 -0.1770
19660TIP3    H280472   4.920   1.025  16.663 -0.9316 -2.5544 -0.4778
19661TIP3   OH280473   4.583   6.442   4.270  0.2180 -0.5234  0.1043
19661TIP3    H180474   4.489   6.430   4.260  0.0972  0.3493  0.1130
19661TIP3    H280475   4.608   6.381   4.339 -0.5243 -0.0077  0.8392
19662TIP3   OH280476   2.361   5.261   0.980  0.1139 -0.4491 -0.2543
19662TIP3    H180477   2.390   5.274   1.071 -1.4953 -1.2052  0.3866
19662TIP3    H280478   2.397   5.336   0.933 -0.6789  1.0028  1.4079
19663TIP3   OH280479   0.329   2.198  16.211  0.0657  0.1934 -0.1529
19663TIP3    H180480   0.338   2.282  16.165 -0.4611 -0.4283 -1.4059
19663TIP3    H280481   0.309   2.222  16.301  0.7719  1.4295 -0.3102
19664TIP3   OH280482   4.426   0.535  11.973 -0.6624  0.3135 -0.3266
19664TIP3    H180483   4.441   0.588  12.050  2.8412  0.3323 -0.9163
19664TIP3    H280484   4.376   0.460  12.004  0.2137  0.6058  1.8384
19665TIP3   OH280485   2.741   3.911  16.083  0.4239  0.8256  0.7611
19665TIP3    H180486   2.670   3.956  16.038  0.0421 -0.2599  0.2634
19665TIP3    H280487   2.700   3.873  16.161  0.5684  0.6706  0.7619
19666TIP3   OH280488   5.091   0.109   1.782 -0.2671  0.7288  0.2211
19666TIP3    H180489   5.061   0.073   1.865  0.3138  0.9983  0.5528
19666TIP3    H280490   5.186   0.096   1.783 -0.3289  0.0643 -0.7254
19667TIP3   OH280491   1.808   6.386   5.820  0.0561 -0.7245 -0.6140
19667TIP3    H180492   1.839   6.376   5.910  0.9178  0.5958 -0.7464
19667TIP3    H280493   1.840   6.308   5.774 -1.6158 -2.1155  0.5404
19668TIP3   OH280494   1.721   1.866  13.430 -0.4511  0.6837 -0.3192
19668TIP3    H180495   1.681   1.836  13.349  0.2786  0.4795 -0.6107
19668TIP3    H280496   1.810   1.832  13.426 -0.6223  0.0601  0.8899
19669TIP3   OH280497   6.748   3.720   2.734 -0.6475 -0.2032 -0.8727
19669TIP3    H180498   6.721   3.737   2.824 -2.0860  0.6827 -1.4576
19669TIP3    H280499   6.818   3.655   2.742 -1.3560 -0.7857  0.8269
19670TIP3   OH280500   0.820   4.425   2.240  0.3174  0.0373  0.2208
19670TIP3    H180501   0.874   4.445   2.163  1.9698 -1.0250  1.0734
19670TIP3    H280502   0.794   4.510   2.274 -0.3758  0.5249 -1.4751
19671TIP3   OH280503   0.436   0.017  15.252  0.1113 -0.4239  0.2161
19671TIP3    H180504   0.499  -0.055  15.257 -1.4873 -1.7692  1.5670
19671TIP3    H280505   0.483   0.092  15.287  1.6892 -0.8621 -0.8880
19672TIP3   OH280506   1.318   4.492  14.675 -0.0176  0.8121  0.0389
19672TIP3    H180507   1.281   4.440  14.603 -0.6117  1.1866  0.0708
19672TIP3    H280508   1.331   4.428  14.746 -0.6587  0.6880  0.0452
19673TIP3   OH280509   6.653   1.948   2.376 -0.1467 -0.2827  0.3830
19673TIP3    H180510   6.662   2.034   2.334 -0.1774 -1.2628 -1.6928
19673TIP3    H280511   6.723   1.946   2.441  0.1227  1.1569  0.1557
19674TIP3   OH280512   4.034   0.507  14.119 -0.4878  0.0324  0.1965
19674TIP3    H180513   4.120   0.519  14.080 -0.6189  0.0658 -0.0861
19674TIP3    H280514   4.024   0.413  14.129 -0.1091  0.0674  0.9332
19675TIP3   OH280515   5.196   4.957   1.829  0.2162 -0.2100  0.3086
19675TIP3    H180516   5.231   5.046   1.820 -0.7860  0.0542 -0.9786
19675TIP3    H280517   5.145   4.959   1.910 -1.9287  1.0915 -1.0597
19676TIP3   OH280518   3.210   3.086  12.919  0.2518 -0.2422  0.0474
19676TIP3    H180519   3.293   3.131  12.931  1.5547 -2.4266 -0.3365
19676TIP3    H280520   3.156   3.112  12.994  1.6922  0.3384  0.8852
19677TIP3   OH280521   4.966   1.336   0.535  0.0207 -0.4647  0.2991
19677TIP3    H180522   5.033   1.331   0.603  0.5761 -1.9726 -0.3390
19677TIP3    H280523   4.984   1.419   0.490  1.0969 -0.5669  0.5133
19678TIP3   OH280524   4.437   4.471   5.436 -0.2704  0.3533  0.1988
19678TIP3    H180525   4.512   4.425   5.474 -1.1898 -2.4159 -1.1886
19678TIP3    H280526   4.415   4.539   5.500  3.7583  1.6449  0.3472
19679TIP3   OH280527   0.359   5.737  13.846  0.2875 -0.1483 -0.5366
19679TIP3    H180528   0.409   5.679  13.787  1.2312  1.2767 -1.1626
19679TIP3    H280529   0.339   5.814  13.793 -1.6423 -0.2137  0.0581
19680TIP3   OH280530   4.432   6.641   5.032 -0.6765 -0.5178  0.0256
19680TIP3    H180531   4.428   6.729   4.996  0.0153 -0.5489 -0.1423
19680TIP3    H280532   4.366   6.640   5.101 -0.4644  0.2298  0.2434
19681TIP3   OH280533   4.263   4.119   1.557 -0.2418  0.4204  0.3732
19681TIP3    H180534   4.278   4.029   1.588  0.6305  0.8859  1.3037
19681TIP3    H280535   4.177   4.142   1.592 -0.9741 -0.4379 -0.7915
19682TIP3   OH280536   5.134   5.322   1.708  0.8475  0.3501 -0.0699
19682TIP3    H180537   5.118   5.349   1.618  0.0969 -0.4334 -0.1694
19682TIP3    H280538   5.223   5.287   1.707  0.9797  0.6927 -0.4149
19683TIP3   OH280539   0.487   0.367  14.093  0.4570  0.8095  0.3209
19683TIP3    H180540   0.579   0.383  14.071  0.2610  0.5141 -0.7289
19683TIP3    H280541   0.489   0.285  14.143  0.9173  1.5718  1.5903
19684TIP3   OH280542   5.430   1.050   1.618  0.1624 -0.2308 -0.8832
19684TIP3    H180543   5.522   1.067   1.594  0.1872 -0.1934 -0.7645
19684TIP3    H280544   5.379   1.085   1.544  0.3073 -1.7352 -1.7191
19685TIP3   OH280545   3.092   1.518  13.623  0.1645 -0.8336  0.3639
19685TIP3    H180546   3.090   1.424  13.639  0.3213 -0.7910  0.6296
19685TIP3    H280547   3.126   1.556  13.704 -0.4499 -0.4976  0.4632
19686TIP3   OH280548   0.283   2.510  14.662  0.1129 -0.0939 -0.1810
19686TIP3    H180549   0.354   2.570  14.685  1.2658 -1.3564 -0.3338
19686TIP3    H280550   0.208   2.540  14.714  1.1619  0.3744  1.1042
19687TIP3   OH280551   1.565   3.671   4.523  0.2056  0.3059 -0.3958
19687TIP3    H180552   1.656   3.655   4.499  0.8892  2.0537  0.9335
19687TIP3    H280553   1.551   3.620   4.602  0.2235  0.5440 -0.2388
19688TIP3   OH280554   2.935   5.371   2.090  0.7064  0.2619 -0.1062
19688TIP3    H180555   2.959   5.279   2.102  0.3902  0.1002 -0.6636
19688TIP3    H280556   2.961   5.391   2.000 -0.7349  0.2344 -0.5396
19689TIP3   OH280557   4.606   2.535   3.195  0.1604 -0.6574  0.3103
19689TIP3    H180558   4.647   2.461   3.150 -0.7042 -0.1044 -1.4557
19689TIP3    H280559   4.614   2.514   3.288 -0.1971 -3.0611 -0.1498
19690TIP3   OH280560   3.286   0.997   0.459  0.6481 -0.4721  0.1695
19690TIP3    H180561   3.219   1.040   0.406  1.8194 -0.5298 -1.3999
19690TIP3    H280562   3.286   0.906   0.429  2.0246 -0.2707 -0.4632
19691TIP3   OH280563   2.002   5.888  17.149 -0.6533  0.1645 -0.1531
19691TIP3    H180564   1.924   5.833  17.162  0.5713 -1.7760 -0.7848
19691TIP3    H280565   1.978   5.947  17.078 -1.5075 -0.5077 -0.4368
19692TIP3   OH280566   3.591   2.886  15.717 -0.0668  0.3787  0.1548
19692TIP3    H180567   3.673   2.838  15.708  0.3813  1.1287  0.2339
19692TIP3    H280568   3.524   2.817  15.722  0.6973 -0.2903  1.6055
19693TIP3   OH280569   3.598   5.957  16.149  0.5800  0.0119 -0.0020
19693TIP3    H180570   3.598   5.861  16.149  0.8320 -0.0130  1.8059
19693TIP3    H280571   3.676   5.981  16.100 -0.1595 -0.6874 -1.5540
19694TIP3   OH280572   5.489   4.690  14.371  0.2508 -0.0060  0.2586
19694TIP3    H180573   5.539   4.637  14.309  1.3014 -0.0549  1.1283
19694TIP3    H280574   5.535   4.774  14.373  1.8795 -0.8753  2.9698
19695TIP3   OH280575   2.992   0.466  14.427  0.0898 -0.1325 -0.0582
19695TIP3    H180576   2.935   0.518  14.369  0.4029  0.1350 -0.1263
19695TIP3    H280577   3.079   0.504  14.415  0.3439 -0.7520 -0.1955
19696TIP3   OH280578   0.656   5.589  12.222 -0.2659  0.3312  0.1058
19696TIP3    H180579   0.726   5.589  12.287  0.6203 -0.7761 -0.8477
19696TIP3    H280580   0.580   5.556  12.269 -0.1848  1.5549  1.1484
19697TIP3   OH280581   6.595   0.030  14.850  0.2135 -0.2863  0.3424
19697TIP3    H180582   6.634  -0.029  14.785  2.3933  1.0710  0.3754
19697TIP3    H280583   6.583   0.113  14.804 -3.2034 -0.7759  0.1879
19698TIP3   OH280584   6.127   1.542  13.771  0.4531 -0.3424 -0.1320
19698TIP3    H180585   6.175   1.461  13.788  1.8488  0.6457  0.6635
19698TIP3    H280586   6.155   1.602  13.840 -1.3098  0.5202 -0.1319
19699TIP3   OH280587   2.135   3.368  12.181  0.2209  0.2688 -0.9459
19699TIP3    H180588   2.086   3.304  12.129  0.0996 -1.2522  1.0020
19699TIP3    H280589   2.216   3.382  12.132  0.1285 -1.1838 -1.5183
19700TIP3   OH280590   4.282   4.948  11.185 -0.6543 -0.2064 -0.2593
19700TIP3    H180591   4.207   4.999  11.217  0.4940  1.6338 -0.4558
19700TIP3    H280592   4.322   4.912  11.264  1.1047  2.8312  0.2969
19701TIP3   OH280593   5.519   4.828   4.564  0.7588 -0.1439 -0.3887
19701TIP3    H180594   5.561   4.744   4.543  2.0494 -0.1458  2.0042
19701TIP3    H280595   5.591   4.887   4.583 -0.2280  0.5492  1.3231
19702TIP3   OH280596   5.185   4.159   1.287 -0.8962 -0.1754 -0.4108
19702TIP3    H180597   5.206   4.073   1.322  1.2531  0.9843  1.2543
19702TIP3    H280598   5.223   4.160   1.200 -1.2135 -1.0178 -0.5628
19703TIP3   OH280599   4.806   3.224   6.659 -0.7603  0.0070 -0.1204
19703TIP3    H180600   4.774   3.143   6.620 -0.6337 -0.7628  1.3192
19703TIP3    H280601   4.840   3.275   6.586  0.4200 -1.8250 -0.8717
19704TIP3   OH280602   3.225   6.530   2.250  0.3847 -0.6644 -0.3229
19704TIP3    H180603   3.305   6.492   2.213 -0.2429 -1.0465 -1.3095
19704TIP3    H280604   3.169   6.455   2.268  0.0594 -0.3615 -0.0669
19705TIP3   OH280605   2.392   1.725  12.772  0.4332 -0.1156 -0.3127
19705TIP3    H180606   2.344   1.759  12.697  1.3290 -0.7290 -1.1630
19705TIP3    H280607   2.387   1.795  12.837 -2.0795 -0.3765 -0.1824
19706TIP3   OH280608   3.945   3.431  11.273 -0.1951  0.2609  0.2232
19706TIP3    H180609   3.874   3.427  11.337 -1.7023 -1.0495 -1.4902
19706TIP3    H280610   3.920   3.369  11.205  0.3582  3.0328 -2.6472
19707TIP3   OH280611   3.848   5.032   0.084  0.0306 -0.4400 -0.0635
19707TIP3    H180612   3.930   4.984   0.097  0.4154 -0.4224 -2.3111
19707TIP3    H280613   3.807   4.990   0.009  0.3136  2.6092 -2.0058
19708TIP3   OH280614   6.274   2.238   3.023 -0.3921  0.4695  0.3696
19708TIP3    H180615   6.191   2.191   3.013 -0.6326  1.1805 -0.9150
19708TIP3    H280616   6.256   2.306   3.088 -0.7384  0.4574  0.2837
19709TIP3   OH280617   1.952   3.648   3.094 -0.3593 -0.4611  0.2262
19709TIP3    H180618   1.904   3.669   3.014  0.0824 -2.1040 -0.4822
19709TIP3    H280619   2.017   3.718   3.102 -1.6613  0.7766  0.2240
19710TIP3   OH280620   2.627   0.229   6.119 -0.0768  0.3015 -0.5380
19710TIP3    H180621   2.695   0.286   6.154 -2.0332  2.5384 -0.2659
19710TIP3    H280622   2.576   0.285   6.060 -1.9781 -1.1966 -0.3667
19711TIP3   OH280623   5.749   0.233   5.309  0.9716  0.3671  0.2951
19711TIP3    H180624   5.708   0.171   5.370  2.0524 -0.3868  0.2679
19711TIP3    H280625   5.807   0.179   5.256  0.7745  1.1729 -0.7616
19712TIP3   OH280626   5.871   2.872  13.476 -0.1861 -0.4316 -0.7366
19712TIP3    H180627   5.792   2.839  13.518  0.1759 -1.7142 -1.0360
19712TIP3    H280628   5.901   2.800  13.421  1.2411  0.0042 -0.5613
19713TIP3   OH280629   1.617   6.431  15.975 -1.0092  0.2854 -0.4380
19713TIP3    H180630   1.581   6.510  15.935 -0.4188  2.2259  2.6976
19713TIP3    H280631   1.695   6.461  16.022  1.2169 -2.7603 -1.9453
19714TIP3   OH280632   3.411   0.555  13.532  0.2233  0.4630  0.3137
19714TIP3    H180633   3.491   0.519  13.495 -0.0275 -0.0896  0.2948
19714TIP3    H280634   3.368   0.480  13.574 -0.4898  0.6600 -0.0474
19715TIP3   OH280635   3.047   6.115  10.557 -0.3107  0.5841 -0.1345
19715TIP3    H180636   2.999   6.032  10.564 -0.7951  0.7741 -1.1923
19715TIP3    H280637   2.996   6.176  10.610  0.6303 -0.0416  1.5367
19716TIP3   OH280638   1.961   2.750  16.338 -0.4252 -0.0711  0.4320
19716TIP3    H180639   2.017   2.808  16.288 -0.8378  0.1775  0.2539
19716TIP3    H280640   2.014   2.672  16.354 -0.8239 -0.8413 -1.8058
19717TIP3   OH280641   3.195   1.658  15.938 -0.0741 -0.4407  0.3735
19717TIP3    H180642   3.121   1.602  15.959 -2.5471  3.1492  1.7772
19717TIP3    H280643   3.210   1.708  16.019  2.8114  0.0957 -0.4359
19718TIP3   OH280644   6.225   1.597   2.867 -0.1399 -0.0042  0.3313
19718TIP3    H180645   6.162   1.560   2.930  0.5693 -0.8715  0.5474
19718TIP3    H280646   6.250   1.681   2.905 -1.6813  0.6505 -0.0914
19719TIP3   OH280647   3.940   4.962  17.023 -0.1545 -0.0055 -0.6448
19719TIP3    H180648   3.929   5.025  17.094 -0.2103 -0.5303 -0.1797
19719TIP3    H280649   3.858   4.912  17.022  0.4332 -1.0032 -0.0788
19720TIP3   OH280650   6.809   4.853   0.968 -0.0520 -0.1538 -0.1365
19720TIP3    H180651   6.733   4.797   0.987 -1.4151  1.8083  0.3794
19720TIP3    H280652   6.839   4.824   0.882 -1.7791 -0.5688 -0.6253
19721TIP3   OH280653   0.024   6.202  11.166  0.0228  0.2325  0.1809
19721TIP3    H180654   0.117   6.193  11.189  0.1300  2.3142  0.7642
19721TIP3    H280655   0.013   6.151  11.086  1.3025 -1.3381  0.9779
19722TIP3   OH280656   6.396   5.595   0.398 -0.0705 -0.3951 -0.0218
19722TIP3    H180657   6.456   5.650   0.448  0.5507  0.9155 -2.1160
19722TIP3    H280658   6.422   5.506   0.418  0.3903  0.1131  1.6894
19723TIP3   OH280659   5.217   3.661   2.326 -0.4948  0.0500  0.1696
19723TIP3    H180660   5.239   3.747   2.291 -0.5989 -0.3838 -0.9760
19723TIP3    H280661   5.123   3.664   2.341 -0.3887  0.3653  0.7663
19724TIP3   OH280662   3.379   6.419  11.988  0.2981 -0.3231 -0.0605
19724TIP3    H180663   3.472   6.411  11.966  0.2864 -1.4153  0.2531
19724TIP3    H280664   3.356   6.334  12.024  0.1138  1.1341  3.4397
19725TIP3   OH280665   2.703   0.807  14.412  0.2575  0.2802  0.0009
19725TIP3    H180666   2.615   0.773  14.423  0.4346 -0.2276 -0.1605
19725TIP3    H280667   2.731   0.830  14.500 -0.8448  2.4530 -0.1785
19726TIP3   OH280668   2.418   5.520  11.154  0.3763 -0.1580  0.4779
19726TIP3    H180669   2.465   5.602  11.169 -0.3179  0.1050  1.2889
19726TIP3    H280670   2.399   5.519  11.061  1.6287 -0.0699  0.2155
19727TIP3   OH280671   2.758   5.673   2.785 -0.3599  0.2876 -0.2676
19727TIP3    H180672   2.831   5.657   2.725  0.2709  1.1464  0.2723
19727TIP3    H280673   2.789   5.640   2.869 -0.6087  0.6200 -0.0451
19728TIP3   OH280674   0.757   3.152   0.748  0.2425  0.2041 -0.3202
19728TIP3    H180675   0.842   3.111   0.767  0.3930  0.7738  0.2314
19728TIP3    H280676   0.775   3.246   0.747 -0.9627  0.5441  2.9401
19729TIP3   OH280677   2.725   4.665   2.052 -0.1971  0.3656  0.3924
19729TIP3    H180678   2.800   4.693   2.104 -1.8074  0.1383  2.9186
19729TIP3    H280679   2.690   4.747   2.016  0.5871  0.5894  0.1261
19730TIP3   OH280680   6.399   5.846   2.240 -0.5641 -0.4779 -0.0134
19730TIP3    H180681   6.458   5.796   2.297  0.6892  0.2535 -0.6505
19730TIP3    H280682   6.333   5.882   2.299  0.4253 -0.1432  0.9010
19731TIP3   OH280683   6.121   1.133   0.717 -0.3403  0.0986 -0.1117
19731TIP3    H180684   6.096   1.100   0.803  1.3184  3.2288  1.6877
19731TIP3    H280685   6.057   1.201   0.698  1.2739  1.7851  0.2912
19732TIP3   OH280686   5.710   4.343  12.943  0.2657 -0.1432  0.7886
19732TIP3    H180687   5.641   4.405  12.966 -1.4913 -2.0218  0.7234
19732TIP3    H280688   5.673   4.291  12.871  2.6895  0.4340 -0.9541
19733TIP3   OH280689   0.330   3.161   3.471 -0.6555  0.1282 -0.2436
19733TIP3    H180690   0.267   3.204   3.528 -0.9593 -0.5106 -0.0964
19733TIP3    H280691   0.291   3.165   3.384 -0.8862 -0.2349 -0.1584
19734TIP3   OH280692   0.721   0.051   5.435 -0.2029 -0.4158 -0.0697
19734TIP3    H180693   0.687  -0.024   5.386 -1.4755  1.5644 -2.2984
19734TIP3    H280694   0.808   0.065   5.400 -0.6532  0.2447 -0.9500
19735TIP3   OH280695   4.439   6.519  16.466 -0.2579 -0.4801 -0.1200
19735TIP3    H180696   4.469   6.605  16.437 -0.2185  0.2218  1.9171
19735TIP3    H280697   4.425   6.470  16.385 -0.4186  1.4804 -1.3152
19736TIP3   OH280698   3.272   5.736   2.527 -0.1463 -0.4382 -0.6685
19736TIP3    H180699   3.299   5.644   2.534 -0.6649 -0.4645  1.2747
19736TIP3    H280700   3.353   5.785   2.542 -0.0052 -0.5786 -0.9803
19737TIP3   OH280701   6.207   6.551   2.048 -0.6269 -0.1819 -0.9138
19737TIP3    H180702   6.231   6.466   2.011 -0.0405  0.3408 -1.7455
19737TIP3    H280703   6.202   6.609   1.973  0.2138  0.8167 -0.2152
19738TIP3   OH280704   4.385   2.652   2.645  0.5408 -0.5871 -0.1994
19738TIP3    H180705   4.423   2.586   2.587 -1.0153  0.8223 -2.9274
19738TIP3    H280706   4.461   2.700   2.680  1.5918 -2.7334  0.5228
19739TIP3   OH280707   6.604   6.226  16.744  0.2561  0.7954 -0.0752
19739TIP3    H180708   6.523   6.206  16.697 -1.6005 -0.1510  3.3428
19739TIP3    H280709   6.655   6.145  16.738 -0.3622  0.3746  0.3045
19740TIP3   OH280710   2.095   3.390  13.621  0.1216  0.3428 -0.5957
19740TIP3    H180711   2.025   3.378  13.685 -1.3661 -0.0930 -2.2857
19740TIP3    H280712   2.105   3.485  13.614 -0.1609  0.4013 -0.2058
19741TIP3   OH280713   3.018   6.479   4.713 -0.4071 -0.2054  0.1730
19741TIP3    H180714   3.081   6.551   4.717 -0.6383 -0.1275  2.6762
19741TIP3    H280715   3.010   6.460   4.619  2.5746  0.4409 -0.2529
19742TIP3   OH280716   6.362   2.997   5.988  0.5057  0.1072 -0.1933
19742TIP3    H180717   6.275   3.014   6.024  0.2419  0.6921 -1.0871
19742TIP3    H280718   6.418   2.987   6.065 -0.4775 -0.9756  0.3973
19743TIP3   OH280719   0.665   3.870  16.319 -0.2375 -0.0068 -0.1113
19743TIP3    H180720   0.645   3.778  16.338 -1.9100  0.0519 -1.5460
19743TIP3    H280721   0.744   3.866  16.265 -0.2979 -0.5910 -0.1613
19744TIP3   OH280722   3.660   0.893   5.813  0.3956 -0.3657 -1.0359
19744TIP3    H180723   3.639   0.985   5.795  1.3997  0.0002 -0.4225
19744TIP3    H280724   3.706   0.896   5.896  0.3494 -1.4458 -0.9770
19745TIP3   OH280725   0.063   5.804  11.213  0.1261  0.0957 -0.0106
19745TIP3    H180726   0.036   5.753  11.136 -0.9835 -1.6326  1.4806
19745TIP3    H280727   0.135   5.755  11.251  0.4136  0.7321  0.2691
19746TIP3   OH280728   3.181   4.690   1.538 -0.2031 -0.6545 -0.0508
19746TIP3    H180729   3.169   4.596   1.524 -0.5242 -0.5310 -0.6231
19746TIP3    H280730   3.121   4.731   1.476  0.9562 -0.0564 -0.7880
19747TIP3   OH280731   6.187   4.146  12.399 -0.3137  0.3174  0.1947
19747TIP3    H180732   6.180   4.213  12.330  2.2439 -0.4377 -0.8798
19747TIP3    H280733   6.247   4.185  12.463  0.1692 -0.4220  0.1946
19748TIP3   OH280734   1.743   5.714  13.437  0.0535 -0.1336 -0.1093
19748TIP3    H180735   1.649   5.722  13.421 -0.2746 -1.9676  0.7925
19748TIP3    H280736   1.773   5.804  13.448 -1.7289  0.4276  0.3082
19749TIP3   OH280737   6.082   1.248  11.587 -0.0388 -0.1201 -0.3523
19749TIP3    H180738   6.061   1.331  11.629  1.7890 -0.3226  1.0102
19749TIP3    H280739   6.094   1.271  11.494 -0.0718  1.0451 -0.0749
19750TIP3   OH280740   0.952   4.335  11.337  0.1473 -0.3141  0.1806
19750TIP3    H180741   1.042   4.330  11.307  0.9937  0.7781  2.4457
19750TIP3    H280742   0.903   4.365  11.260  1.6307 -1.2233 -1.1525
19751TIP3   OH280743   4.371   5.971   0.606 -0.1759  0.1208 -0.1083
19751TIP3    H180744   4.410   6.057   0.596  1.6570 -0.8199 -1.3292
19751TIP3    H280745   4.313   5.961   0.531  1.6603 -0.7381 -1.4553
19752TIP3   OH280746   0.677   0.611   2.196 -0.7072  0.2155  0.1882
19752TIP3    H180747   0.760   0.582   2.158  0.9614  0.7980  3.1967
19752TIP3    H280748   0.611   0.558   2.152  1.5911 -2.9629  0.3491
19753TIP3   OH280749   4.154   5.697  16.092 -0.0270 -0.3264 -0.0181
19753TIP3    H180750   4.211   5.696  16.015 -0.4085  0.6467 -0.3220
19753TIP3    H280751   4.156   5.607  16.125 -1.0778 -1.1396 -2.0745
19754TIP3   OH280752   2.955   2.951  15.222 -0.7029 -0.1422 -0.2048
19754TIP3    H180753   2.957   2.968  15.317 -2.8598 -0.3477 -0.0995
19754TIP3    H280754   2.944   3.038  15.183  2.0819  0.1666 -0.3961
19755TIP3   OH280755   3.410   3.626   0.621  0.1434  0.0305 -0.3549
19755TIP3    H180756   3.335   3.651   0.676  0.4616 -0.2747  0.2210
19755TIP3    H280757   3.481   3.609   0.683 -0.1216 -2.5249 -0.7074
19756TIP3   OH280758   1.133   5.546  13.601  0.0198 -0.4974 -0.1890
19756TIP3    H180759   1.073   5.620  13.588  1.8907  1.1405  0.1370
19756TIP3    H280760   1.130   5.529  13.695 -1.5644 -1.8653 -0.4751
19757TIP3   OH280761   2.471   5.891  14.053 -0.3683 -0.1859  0.6253
19757TIP3    H180762   2.511   5.942  13.983 -0.9174 -2.5974 -1.5290
19757TIP3    H280763   2.545   5.859  14.105  0.2145 -0.4367 -0.3409
19758TIP3   OH280764   2.112   4.139   4.961  0.2053 -0.1647  0.2341
19758TIP3    H180765   2.125   4.183   4.877 -2.5311 -0.6616 -0.5245
19758TIP3    H280766   2.100   4.209   5.024 -0.6908  0.2096 -0.3448
19759TIP3   OH280767   3.931   1.268  16.087  0.0974 -0.8856  0.0298
19759TIP3    H180768   3.949   1.216  16.165  1.2793 -1.2050 -0.4539
19759TIP3    H280769   4.016   1.305  16.062 -0.6636  1.0005  0.1660
19760TIP3   OH280770   1.181   5.620  15.672  0.6044  0.0780  0.4961
19760TIP3    H180771   1.178   5.660  15.759 -0.7692  2.1751 -0.4728
19760TIP3    H280772   1.245   5.672  15.624 -0.3099  0.3682 -0.4220
19761TIP3   OH280773   2.756   3.576  15.242 -0.0455 -0.1221  0.5463
19761TIP3    H180774   2.746   3.586  15.337 -1.2962  0.8078  0.3293
19761TIP3    H280775   2.694   3.639  15.205  1.9494  1.0481 -0.8888
19762TIP3   OH280776   6.159   2.018  15.233  0.0274 -0.4132  0.5540
19762TIP3    H180777   6.235   2.072  15.211 -0.3370  0.2350  0.8603
19762TIP3    H280778   6.178   1.932  15.196  0.3375  0.1011 -0.4871
19763TIP3   OH280779   0.400   4.065  14.150  0.0191  0.4839 -0.8077
19763TIP3    H180780   0.464   4.136  14.143  0.2127  0.3818 -0.1661
19763TIP3    H280781   0.331   4.102  14.206  0.2246  0.0910 -0.2970
19764TIP3   OH280782   1.779   5.178  16.834  0.4807 -0.0922 -0.2413
19764TIP3    H180783   1.780   5.199  16.741  1.0237 -0.2877 -0.2815
19764TIP3    H280784   1.800   5.085  16.838 -1.6952 -0.5852 -0.0411
19765TIP3   OH280785   3.275   0.360   3.740  0.5427 -0.0518  0.1301
19765TIP3    H180786   3.187   0.398   3.748  0.4964 -0.0540 -0.3397
19765TIP3    H280787   3.309   0.396   3.658  0.7853 -0.4399  0.0603
19766TIP3   OH280788   5.256   2.586  12.281  0.6009  0.2392  0.0422
19766TIP3    H180789   5.347   2.617  12.273  0.6964 -0.2043 -0.6453
19766TIP3    H280790   5.218   2.600  12.195  0.4485 -0.9310 -0.0929
19767TIP3   OH280791   4.642   1.561   2.074 -0.4738 -0.0320 -0.8743
19767TIP3    H180792   4.629   1.623   2.146 -0.8850 -0.1653 -0.8355
19767TIP3    H280793   4.555   1.525   2.056 -0.3387 -0.1535 -1.3008
19768TIP3   OH280794   3.002   6.277  13.288  0.0529  0.4112 -0.1051
19768TIP3    H180795   2.910   6.301  13.300  0.0930  0.9323 -0.7919
19768TIP3    H280796   3.012   6.269  13.193  0.7089  0.3263 -0.0262
19769TIP3   OH280797   1.609   2.685   1.498  0.1034 -0.2546 -0.9616
19769TIP3    H180798   1.591   2.601   1.541 -0.5621 -0.0355 -0.8020
19769TIP3    H280799   1.703   2.697   1.508 -0.3666  1.0528  2.7877
19770TIP3   OH280800   4.178   3.353  15.781  0.3604 -0.0924 -0.3394
19770TIP3    H180801   4.218   3.378  15.865 -2.6403  0.7968  0.9156
19770TIP3    H280802   4.177   3.434  15.730 -1.2988  0.3154  0.2960
19771TIP3   OH280803   6.555   2.827   3.094  0.5947 -0.1072  0.1837
19771TIP3    H180804   6.498   2.849   3.021  0.4921  0.8469  0.5468
19771TIP3    H280805   6.511   2.755   3.139  1.4654 -1.8237 -1.6385
19772TIP3   OH280806   3.822   2.717  16.040  0.2562 -0.0460 -0.0793
19772TIP3    H180807   3.728   2.706  16.053  0.6383 -0.6176  2.4320
19772TIP3    H280808   3.860   2.635  16.071  1.6140  0.2553 -0.8936
19773TIP3   OH280809   3.362   5.461   2.245  0.2300 -0.6886 -0.5871
19773TIP3    H180810   3.321   5.494   2.324  2.2436 -0.7163  0.5049
19773TIP3    H280811   3.396   5.374   2.270  0.4553 -0.9044 -1.6062
19774TIP3   OH280812   5.714   2.492   4.344  0.0470  0.7113  0.4032
19774TIP3    H180813   5.737   2.408   4.305  0.1579  1.1358 -0.4577
19774TIP3    H280814   5.772   2.499   4.420  0.3412  0.2067  0.2316
19775TIP3   OH280815   5.925   3.002   4.163 -0.5176  0.0846 -0.3125
19775TIP3    H180816   5.969   3.068   4.109 -0.5346  0.1929 -0.1922
19775TIP3    H280817   5.833   3.029   4.163 -0.9106 -1.1098 -2.0269
19776TIP3   OH280818   0.370   1.683  12.944 -0.1794  0.0540 -0.3406
19776TIP3    H180819   0.314   1.644  13.011  0.8168 -1.7025 -0.5086
19776TIP3    H280820   0.359   1.627  12.868  2.5094 -0.9059 -0.0824
19777TIP3   OH280821   2.872   2.036  14.826 -0.1523 -0.2540 -0.1567
19777TIP3    H180822   2.824   2.096  14.768 -0.7354  0.3013  0.8988
19777TIP3    H280823   2.894   1.962  14.769  0.4502  0.8814 -1.4365
19778TIP3   OH280824   6.214   0.369   2.653 -0.1838  0.1777 -0.2114
19778TIP3    H180825   6.229   0.382   2.747 -1.2872  1.2473 -0.1703
19778TIP3    H280826   6.156   0.292   2.649  1.0541 -0.7760 -0.1067
19779TIP3   OH280827   0.851   0.227  15.967 -0.0898  0.1780 -0.0025
19779TIP3    H180828   0.837   0.176  15.887  1.2718 -0.0638 -0.0869
19779TIP3    H280829   0.797   0.305  15.954  0.7479  0.5336 -1.5381
19780TIP3   OH280830   3.424   4.261  15.511 -0.0414 -0.1382  0.1481
19780TIP3    H180831   3.430   4.220  15.598  0.2028 -0.8429 -0.1914
19780TIP3    H280832   3.368   4.337  15.523  0.7697  0.3175  1.1293
19781TIP3   OH280833   4.874   6.756  15.442  0.1706  0.1553  0.1276
19781TIP3    H180834   4.843   6.843  15.469 -1.9740  0.0604 -1.8844
19781TIP3    H280835   4.887   6.763  15.348 -0.6183 -1.8683 -0.1604
19782TIP3   OH280836   2.950   1.296   4.069  0.3422 -1.1158 -0.0030
19782TIP3    H180837   3.005   1.219   4.058 -1.4852 -2.1738 -2.0655
19782TIP3    H280838   2.966   1.349   3.991  0.4278 -0.1208  0.6728
19783TIP3   OH280839   2.190   5.779   5.526  0.8617  0.1244  0.3142
19783TIP3    H180840   2.248   5.704   5.511  0.6083 -0.0872  0.3870
19783TIP3    H280841   2.203   5.800   5.619 -0.2505 -0.8360  0.7038
19784TIP3   OH280842   2.317   5.828   4.483  0.3655 -0.0028 -0.0141
19784TIP3    H180843   2.299   5.901   4.423 -0.7055  0.5088  0.9075
19784TIP3    H280844   2.391   5.858   4.536  1.1366 -0.3453 -0.8954
19785TIP3   OH280845   5.373   5.938   5.502 -0.0909 -0.7230  0.0818
19785TIP3    H180846   5.318   5.878   5.553  1.3403 -1.0913  1.2251
19785TIP3    H280847   5.447   5.884   5.473  0.6474  0.2142  0.2053
19786TIP3   OH280848   0.693   2.599  15.534  0.2353  0.0394 -0.6876
19786TIP3    H180849   0.751   2.616  15.608 -3.3238  0.3786  2.1962
19786TIP3    H280850   0.678   2.684  15.495  0.6889  0.1272 -0.6749
19787TIP3   OH280851   4.040   2.106  14.298 -0.5912 -0.1950 -0.2504
19787TIP3    H180852   3.968   2.149  14.253 -1.2702 -1.5807 -0.5303
19787TIP3    H280853   4.037   2.016  14.266  0.1086 -0.7146  1.1245
19788TIP3   OH280854   2.686   6.443   5.082 -0.2209 -0.1813  0.2353
19788TIP3    H180855   2.755   6.486   5.032  0.9157  0.4878  2.3520
19788TIP3    H280856   2.647   6.512   5.135 -0.2832 -1.1630  1.5132
19789TIP3   OH280857   1.239   6.437   2.859 -0.1447 -0.4925  0.5804
19789TIP3    H180858   1.325   6.468   2.832 -0.6263  0.5410  0.2038
19789TIP3    H280859   1.256   6.355   2.904  0.8510 -1.2828 -1.1949
19790TIP3   OH280860   3.260   0.509   5.122  0.0769  0.2007 -0.6347
19790TIP3    H180861   3.209   0.588   5.143  0.1005 -0.0544  0.3650
19790TIP3    H280862   3.216   0.473   5.045  0.8454  1.9085 -1.9281
19791TIP3   OH280863   6.416   1.416  11.821  0.0026 -0.0406 -0.8496
19791TIP3    H180864   6.389   1.506  11.840 -0.5341  0.0898 -2.2325
19791TIP3    H280865   6.472   1.423  11.744  0.8561 -0.7763 -0.3179
19792TIP3   OH280866   0.782   0.734   6.053 -0.0340  0.5938  0.1300
19792TIP3    H180867   0.841   0.672   6.096 -0.3443 -0.0960 -0.4371
19792TIP3    H280868   0.831   0.766   5.978 -0.1588  0.4733 -0.0024
19793TIP3   OH280869   2.222   3.127  11.707 -0.1960 -0.2670  0.3359
19793TIP3    H180870   2.318   3.131  11.701 -0.2244  0.7424  0.4839
19793TIP3    H280871   2.191   3.176  11.631 -0.6084 -1.4566 -0.2701
19794TIP3   OH280872   5.818   5.047  14.869  0.2699 -0.4419 -0.0952
19794TIP3    H180873   5.867   5.018  14.791  1.4112 -0.2659  0.5433
19794TIP3    H280874   5.732   5.007  14.859  0.7101 -1.1922 -0.9884
19795TIP3   OH280875   4.425   5.630  13.974 -0.3205 -0.1471 -0.2562
19795TIP3    H180876   4.398   5.664  14.059 -1.2364  0.9909 -0.9868
19795TIP3    H280877   4.470   5.703  13.932  1.9299 -1.3206  0.0303
19796TIP3   OH280878   4.968   1.980  16.881 -0.5618  0.2941  0.3271
19796TIP3    H180879   5.027   1.927  16.933  0.1459  1.5173  0.7911
19796TIP3    H280880   4.951   1.928  16.802 -0.2677 -0.8073  0.9827
19797TIP3   OH280881   4.397   5.884  13.644  0.3899 -0.1879 -0.1996
19797TIP3    H180882   4.468   5.948  13.639  0.3616 -0.1793 -0.5591
19797TIP3    H280883   4.353   5.903  13.727  1.2905 -0.7144  0.4034
19798TIP3   OH280884   3.223   1.454   3.584  0.1667  0.6790 -0.1771
19798TIP3    H180885   3.142   1.439   3.633  0.5693  3.0724  1.2879
19798TIP3    H280886   3.290   1.469   3.652  1.5043  0.3103 -1.3907
19799TIP3   OH280887   4.630   0.787  16.311 -0.6481 -0.3166  0.2527
19799TIP3    H180888   4.620   0.731  16.389 -0.3024 -0.2684  0.3290
19799TIP3    H280889   4.654   0.726  16.241 -0.4626 -0.2916  0.2923
19800TIP3   OH280890   6.183   2.265   5.997 -0.2893 -0.1267 -0.3720
19800TIP3    H180891   6.216   2.335   5.940 -2.3880  0.1955 -1.2578
19800TIP3    H280892   6.203   2.295   6.086  1.0855  0.3887 -0.8442
19801TIP3   OH280893   0.755   0.510  15.571  0.3752  0.4862  0.0430
19801TIP3    H180894   0.715   0.585  15.616 -0.1590 -0.2040  0.7275
19801TIP3    H280895   0.686   0.443  15.570  1.3775 -0.5708  0.8783
19802TIP3   OH280896   1.324   5.724  16.201  0.3567  0.0917  0.2066
19802TIP3    H180897   1.420   5.715  16.194  0.3743  0.9641 -0.7943
19802TIP3    H280898   1.296   5.644  16.245  1.6517  0.2794  1.4239
19803TIP3   OH280899   4.747   1.314   1.826  0.0891 -0.7160 -0.2465
19803TIP3    H180900   4.665   1.304   1.778  0.9656  0.7494 -2.0779
19803TIP3    H280901   4.814   1.274   1.770  0.8570 -0.6175  0.5748
19804TIP3   OH280902   0.327   5.408  14.255 -0.0088  0.2479 -0.2605
19804TIP3    H180903   0.269   5.393  14.329  1.1196  1.9681  1.0348
19804TIP3    H280904   0.273   5.453  14.190 -0.0939  2.1446  1.0710
19805TIP3   OH280905   5.269   1.672  11.922 -0.5269 -0.5846  0.1858
19805TIP3    H180906   5.289   1.761  11.894 -0.3204 -0.7002 -0.0361
19805TIP3    H280907   5.286   1.618  11.845  1.1288 -1.0366  0.8505
19806TIP3   OH280908   0.705   6.592   0.301  0.5094  0.5851  0.1077
19806TIP3    H180909   0.702   6.589   0.397 -0.9083  2.6902  0.1817
19806TIP3    H280910   0.798   6.598   0.280  1.1474 -3.8291  1.1168
19807TIP3   OH280911   4.856   4.479  10.763  0.1853 -0.1077  0.0691
19807TIP3    H180912   4.787   4.436  10.713  0.0667  1.6649 -1.3230
19807TIP3    H280913   4.925   4.412  10.771 -0.9533 -1.3096 -0.0214
19808TIP3   OH280914   5.436   3.645  13.182 -0.1939 -0.2885  0.7037
19808TIP3    H180915   5.359   3.594  13.204 -1.4117  0.3524 -1.9718
19808TIP3    H280916   5.442   3.710  13.253 -1.6570 -0.8042  1.3135
19809TIP3   OH280917   4.918   0.537  11.925 -0.2746 -0.5079 -0.1111
19809TIP3    H180918   4.995   0.520  11.979  0.7529 -0.7894 -1.6240
19809TIP3    H280919   4.921   0.469  11.858  0.7070  2.1417 -2.8670
19810TIP3   OH280920   2.300   6.402  12.262 -0.1025 -0.5862  0.3464
19810TIP3    H180921   2.379   6.427  12.215  1.7954 -1.0244  3.1401
19810TIP3    H280922   2.284   6.474  12.323 -1.8166 -0.5585 -0.1074
19811TIP3   OH280923   3.100   5.887  11.599 -0.8312 -0.3250  0.1863
19811TIP3    H180924   3.159   5.859  11.669 -1.7080 -1.9211  0.3154
19811TIP3    H280925   3.013   5.877  11.636 -1.2085  1.8960 -0.0553
19812TIP3   OH280926   6.212   5.571  16.610  0.1634  0.0318  0.1899
19812TIP3    H180927   6.249   5.514  16.543 -0.1080  0.5296 -0.3949
19812TIP3    H280928   6.274   5.567  16.683  0.1156 -1.0353  0.1671
19813TIP3   OH280929   2.779   4.013  16.647 -0.1163 -0.6678 -0.1561
19813TIP3    H180930   2.802   4.023  16.739  1.0358  0.4791 -0.5500
19813TIP3    H280931   2.696   3.965  16.648 -1.1226  1.0243  1.5511
19814TIP3   OH280932   4.698   5.598  13.135 -0.4841 -0.5787 -0.0158
19814TIP3    H180933   4.654   5.673  13.095 -0.3319  0.1769  1.2197
19814TIP3    H280934   4.627   5.538  13.158 -0.6530 -0.5355 -0.4040
19815TIP3   OH280935   4.745   2.206   1.208  0.2845  0.0760  0.3672
19815TIP3    H180936   4.773   2.140   1.271 -0.8889  0.0222  0.8391
19815TIP3    H280937   4.698   2.271   1.261  1.5497  1.3805 -0.0569
19816TIP3   OH280938   0.309   4.283   4.504 -0.6293  0.5025  0.2184
19816TIP3    H180939   0.347   4.195   4.511  1.6805  1.4996  0.8482
19816TIP3    H280940   0.281   4.290   4.413 -0.4242 -0.7230  0.0528
19817TIP3   OH280941   5.294   1.046  16.578  0.1518  0.2696  0.2169
19817TIP3    H180942   5.229   1.113  16.595  0.6006  1.2808 -1.9119
19817TIP3    H280943   5.248   0.980  16.527  0.1171 -0.3075  0.9810
19818TIP3   OH280944   1.802   2.378  12.962  0.4041  0.0343  0.2424
19818TIP3    H180945   1.819   2.448  12.899 -0.7721  0.4059  0.3249
19818TIP3    H280946   1.709   2.387  12.984  0.0549 -1.9765 -0.2719
19819TIP3   OH280947   1.316   5.457   1.440  0.4131  0.5569 -0.1900
19819TIP3    H180948   1.244   5.495   1.390 -0.5230 -0.6011  0.2592
19819TIP3    H280949   1.319   5.508   1.521 -0.8522 -0.2985  0.4205
19820TIP3   OH280950   5.061   0.993   3.182  0.3471  0.6689  0.2306
19820TIP3    H180951   5.084   0.989   3.090  1.9411 -1.4492  0.6920
19820TIP3    H280952   5.080   1.084   3.208 -1.7358  1.7534 -1.8822
19821TIP3   OH280953   5.325   2.511   1.600  0.4153 -0.2830  0.0340
19821TIP3    H180954   5.348   2.514   1.693  0.2568 -0.5427  0.0826
19821TIP3    H280955   5.272   2.589   1.586 -1.0969 -1.2049  0.5783
19822TIP3   OH280956   4.242   2.359  14.726 -0.5485  0.1951 -0.2846
19822TIP3    H180957   4.274   2.388  14.641  1.5544 -0.7867  0.1229
19822TIP3    H280958   4.204   2.437  14.766  2.3269  1.7297 -0.4000
19823TIP3   OH280959   2.515   1.189   5.540 -0.1774 -0.4749 -0.1376
19823TIP3    H180960   2.462   1.171   5.463 -0.3334 -1.5981  0.2217
19823TIP3    H280961   2.513   1.108   5.590  0.4747  0.0266  0.7212
19824TIP3   OH280962   6.220   6.695  10.343 -0.0889 -0.3504  0.6265
19824TIP3    H180963   6.295   6.641  10.318 -0.5520 -0.5610 -0.3398
19824TIP3    H280964   6.223   6.768  10.281 -1.7219 -1.2886 -0.5944
19825TIP3   OH280965   5.917   0.465   0.147  0.2690  0.1893  0.4367
19825TIP3    H180966   5.903   0.378   0.185  1.1848  0.2874  1.0319
19825TIP3    H280967   5.875   0.462   0.062  0.9224 -1.0777  0.1554
19826TIP3   OH280968   1.467   2.274   4.613  0.4256 -0.5970 -0.4050
19826TIP3    H180969   1.537   2.222   4.651  0.0177 -0.1112  1.0638
19826TIP3    H280970   1.476   2.360   4.654 -0.3649 -0.2267 -0.9956
19827TIP3   OH280971   1.757   2.160  16.494  0.3623 -0.0963  0.0660
19827TIP3    H180972   1.827   2.100  16.517  0.2207  0.5011  2.1993
19827TIP3    H280973   1.768   2.176  16.400  1.5765 -1.9004 -0.1110
19828TIP3   OH280974   2.606   6.624  15.833 -0.4540 -0.0010 -0.1306
19828TIP3    H180975   2.523   6.590  15.800 -0.2290  1.3273 -2.1692
19828TIP3    H280976   2.582   6.702  15.883 -0.3563  1.0968 -1.7644
19829TIP3   OH280977   2.645   0.891  13.990 -0.2606  0.0747  0.7726
19829TIP3    H180978   2.708   0.917  13.923 -1.5220  2.1298  0.3345
19829TIP3    H280979   2.693   0.896  14.073 -0.1969  3.0446  0.6074
19830TIP3   OH280980   1.268   5.106  16.977 -0.5796 -0.3992  0.0582
19830TIP3    H180981   1.262   5.136  17.068 -0.8548 -0.5847  0.0995
19830TIP3    H280982   1.361   5.114  16.956 -0.5890  0.1231  0.1947
19831TIP3   OH280983   5.253   5.092  13.299  0.4739 -0.4872  0.0280
19831TIP3    H180984   5.216   5.080  13.211  0.2658  0.4277 -0.0069
19831TIP3    H280985   5.348   5.089  13.286  0.4605  1.0024 -0.4133
19832TIP3   OH280986   4.138   5.448  13.023 -0.3246 -0.1539  0.6475
19832TIP3    H180987   4.046   5.472  13.040 -0.8960 -1.2444 -0.7921
19832TIP3    H280988   4.142   5.434  12.929  0.8079 -2.2202  0.9681
19833TIP3   OH280989   2.069   2.299   2.499  0.0333 -0.1068  0.1806
19833TIP3    H180990   2.115   2.256   2.427  0.1484 -0.1292  0.2686
19833TIP3    H280991   2.024   2.373   2.458 -0.2276 -0.3562  0.0160
19834TIP3   OH280992   3.594   0.639   4.314  0.3673  0.5548 -0.0123
19834TIP3    H180993   3.642   0.579   4.257  0.8476  2.7986 -2.1077
19834TIP3    H280994   3.659   0.668   4.378  0.0129 -1.4316  1.3004
19835TIP3   OH280995   5.046   1.558   2.236  0.1691 -0.5752 -0.3399
19835TIP3    H180996   5.136   1.582   2.213 -0.2935  0.6191 -0.9461
19835TIP3    H280997   4.992   1.601   2.169 -0.9156 -0.4998  0.5739
19836TIP3   OH280998   4.892   0.599   6.293  0.4240 -0.4462 -0.7770
19836TIP3    H180999   4.978   0.630   6.322  0.7115 -0.0704 -2.0053
19836TIP3    H281000   4.832   0.670   6.316  0.6272 -0.2010 -1.0089
19837TIP3   OH281001   5.170   5.188   3.268 -0.6667 -0.3664  0.4190
19837TIP3    H181002   5.158   5.126   3.196  0.1317 -0.1247  0.0767
19837TIP3    H281003   5.145   5.138   3.346 -1.8502 -0.5268 -0.0503
19838TIP3   OH281004   2.899   6.245   2.698  0.0124  0.8619  0.0873
19838TIP3    H181005   2.876   6.161   2.659  0.4218  0.7736  0.0359
19838TIP3    H281006   2.913   6.303   2.623  0.9287  0.6574  0.0997
19839TIP3   OH281007   5.362   6.418   0.654  0.4963  0.1537 -0.4181
19839TIP3    H181008   5.340   6.334   0.696  1.1799  0.3240  0.2940
19839TIP3    H281009   5.457   6.425   0.664  0.6163  0.3931 -1.6611
19840TIP3   OH281010   5.189   0.594   0.277 -0.1405 -0.2211  0.1025
19840TIP3    H181011   5.156   0.682   0.262  0.3261 -0.0490  0.0825
19840TIP3    H281012   5.278   0.606   0.310  1.0132 -0.7447 -2.6740
19841TIP3   OH281013   3.404   2.736   3.282 -0.0884  0.6139 -0.3013
19841TIP3    H181014   3.404   2.828   3.308 -1.2047  0.5076  0.1051
19841TIP3    H281015   3.428   2.736   3.190  0.9019  1.2325 -0.0531
19842TIP3   OH281016   2.790   1.262   5.912 -0.0915 -0.1550 -0.2232
19842TIP3    H181017   2.872   1.234   5.952 -0.6088  0.2093  1.1293
19842TIP3    H281018   2.777   1.352   5.943 -0.1499  0.3815 -1.7961
19843TIP3   OH281019   5.752   6.279   3.998 -0.0358 -0.6328  0.3058
19843TIP3    H181020   5.696   6.204   3.981  0.5260 -1.1863  0.8207
19843TIP3    H281021   5.697   6.340   4.046 -0.2212 -1.1419  0.7498
19844TIP3   OH281022   6.790   3.572  15.204 -0.0858  0.1511 -0.0181
19844TIP3    H181023   6.840   3.553  15.283 -0.3365 -2.8645 -0.5530
19844TIP3    H281024   6.701   3.588  15.235  0.1090  0.3831  0.4263
19845TIP3   OH281025   2.668   3.165   0.421 -0.0515 -0.3453  0.0721
19845TIP3    H181026   2.705   3.141   0.505 -1.2259  0.5057  0.8555
19845TIP3    H281027   2.653   3.260   0.428 -0.7271 -0.3766 -0.8650
19846TIP3   OH281028   0.308   6.751  15.894  0.0750  0.1881 -0.5941
19846TIP3    H181029   0.370   6.816  15.862  0.5467 -0.1240 -0.3226
19846TIP3    H281030   0.234   6.802  15.926 -0.4195  0.5036 -2.2105
19847TIP3   OH281031   3.504   2.859   4.262 -0.3559 -0.5071  0.3207
19847TIP3    H181032   3.473   2.789   4.320  0.7252 -2.1151 -0.9841
19847TIP3    H281033   3.432   2.921   4.259 -2.1184 -2.5267 -0.0271
19848TIP3   OH281034   2.584   5.545  13.790 -0.4505 -0.5207 -0.1797
19848TIP3    H181035   2.580   5.449  13.783 -0.4038 -0.8117  2.9185
19848TIP3    H281036   2.508   5.568  13.844 -0.7307  1.2652 -1.2902
19849TIP3   OH281037   1.459   6.025   6.525 -0.1648  0.6993  0.0808
19849TIP3    H181038   1.404   5.949   6.502 -0.2657  1.1256 -1.1213
19849TIP3    H281039   1.543   5.987   6.547 -0.0686  0.2455 -0.9952
19850TIP3   OH281040   3.115   3.882  14.886 -0.1135  0.2539 -0.2433
19850TIP3    H181041   3.137   3.967  14.848  0.9227 -0.2848 -0.8654
19850TIP3    H281042   3.093   3.902  14.978  0.2775  1.1619 -0.3387
19851TIP3   OH281043   3.368   4.934  16.415  0.4157 -0.0008  0.0971
19851TIP3    H181044   3.411   4.855  16.447  0.5237 -0.1471 -0.3990
19851TIP3    H281045   3.405   5.005  16.468 -0.3597 -0.3883  1.1707
19852TIP3   OH281046   5.187   2.326  13.771 -0.2197 -0.1088  0.1910
19852TIP3    H181047   5.257   2.342  13.835  1.4142  0.7593 -1.7713
19852TIP3    H281048   5.168   2.232  13.780  0.6040 -0.1797  1.3192
19853TIP3   OH281049   4.081   2.063  12.468 -0.2147 -0.3191  0.5617
19853TIP3    H181050   4.067   2.103  12.382 -1.0431 -1.3499  0.2155
19853TIP3    H281051   4.141   1.990  12.451  1.1266  0.6196  1.1614
19854TIP3   OH281052   5.099   1.088   0.402  0.2940  0.2859 -0.2641
19854TIP3    H181053   5.075   1.009   0.450 -0.6185  1.0546  0.5488
19854TIP3    H281054   5.050   1.158   0.444  0.7556  1.2261 -1.2656
19855TIP3   OH281055   1.957   5.997  12.109  0.3666 -0.1261 -0.5814
19855TIP3    H181056   1.939   5.967  12.020 -0.2406  0.1826 -0.5669
19855TIP3    H281057   2.032   6.056  12.100  1.1257 -1.1061 -0.7010
19856TIP3   OH281058   2.939   2.748   4.772  0.1020 -0.2369  0.0135
19856TIP3    H181059   2.969   2.826   4.817  0.5862  1.1131 -2.5266
19856TIP3    H281060   2.986   2.676   4.814  0.6612  0.9802  1.5021
19857TIP3   OH281061   4.791   0.751   0.223  0.1318 -0.0905 -0.3302
19857TIP3    H181062   4.796   0.843   0.198 -0.1393 -0.1653 -0.6584
19857TIP3    H281063   4.846   0.744   0.301  0.5340  0.2529 -0.5842
19858TIP3   OH281064   1.900   1.589  12.571  0.5783  0.5088 -0.2675
19858TIP3    H181065   1.908   1.534  12.649  1.9388  0.9881 -0.0511
19858TIP3    H281066   1.829   1.650  12.591  0.4142  0.1376  0.2890
19859TIP3   OH281067   0.826   3.451   4.860 -0.0216  0.4085  0.7159
19859TIP3    H181068   0.865   3.367   4.834  0.1741  0.7524 -0.1098
19859TIP3    H281069   0.768   3.428   4.933  1.2305 -0.1944  1.5248
19860TIP3   OH281070   5.795   6.173  13.737 -0.0749 -0.1694 -0.4926
19860TIP3    H181071   5.751   6.152  13.655 -1.1954  1.9189 -0.4732
19860TIP3    H281072   5.740   6.135  13.806  0.5824 -1.4616 -0.6734
19861TIP3   OH281073   2.910   4.133  14.552  0.2760 -0.0351  0.8688
19861TIP3    H181074   2.954   4.151  14.469  1.7360 -1.7117  1.2708
19861TIP3    H281075   2.950   4.194  14.614 -0.6437  1.0489  0.4129
19862TIP3   OH281076   0.639   3.288   5.973 -0.1082 -0.2156 -0.2968
19862TIP3    H181077   0.620   3.217   5.911  0.4110  0.8363 -1.6782
19862TIP3    H281078   0.611   3.367   5.928  0.7924  0.6217  0.5977
19863TIP3   OH281079   0.466   4.630   5.070  0.3392  0.6430 -0.0867
19863TIP3    H181080   0.519   4.569   5.019  0.1194 -1.0594  1.6542
19863TIP3    H281081   0.381   4.631   5.026  0.6928  0.5289 -0.7668
19864TIP3   OH281082   6.513   6.385  12.882 -0.1370 -0.2313 -0.3261
19864TIP3    H181083   6.432   6.363  12.928  0.7980 -2.2055  0.4238
19864TIP3    H281084   6.490   6.382  12.789 -1.0873 -0.0738 -0.0979
19865TIP3   OH281085   5.075   4.268   4.801 -0.1230  0.1924  0.1601
19865TIP3    H181086   5.064   4.307   4.714 -0.1640  0.8040  0.4389
19865TIP3    H281087   5.100   4.177   4.783  0.4943  0.4857 -0.4917
19866TIP3   OH281088   5.326   2.633   0.982  0.0354 -0.1023 -0.0328
19866TIP3    H181089   5.347   2.626   1.075  0.2539 -0.3326 -0.1004
19866TIP3    H281090   5.330   2.727   0.963 -1.3200  0.0857  0.4994
19867TIP3   OH281091   4.085   0.805   3.070  0.0074  0.1318  0.2249
19867TIP3    H181092   4.144   0.867   3.026  1.1394 -1.3844 -0.4407
19867TIP3    H281093   4.037   0.858   3.133  0.1598  1.8965 -1.1043
19868TIP3   OH281094   0.239   5.823  16.552  0.0163 -0.3518  0.6544
19868TIP3    H181095   0.325   5.783  16.552  0.9762  1.3736 -4.3544
19868TIP3    H281096   0.182   5.757  16.512 -0.2040 -0.0663  0.4968
19869TIP3   OH281097   0.161   0.462  11.868 -0.0855 -0.0542  0.0705
19869TIP3    H181098   0.213   0.419  11.800 -0.5360  0.0092 -0.3192
19869TIP3    H281099   0.076   0.479  11.826  0.2487  1.6612  0.0519
19870TIP3   OH281100   4.308   2.493   2.011 -0.0136  0.1451  0.0385
19870TIP3    H181101   4.286   2.432   1.940  2.4527 -1.1185  0.3238
19870TIP3    H281102   4.392   2.531   1.986  0.6249  0.1109  2.0145
19871TIP3   OH281103   4.286   5.067   1.395 -0.6475 -0.4600 -0.2182
19871TIP3    H181104   4.344   5.008   1.346 -1.2469 -0.3414 -1.0885
19871TIP3    H281105   4.340   5.143   1.416 -0.1209 -0.9321  0.1194
19872TIP3   OH281106   5.562   5.893  15.757  0.2064 -0.1551  0.2355
19872TIP3    H181107   5.521   5.972  15.793 -0.3389 -0.6240  0.6428
19872TIP3    H281108   5.492   5.848  15.711  0.6038 -0.2240 -0.3171
19873TIP3   OH281109   5.111   0.768   5.648  0.2412  0.4633 -0.4344
19873TIP3    H181110   5.175   0.831   5.681 -0.7623  1.9881 -1.3374
19873TIP3    H281111   5.075   0.727   5.726 -0.9254  2.8584  0.3146
19874TIP3   OH281112   0.177   0.305  11.197  0.8782 -0.1792  0.9366
19874TIP3    H181113   0.172   0.279  11.105  0.6491 -0.5243  1.0426
19874TIP3    H281114   0.086   0.301  11.227  1.0521 -0.8137  1.3775
19875TIP3   OH281115   6.517   6.163  11.203  0.3928 -0.2859 -0.0378
19875TIP3    H181116   6.507   6.152  11.109 -0.5137  0.9468 -0.1001
19875TIP3    H281117   6.447   6.110  11.241 -0.7765  1.1303 -0.1601
19876TIP3   OH281118   0.627   2.334  13.845 -0.0607  0.0740  0.5247
19876TIP3    H181119   0.559   2.274  13.815 -1.5157  0.9946  1.9117
19876TIP3    H281120   0.698   2.277  13.874  0.4986 -0.8702 -2.5103
19877TIP3   OH281121   6.246   2.954   0.104 -0.2450  0.0642  0.4593
19877TIP3    H181122   6.198   3.032   0.075 -0.8820 -0.2512  0.6675
19877TIP3    H281123   6.291   2.923   0.026  0.5561  1.0326  0.5252
19878TIP3   OH281124   5.389   5.917   6.467  0.1471 -0.3099 -0.3109
19878TIP3    H181125   5.398   5.921   6.562  0.2197  0.4435 -0.3429
19878TIP3    H281126   5.313   5.862   6.452 -0.7720  0.8053  0.2240
19879TIP3   OH281127   1.339   3.990   3.846 -0.1865  0.5628  0.0501
19879TIP3    H181128   1.402   4.046   3.801  1.8149 -1.0893  0.7074
19879TIP3    H281129   1.371   3.986   3.936 -1.5370  0.1309  0.5174
19880TIP3   OH281130   5.707   0.545   2.280  0.4173  0.4965  0.1217
19880TIP3    H181131   5.614   0.525   2.265  0.5947  1.9495 -3.2843
19880TIP3    H281132   5.711   0.641   2.277  1.9663  0.4591  0.7749
19881TIP3   OH281133   4.868   3.064   3.542 -0.3793 -0.7109  0.3173
19881TIP3    H181134   4.886   3.004   3.470  1.1730  1.1353 -0.8916
19881TIP3    H281135   4.952   3.106   3.559 -1.3297  0.7784  1.4529
19882TIP3   OH281136   5.506   3.324   3.435 -0.3239  0.7413  0.5465
19882TIP3    H181137   5.556   3.397   3.400  0.3918 -0.7567 -1.6661
19882TIP3    H281138   5.544   3.308   3.521  1.8361  0.7854 -0.3621
19883TIP3   OH281139   2.931   1.461   2.225  0.2105 -0.2870  0.0787
19883TIP3    H181140   2.928   1.544   2.177 -1.0540 -0.5288 -0.2927
19883TIP3    H281141   2.902   1.484   2.313  0.9286 -0.1363  0.2744
19884TIP3   OH281142   6.004   0.887  12.706  0.1565  0.2354  0.0940
19884TIP3    H181143   5.980   0.822  12.772 -0.0471  1.3352  1.1046
19884TIP3    H281144   5.954   0.862  12.629  0.7319 -1.3247  0.2015
19885TIP3   OH281145   5.181   5.251  15.298 -0.1181 -0.1960 -0.3889
19885TIP3    H181146   5.180   5.172  15.244 -0.9433  0.3402 -1.1731
19885TIP3    H281147   5.171   5.220  15.388 -0.8878 -0.9557 -0.7335
19886TIP3   OH281148   4.423   2.772   0.578 -0.1348  0.6634 -0.1941
19886TIP3    H181149   4.356   2.789   0.645 -0.1486 -2.9662  0.8614
19886TIP3    H281150   4.377   2.783   0.495 -1.3000  0.9549  0.4771
19887TIP3   OH281151   6.550   1.135  15.855  0.0877 -0.3612  0.5945
19887TIP3    H181152   6.532   1.093  15.771 -0.7502  0.6236  0.2571
19887TIP3    H281153   6.644   1.153  15.853  0.3265 -1.5643  0.4509
19888TIP3   OH281154   0.312   4.171   3.070  0.3639  0.3823 -0.4471
19888TIP3    H181155   0.275   4.253   3.104  2.7682  0.8573  1.0990
19888TIP3    H281156   0.388   4.199   3.018  0.0902 -0.7629 -1.4982
19889TIP3   OH281157   0.167   1.501   0.857  0.0235  0.3056  0.3811
19889TIP3    H181158   0.120   1.540   0.931 -1.7279 -0.6238 -0.2222
19889TIP3    H281159   0.219   1.430   0.895  1.6403  1.8617  1.1737
19890TIP3   OH281160   1.802   2.628   0.482 -0.2709 -0.0920 -0.2417
19890TIP3    H181161   1.793   2.716   0.518  2.5111 -0.2026  0.7956
19890TIP3    H281162   1.711   2.599   0.469 -1.2444  2.4876  0.4113
19891TIP3   OH281163   2.963   3.464  12.436  0.3588  0.6008  0.7281
19891TIP3    H181164   2.872   3.492  12.438 -0.3962 -1.5853 -1.6704
19891TIP3    H281165   3.013   3.546  12.432 -1.5449  1.7543  0.0668
19892TIP3   OH281166   2.970   2.356  13.527 -0.6028 -0.4205 -0.5012
19892TIP3    H181167   2.892   2.314  13.489  0.0374  0.2522 -2.6426
19892TIP3    H281168   2.989   2.429  13.467  1.2339 -0.1176  0.4207
19893TIP3   OH281169   1.338   4.262  14.891  0.1486  0.6208 -0.0492
19893TIP3    H181170   1.417   4.274  14.944 -0.7245 -0.3584  1.5031
19893TIP3    H281171   1.363   4.195  14.827  0.9454  1.1927 -0.3490
19894TIP3   OH281172   1.134   2.363   5.720  0.2086  0.0823  0.7985
19894TIP3    H181173   1.206   2.426   5.726  0.6290 -0.4654  1.4709
19894TIP3    H281174   1.176   2.279   5.702 -0.1976 -0.3568  1.8170
19895TIP3   OH281175   4.422   5.491  14.454  0.2907 -0.7990  0.2293
19895TIP3    H181176   4.349   5.530  14.407  1.1806  1.9276  1.0410
19895TIP3    H281177   4.399   5.398  14.460 -2.3765 -0.2564 -0.8097
19896TIP3   OH281178   5.254   4.973  12.074  0.1001 -0.3169  0.3747
19896TIP3    H181179   5.163   4.971  12.101  0.2830 -0.6597  0.9835
19896TIP3    H281180   5.254   5.019  11.990 -0.7420 -1.1709 -0.0983
19897TIP3   OH281181   5.815   1.653  16.546 -0.1752  0.3307  0.7646
19897TIP3    H181182   5.742   1.714  16.536  0.3398  0.7736 -0.3380
19897TIP3    H281183   5.859   1.654  16.461 -0.5259 -2.0586  0.5367
19898TIP3   OH281184   1.194   1.558   1.723 -0.4183  0.3386  0.7476
19898TIP3    H181185   1.270   1.500   1.716 -1.3063 -0.6590 -1.0272
19898TIP3    H281186   1.230   1.641   1.753  1.3367 -0.1888  0.1700
19899TIP3   OH281187   5.443   2.374  14.813 -0.0154 -0.1700  0.5494
19899TIP3    H181188   5.439   2.389  14.719 -0.1990 -0.3797  0.5232
19899TIP3    H281189   5.387   2.442  14.851  0.3513  0.1458  0.5332
19900TIP3   OH281190   3.766   1.956   5.672 -0.0265  0.1342 -0.3997
19900TIP3    H181191   3.824   1.977   5.745  0.3955  2.2668 -1.2958
19900TIP3    H281192   3.823   1.962   5.595 -0.7533 -0.8614 -1.0264
19901TIP3   OH281193   5.827   5.872   4.749 -0.1883 -0.3662  0.2005
19901TIP3    H181194   5.743   5.829   4.765 -0.2192 -0.5665 -0.4847
19901TIP3    H281195   5.854   5.906   4.835  0.8201 -3.5407  1.2114
19902TIP3   OH281196   2.394   1.715   2.807  0.0820 -0.1023  0.0198
19902TIP3    H181197   2.424   1.651   2.872 -0.8305  2.0639  2.6305
19902TIP3    H281198   2.312   1.678   2.775 -0.4810 -0.2206  1.5608
19903TIP3   OH281199   0.367   4.688  15.383  0.3609 -0.1153 -0.3181
19903TIP3    H181200   0.400   4.745  15.452 -3.0962  2.0901 -0.3695
19903TIP3    H281201   0.282   4.657  15.416  0.6413 -2.5515 -1.7471
19904TIP3   OH281202   5.831   4.181  10.988 -0.2188 -0.2170 -0.0222
19904TIP3    H181203   5.809   4.104  10.935 -0.2563 -0.5054  0.4139
19904TIP3    H281204   5.925   4.192  10.978 -0.3979  0.4712 -1.1518
19905TIP3   OH281205   2.955   5.243  16.067  0.0649 -0.0631  0.2500
19905TIP3    H181206   2.953   5.193  16.148 -0.4812 -1.0265 -0.3574
19905TIP3    H281207   2.867   5.235  16.031  0.0232  1.1866  0.0604
19906TIP3   OH281208   0.740   2.613   6.517  0.1765 -0.0265 -0.2902
19906TIP3    H181209   0.801   2.654   6.579  1.4454  0.3839 -1.7738
19906TIP3    H281210   0.755   2.519   6.528  0.0951  0.0349  0.3386
19907TIP3   OH281211   0.152   2.455  13.467 -0.6890  0.5569  0.1028
19907TIP3    H181212   0.106   2.423  13.545 -2.4283  1.0332 -0.7147
19907TIP3    H281213   0.226   2.505  13.502 -2.7513  2.7172  1.5118
19908TIP3   OH281214   4.164   5.791   2.204 -0.0610 -0.0780 -0.0090
19908TIP3    H181215   4.177   5.744   2.121 -1.0441  0.4740 -0.4896
19908TIP3    H281216   4.093   5.852   2.185  1.8312  2.2777  0.3279
19909TIP3   OH281217   2.031   1.864  11.583  0.1406  0.3132  0.4027
19909TIP3    H181218   2.097   1.927  11.554 -0.4507 -0.3580 -2.5067
19909TIP3    H281219   2.081   1.786  11.606  0.4954  0.3175 -0.3496
19910TIP3   OH281220   6.600   1.142   2.316 -0.2051 -0.6290  0.0886
19910TIP3    H181221   6.535   1.203   2.281  1.3160 -0.5671 -2.7603
19910TIP3    H281222   6.664   1.198   2.361  0.5586 -0.2144 -1.4969
19911TIP3   OH281223   0.005   1.699   2.918 -0.4426  0.2042 -0.0276
19911TIP3    H181224   0.054   1.781   2.916  0.7607 -0.5164 -0.3662
19911TIP3    H281225   0.054   1.643   2.978  0.2569 -1.2127 -1.8802
19912TIP3   OH281226   6.369   3.705  15.562  0.3305 -0.2942 -0.7226
19912TIP3    H181227   6.371   3.669  15.651 -0.6796 -0.6202 -0.8268
19912TIP3    H281228   6.441   3.768  15.560  1.2198 -1.2781 -0.0901
19913TIP3   OH281229   6.452   1.358   2.199  0.3219  0.9573  0.2499
19913TIP3    H181230   6.364   1.393   2.216  0.5154  1.5700  0.0117
19913TIP3    H281231   6.459   1.358   2.104  1.4459  3.1278  0.2990
19914TIP3   OH281232   3.003   6.011   4.576  0.2444  0.2821  0.1166
19914TIP3    H181233   2.918   6.022   4.533  0.0599 -0.6602  0.2311
19914TIP3    H281234   2.982   5.991   4.667  0.5813 -0.0881  0.1152
19915TIP3   OH281235   5.483   6.800  13.853  0.1041 -0.5909 -0.3538
19915TIP3    H181236   5.550   6.802  13.921  0.0897 -0.2074 -0.3496
19915TIP3    H281237   5.524   6.843  13.778 -1.3498  2.9657  0.7632
19916TIP3   OH281238   0.263   0.342   2.574 -0.3356  0.0213  0.3890
19916TIP3    H181239   0.268   0.254   2.539  1.4651 -0.5234  1.8970
19916TIP3    H281240   0.170   0.356   2.592 -0.6998 -1.3597 -0.3760
19917TIP3   OH281241   4.244   3.045   4.152  0.5064 -0.2253 -0.4846
19917TIP3    H181242   4.232   3.044   4.057 -2.8754 -3.1355 -0.1213
19917TIP3    H281243   4.227   2.955   4.179 -0.5105  0.9689  3.0841
19918TIP3   OH281244   6.577   0.948  13.416  0.4039  0.2915  0.0023
19918TIP3    H181245   6.589   1.043  13.410 -1.2809  0.5784  0.7078
19918TIP3    H281246   6.482   0.937  13.426  0.3845 -1.5542 -1.8835
19919TIP3   OH281247   4.896   6.100  13.958  0.0549  0.1893  0.5365
19919TIP3    H181248   4.842   6.163  14.005 -1.0989 -0.2284 -0.2065
19919TIP3    H281249   4.867   6.107  13.867  0.4215 -0.8856  0.3300
19920TIP3   OH281250   3.923   6.591  13.255  0.2023  0.2297  0.2107
19920TIP3    H181251   3.888   6.577  13.167  1.0726  2.3205 -0.4947
19920TIP3    H281252   3.924   6.687  13.265 -0.4267  0.0030  2.7137
19921TIP3   OH281253   3.604   0.772  12.385  0.4176  0.2902 -0.6981
19921TIP3    H181254   3.679   0.807  12.337 -0.1237  0.7421 -1.2316
19921TIP3    H281255   3.591   0.685  12.348 -0.1182  0.7125 -1.5239
19922TIP3   OH281256   3.140   2.826  10.774  0.3256  0.1985 -0.4540
19922TIP3    H181257   3.138   2.745  10.826 -0.0606  0.3774 -0.1925
19922TIP3    H281258   3.178   2.799  10.690 -0.1409 -0.3373 -0.5013
19923TIP3   OH281259   3.221   5.898   4.481  0.0801  0.3404  0.1732
19923TIP3    H181260   3.232   5.927   4.390 -0.5460  0.0393  0.0016
19923TIP3    H281261   3.163   5.964   4.520  0.4376  0.5317  0.3889
19924TIP3   OH281262   0.272   2.930   2.380  0.2344 -0.3238  0.0890
19924TIP3    H181263   0.214   2.921   2.456 -0.4365 -0.7804 -0.4727
19924TIP3    H281264   0.222   2.983   2.318  1.8537  2.4303  1.0371
19925TIP3   OH281265   4.576   0.392   3.082  0.1704  0.4147  0.3205
19925TIP3    H181266   4.510   0.461   3.077  0.0868  0.1858 -2.1291
19925TIP3    H281267   4.657   0.434   3.052  0.7405  0.1850  1.5034
19926TIP3   OH281268   0.880   2.630  15.718  0.4955  0.7872  0.0381
19926TIP3    H181269   0.964   2.598  15.688  0.2249 -0.0120  0.1092
19926TIP3    H281270   0.857   2.572  15.791 -0.1118  0.9898  0.0142
19927TIP3   OH281271   0.218   5.432   5.067  0.1698 -0.4371  1.0238
19927TIP3    H181272   0.236   5.474   4.983  1.8329  0.0113  1.5974
19927TIP3    H281273   0.225   5.339   5.049 -0.0870 -0.3627  0.5276
19928TIP3   OH281274   0.587   4.745  17.159  0.3508 -0.4726 -0.0673
19928TIP3    H181275   0.624   4.773  17.242 -0.0439  2.1229 -0.7378
19928TIP3    H281276   0.492   4.744  17.174  0.2629  0.2718 -0.5523
19929TIP3   OH281277   2.854   1.870  13.372 -0.1660 -0.2887 -0.1271
19929TIP3    H181278   2.917   1.941  13.382  0.0193 -0.3581 -0.8442
19929TIP3    H281279   2.905   1.790  13.387  0.0583 -0.3810 -1.4017
19930TIP3   OH281280   5.903   4.054  12.111  0.0674 -0.3752 -0.1414
19930TIP3    H181281   5.892   4.139  12.068 -1.4146 -0.9372 -0.8930
19930TIP3    H281282   5.859   4.064  12.195 -0.4477 -0.5101 -0.3915
19931TIP3   OH281283   4.968   0.184  14.787  0.5379  0.1659  0.2029
19931TIP3    H181284   5.045   0.237  14.808  1.0142 -0.0653 -0.9100
19931TIP3    H281285   4.912   0.242  14.735 -0.2695  0.4915  1.4372
19932TIP3   OH281286   4.513   1.780  16.528  0.3951  0.0803 -0.2532
19932TIP3    H181287   4.424   1.760  16.501 -0.0550 -0.6488  1.6566
19932TIP3    H281288   4.529   1.870  16.497 -1.9106  1.1546  1.5610
19933TIP3   OH281289   0.966   5.291  15.202 -0.2613  0.2648  0.0670
19933TIP3    H181290   0.979   5.198  15.185  0.6500  0.1294  1.4229
19933TIP3    H281291   1.054   5.327  15.206 -0.5608  0.8952  1.0889
19934TIP3   OH281292   6.754   1.437   5.791  0.0271  0.5517 -0.5494
19934TIP3    H181293   6.763   1.365   5.729 -0.0116  1.9141 -2.1714
19934TIP3    H281294   6.824   1.498   5.768  0.2760  0.8837  1.0284
19935TIP3   OH281295   2.457   6.078   4.033 -0.0669  0.2955 -0.1396
19935TIP3    H181296   2.544   6.039   4.038 -0.1434  0.1806  0.4042
19935TIP3    H281297   2.447   6.104   3.942  0.1251 -0.6538 -0.4426
19936TIP3   OH281298   6.128   4.126   3.485 -0.1675  0.1832  0.0113
19936TIP3    H181299   6.040   4.158   3.467  0.1216  0.7092 -0.4998
19936TIP3    H281300   6.139   4.136   3.579 -0.9423 -0.6251  0.1899
19937TIP3   OH281301   3.531   1.565   1.026 -0.5048  0.0764  0.2148
19937TIP3    H181302   3.523   1.470   1.023  0.4043  0.0022 -0.1824
19937TIP3    H281303   3.489   1.591   1.108  0.2151 -0.7763  0.8616
19938TIP3   OH281304   2.637   5.486  15.947 -0.7239  0.1297 -0.2992
19938TIP3    H181305   2.673   5.513  16.032  0.5660 -1.8449 -0.1869
19938TIP3    H281306   2.547   5.517  15.948 -0.5367  0.6648  1.5554
19939TIP3   OH281307   3.475   2.522   0.237  0.1415  0.1690  0.2848
19939TIP3    H181308   3.391   2.525   0.190  1.3065  0.3669 -1.8304
19939TIP3    H281309   3.456   2.561   0.323 -1.3571  2.5237 -1.0751
19940TIP3   OH281310   6.263   3.165   4.772 -0.0982 -0.0898  0.6563
19940TIP3    H181311   6.266   3.220   4.694  1.8633 -0.8695  0.1662
19940TIP3    H281312   6.276   3.225   4.845 -0.7151  0.4631  0.3176
19941TIP3   OH281313   3.344   5.682   0.755 -0.7134  0.1748  0.0858
19941TIP3    H181314   3.308   5.746   0.693 -2.3383  1.6249  2.4237
19941TIP3    H281315   3.431   5.716   0.776 -0.9135  0.7238  0.0425
19942TIP3   OH281316   0.182   3.195  15.076 -0.3312 -0.1842  0.0975
19942TIP3    H181317   0.144   3.112  15.106  0.2117 -0.6532 -0.4855
19942TIP3    H281318   0.108   3.256  15.073 -0.7234 -0.6303  0.5883
19943TIP3   OH281319   4.057   4.063   3.971  0.4827  0.6647  0.1372
19943TIP3    H181320   4.092   4.152   3.974 -0.7337  1.1161  1.3915
19943TIP3    H281321   3.971   4.069   4.012  0.4587 -1.1251  0.4065
19944TIP3   OH281322   0.969   4.404  14.551 -0.3566  0.2614  0.0215
19944TIP3    H181323   0.994   4.419  14.643  0.6894 -0.3625 -0.1550
19944TIP3    H281324   0.909   4.330  14.555  1.4193 -1.2087 -0.0074
19945TIP3   OH281325   6.419   1.531  16.796 -0.0752 -0.1714 -0.2208
19945TIP3    H181326   6.487   1.585  16.837  0.6739 -1.5654  0.3966
19945TIP3    H281327   6.467   1.469  16.741 -0.9070 -0.4959 -0.5836
19946TIP3   OH281328   1.098   2.852  12.102  0.5475 -0.5492  0.4085
19946TIP3    H181329   1.011   2.838  12.140 -0.8486  2.1848 -1.6611
19946TIP3    H281330   1.098   2.799  12.023  0.0625  0.8878 -0.5650
19947TIP3   OH281331   4.103   1.066  13.153  1.0137 -0.7357 -0.1359
19947TIP3    H181332   4.051   1.136  13.114  2.4738 -0.4038 -1.5279
19947TIP3    H281333   4.163   1.110  13.213 -0.0558 -1.0891  1.2225
19948TIP3   OH281334   1.594   2.762  13.452  0.6487 -0.0071 -0.0621
19948TIP3    H181335   1.679   2.741  13.491 -0.5235  0.3804  2.8019
19948TIP3    H281336   1.552   2.677  13.437 -0.6833 -0.1261  3.7615
19949TIP3   OH281337   5.795   1.748   5.869 -0.2608 -0.0320 -0.0474
19949TIP3    H181338   5.765   1.768   5.958 -1.7325 -0.6389 -0.3871
19949TIP3    H281339   5.886   1.721   5.879 -0.8814 -1.6572  1.4776
19950TIP3   OH281340   1.113   4.996   5.296  0.0614  0.7529 -0.3182
19950TIP3    H181341   1.083   5.077   5.255 -5.8202 -1.9460 -1.7807
19950TIP3    H281342   1.153   4.947   5.224 -0.3407  0.5175 -0.3782
19951TIP3   OH281343   0.144   3.741  11.446 -0.0446  0.2856  0.1225
19951TIP3    H181344   0.153   3.833  11.468  2.3657  0.0974  0.0326
19951TIP3    H281345   0.231   3.704  11.458 -1.1785 -2.2042  1.1148
19952TIP3   OH281346   2.976   5.550  15.637  0.7350 -0.0988  0.1124
19952TIP3    H181347   3.043   5.617  15.630  0.2243  0.5656  1.2662
19952TIP3    H281348   3.023   5.470  15.661  1.1567  0.2712  0.5131
19953TIP3   OH281349   1.129   3.616   2.130  0.3064 -0.2735 -0.1661
19953TIP3    H181350   1.153   3.697   2.175 -0.9044 -0.6318  1.1851
19953TIP3    H281351   1.161   3.547   2.188 -1.5193 -0.7488  0.3021
19954TIP3   OH281352   4.914   5.248   2.096 -0.1277  0.1497  0.2259
19954TIP3    H181353   4.994   5.244   2.148  0.9045  1.3748 -1.2019
19954TIP3    H281354   4.853   5.298   2.149  0.0907 -0.6936  1.2787
19955TIP3   OH281355   0.035   5.592  11.712 -0.1278 -1.1117 -0.0247
19955TIP3    H181356  -0.041   5.628  11.757 -0.1277  0.2070 -1.0590
19955TIP3    H281357   0.111   5.627  11.759 -0.1370 -1.5039  0.2905
19956TIP3   OH281358   1.648   1.282  11.935  0.1555  0.2216 -0.1664
19956TIP3    H181359   1.672   1.276  12.028 -0.4523  1.1773  0.0640
19956TIP3    H281360   1.696   1.210  11.893  1.5497  0.6454  0.6588
19957TIP3   OH281361   2.400   3.554  15.424  0.0143 -0.4696 -0.1728
19957TIP3    H181362   2.409   3.542  15.518  1.2602  1.2191 -0.0561
19957TIP3    H281363   2.474   3.506  15.386  0.5027  0.2539 -0.1628
19958TIP3   OH281364   0.957   1.896  14.620  0.0587  0.2571  0.2458
19958TIP3    H181365   0.878   1.902  14.566 -0.9836 -0.9375  1.5960
19958TIP3    H281366   0.955   1.973  14.676  0.7378  1.0916 -0.8487
19959TIP3   OH281367   6.307   1.266   0.135 -0.2795 -0.3542 -0.6074
19959TIP3    H181368   6.243   1.239   0.069  1.5364  0.3173 -2.7315
19959TIP3    H281369   6.301   1.361   0.137 -0.1554 -0.3600  0.0138
19960TIP3   OH281370   2.595   0.303  11.153  0.0468  0.5475  0.0001
19960TIP3    H181371   2.585   0.371  11.087  2.0232  0.9662  0.0956
19960TIP3    H281372   2.686   0.275  11.145  0.2739  0.5026  2.4438
19961TIP3   OH281373   1.145   4.229   4.622 -0.4029 -0.2060 -0.3969
19961TIP3    H181374   1.143   4.265   4.533 -0.0405 -0.2193 -0.4109
19961TIP3    H281375   1.221   4.271   4.662 -0.2931 -0.5572 -0.2420
19962TIP3   OH281376   0.006   3.972   3.624 -0.2883  0.4706  0.5581
19962TIP3    H181377  -0.012   3.956   3.716  1.1030  1.3314  1.0019
19962TIP3    H281378   0.091   4.015   3.624  0.5760 -1.1797 -1.2667
19963TIP3   OH281379   2.487   3.659  12.720  0.1010 -0.5105  0.1394
19963TIP3    H181380   2.477   3.568  12.692  0.3591 -0.9120  1.3520
19963TIP3    H281381   2.485   3.709  12.638 -1.9818 -1.4316 -0.4117
19964TIP3   OH281382   6.764   2.558   5.622 -0.0793 -0.3178  0.1512
19964TIP3    H181383   6.683   2.525   5.584  0.4868 -1.2397 -0.2656
19964TIP3    H281384   6.792   2.490   5.683  0.6164 -0.2042 -0.0376
19965TIP3   OH281385   3.480   3.996  12.432 -0.2909 -0.4268  0.3648
19965TIP3    H181386   3.408   4.014  12.493  1.6385  1.4530  2.1357
19965TIP3    H281387   3.462   4.054  12.357 -1.6598 -1.3904 -0.0721
19966TIP3   OH281388   3.707   3.376  16.224  0.4422  0.2159  0.2781
19966TIP3    H181389   3.640   3.444  16.221 -0.0956 -0.3815 -2.4346
19966TIP3    H281390   3.662   3.299  16.258  0.0046  0.0975 -0.5616
19967TIP3   OH281391   1.834   5.438   2.022  0.3687  0.3787 -0.6253
19967TIP3    H181392   1.907   5.468   1.968  0.8982 -0.4204 -0.3637
19967TIP3    H281393   1.864   5.356   2.061  0.2260  1.2239  1.3548
19968TIP3   OH281394   3.191   6.763  13.786 -0.0368  0.6420  0.0235
19968TIP3    H181395   3.118   6.711  13.820 -0.7190  1.4436 -0.2030
19968TIP3    H281396   3.239   6.791  13.865  0.7755 -0.9519  0.1082
19969TIP3   OH281397   2.443   3.112  10.227 -0.0687  0.2733  0.1195
19969TIP3    H181398   2.348   3.099  10.224 -0.2548  1.3860  0.9795
19969TIP3    H281399   2.455   3.206  10.219  0.9003  0.2750  1.3453
19970TIP3   OH281400   0.798   4.932   5.915 -0.4314  0.1152  1.1370
19970TIP3    H181401   0.803   5.016   5.870  2.2189 -0.6113  0.0164
19970TIP3    H281402   0.705   4.908   5.909 -0.8947  2.0571 -0.1362
19971TIP3   OH281403   0.017   1.196  15.810 -0.1013 -0.1045 -0.7435
19971TIP3    H181404   0.093   1.244  15.778  0.7654 -1.0786 -0.1669
19971TIP3    H281405   0.019   1.113  15.762  0.1167 -0.7853  0.4086
19972TIP3   OH281406   6.698   2.840   5.491 -0.0625 -0.2471 -0.6914
19972TIP3    H181407   6.788   2.825   5.461 -0.7419  0.9843 -3.6099
19972TIP3    H281408   6.649   2.765   5.456 -0.4525 -0.0237 -0.6240
19973TIP3   OH281409   3.846   3.888   3.828  0.1570  0.0529  0.3006
19973TIP3    H181410   3.764   3.843   3.802  1.9608 -2.7495 -0.8474
19973TIP3    H281411   3.859   3.862   3.919 -0.1369  0.3847  0.4401
19974TIP3   OH281412   3.897   4.220   6.119  0.0784 -0.0928  0.1277
19974TIP3    H181413   3.877   4.190   6.208  1.9143 -0.5455  0.4025
19974TIP3    H281414   3.944   4.302   6.130  0.3753 -0.1829 -0.4187
19975TIP3   OH281415   5.770   1.719  13.892  0.7479 -0.0336  0.1264
19975TIP3    H181416   5.683   1.714  13.852  0.2673  0.2873  1.1147
19975TIP3    H281417   5.822   1.655  13.843  0.0728  0.0786 -0.7531
19976TIP3   OH281418   1.874   2.763   5.279 -0.2141 -0.0007 -0.0836
19976TIP3    H181419   1.820   2.830   5.322  0.0849 -0.1662  0.5535
19976TIP3    H281420   1.908   2.710   5.351 -1.3462 -1.5259 -0.6606
19977TIP3   OH281421   2.799   0.468   5.553 -0.6692  0.1091 -0.0815
19977TIP3    H181422   2.781   0.520   5.475  0.5016  0.7407  0.0582
19977TIP3    H281423   2.860   0.401   5.523 -0.5394  0.1014  0.1959
19978TIP3   OH281424   0.438   1.768   2.390  0.2946 -0.3437  0.2076
19978TIP3    H181425   0.501   1.798   2.324 -0.8773 -1.1125 -1.2820
19978TIP3    H281426   0.353   1.801   2.359 -0.2541 -0.5874  1.4199
19979TIP3   OH281427   3.850   2.148   2.250  0.3693 -0.1916  0.5424
19979TIP3    H181428   3.802   2.083   2.199 -2.8937  2.0414  0.6181
19979TIP3    H281429   3.850   2.113   2.339 -1.2088 -0.1643  0.5548
19980TIP3   OH281430   4.396   6.507   1.275  0.0577 -0.0236 -0.5013
19980TIP3    H181431   4.306   6.484   1.298  0.1531 -0.2759 -0.3704
19980TIP3    H281432   4.421   6.572   1.340 -0.2191  0.4679 -0.8803
19981TIP3   OH281433   1.747   3.918   3.724 -0.4979 -0.0446 -0.3165
19981TIP3    H181434   1.673   3.859   3.711 -1.0858  0.7094 -0.4527
19981TIP3    H281435   1.776   3.902   3.813 -1.5140  0.4121  0.1050
19982TIP3   OH281436   5.045   6.689  13.080  0.1267  0.7336  0.6920
19982TIP3    H181437   5.138   6.708  13.078  0.3189 -0.0933  1.3074
19982TIP3    H281438   5.003   6.768  13.047  1.0250  1.2261  0.7197
19983TIP3   OH281439   2.518   4.287   5.894  0.0543 -0.4144 -0.0546
19983TIP3    H181440   2.428   4.304   5.864  1.2922  0.0967 -3.8047
19983TIP3    H281441   2.571   4.296   5.815  3.5953  0.5563  2.3229
19984TIP3   OH281442   6.627   1.336  13.947  0.3584  0.4371  0.2089
19984TIP3    H181443   6.578   1.254  13.935  1.2881  0.1515 -1.9380
19984TIP3    H281444   6.562   1.404  13.929  0.4072  0.0788 -1.4667
19985TIP3   OH281445   2.164   4.928  15.705 -0.4969  0.0523  0.0528
19985TIP3    H181446   2.232   4.860  15.706  0.2564  0.8025  1.3489
19985TIP3    H281447   2.157   4.954  15.613  1.4459  0.3986 -0.0194
19986TIP3   OH281448   4.888   6.686  17.056  0.3719  0.4466  0.1011
19986TIP3    H181449   4.825   6.629  17.011 -0.0074  1.1936 -0.3201
19986TIP3    H281450   4.862   6.681  17.148  2.1829 -2.4046  0.5077
19987TIP3   OH281451   0.078   3.158  11.434 -0.3494 -0.4571  0.2777
19987TIP3    H181452   0.000   3.185  11.385 -0.6587  2.0908  2.0951
19987TIP3    H281453   0.062   3.067  11.456 -1.6508 -0.7039 -1.5643
19988TIP3   OH281454   5.221   5.083  13.881  0.4779 -0.4385  0.4178
19988TIP3    H181455   5.247   5.064  13.971 -0.1264  0.3801  0.7737
19988TIP3    H281456   5.299   5.122  13.841  1.8045 -3.7230 -0.3794
19989TIP3   OH281457   2.657   1.802   1.948  0.2783  0.2777 -0.0373
19989TIP3    H181458   2.734   1.802   1.891 -0.8715  1.1715 -1.6358
19989TIP3    H281459   2.590   1.756   1.898 -0.1617 -0.7132  1.4470
19990TIP3   OH281460   1.921   1.095   2.773  0.1232  0.2968  0.0405
19990TIP3    H181461   1.958   1.030   2.833  2.4086  1.2147 -0.3451
19990TIP3    H281462   1.971   1.175   2.790  1.1426  0.4478 -3.3798
19991TIP3   OH281463   4.133   5.528  14.828 -0.1085  0.4108  0.0851
19991TIP3    H181464   4.100   5.549  14.915 -0.0852  0.3466  0.1083
19991TIP3    H281465   4.055   5.524  14.773 -0.2611 -0.9326  0.3753
19992TIP3   OH281466   1.449   1.411  12.211  0.1399  0.2481 -0.6350
19992TIP3    H181467   1.433   1.505  12.201  0.0301  0.0924 -2.0759
19992TIP3    H281468   1.368   1.370  12.179 -0.2676 -0.3064  1.0998
19993TIP3   OH281469   1.524   4.982   1.112 -0.8039 -0.0848  0.7893
19993TIP3    H181470   1.497   5.070   1.139 -0.1206 -0.4169  2.6022
19993TIP3    H281471   1.449   4.926   1.133 -0.8923 -0.0802  0.4847
19994TIP3   OH281472   4.727   2.345   3.778 -0.1176  0.2798 -0.5137
19994TIP3    H181473   4.742   2.281   3.848  0.0205 -0.9673 -1.6777
19994TIP3    H281474   4.664   2.407   3.816  0.7150  0.1944  1.0612
19995TIP3   OH281475   4.615   4.839  16.263  0.1527 -0.1218  0.5661
19995TIP3    H181476   4.676   4.815  16.333 -0.0333  0.6809  1.0097
19995TIP3    H281477   4.585   4.755  16.229  0.4311 -0.5274  1.2845
19996TIP3   OH281478   3.929   2.507   6.465 -0.2557  0.1492 -0.2168
19996TIP3    H181479   4.011   2.536   6.505  0.3712 -0.6115 -0.9340
19996TIP3    H281480   3.861   2.533   6.528  0.6703 -0.6545  1.1443
19997TIP3   OH281481   0.196   5.325  11.775 -0.1475  0.3278  0.4439
19997TIP3    H181482   0.115   5.375  11.762  1.3813  3.0570  0.8998
19997TIP3    H281483   0.169   5.248  11.824 -2.4956  1.1568  0.5428
19998TIP3   OH281484   3.744   2.734  13.306 -0.0140 -0.1401 -0.7052
19998TIP3    H181485   3.827   2.687  13.297  0.0014 -0.4495  1.0125
19998TIP3    H281486   3.679   2.678  13.264  0.6257  0.0631 -1.9847
19999TIP3   OH281487   1.399   3.571  14.517 -0.4697  0.4975 -0.1733
19999TIP3    H181488   1.487   3.590  14.486  0.0501 -1.5216 -0.0175
19999TIP3    H281489   1.341   3.609  14.451  0.5414  0.9305 -0.8179
20000TIP3   OH281490   1.455   3.852   1.623  0.2267 -0.0036  0.3052
20000TIP3    H181491   1.431   3.929   1.570  1.8802  0.2532 -0.0796
20000TIP3    H281492   1.389   3.786   1.600  1.0923 -0.0137 -2.3271
20001TIP3   OH281493   2.736   0.078   3.926  0.3600  0.6683 -0.7020
20001TIP3    H181494   2.796   0.124   3.985 -0.7435  1.0169  0.1773
20001TIP3    H281495   2.677   0.030   3.985  0.1008 -0.0791 -1.5570
20002TIP3   OH281496   6.067   1.302  15.417  0.3328  0.0489  0.5458
20002TIP3    H181497   6.122   1.232  15.453  0.7366 -0.5675 -1.2118
20002TIP3    H281498   6.052   1.361  15.490  3.6127  0.3945  1.0050
20003TIP3   OH281499   6.205   1.157  12.502 -0.0522 -0.4093  0.8433
20003TIP3    H181500   6.224   1.066  12.524 -1.2994 -0.8984 -0.0823
20003TIP3    H281501   6.110   1.163  12.504 -0.1581 -0.0704 -2.7509
20004TIP3   OH281502   5.430   3.695   1.683 -0.4969 -0.4022 -0.2131
20004TIP3    H181503   5.430   3.691   1.779 -0.4331 -1.1620 -0.2438
20004TIP3    H281504   5.427   3.604   1.655  2.3251 -0.3390 -0.9388
20005TIP3   OH281505   4.779   3.459  11.503  0.2021  0.4462  0.2477
20005TIP3    H181506   4.843   3.435  11.436  0.9260  1.9647  0.3597
20005TIP3    H281507   4.805   3.410  11.580 -1.4067 -2.3249 -0.9097
20006TIP3   OH281508   5.242   1.913   1.864  0.0632  0.3126 -0.2081
20006TIP3    H181509   5.182   1.879   1.930 -1.1412  2.0725 -0.3543
20006TIP3    H281510   5.188   1.926   1.786  0.5251  2.2351 -0.2452
20007TIP3   OH281511   3.482   0.974  16.406 -0.1449 -0.0301  0.3426
20007TIP3    H181512   3.547   1.043  16.392 -1.4036  1.1966  0.3538
20007TIP3    H281513   3.422   0.983  16.332  0.0982 -1.6194 -0.0552
20008TIP3   OH281514   5.022   2.274   5.764  0.3101  0.6306 -0.0915
20008TIP3    H181515   5.012   2.313   5.851  0.6945 -1.5506  0.9791
20008TIP3    H281516   4.961   2.200   5.764 -0.4226  1.1997 -2.0587
20009TIP3   OH281517   6.653   6.316  10.976  0.7538 -0.2177  0.2650
20009TIP3    H181518   6.664   6.273  11.061  1.9859 -1.8554 -0.6989
20009TIP3    H281519   6.560   6.309  10.957  0.6354 -0.7137  1.0207
20010TIP3   OH281520   4.746   5.210   0.503 -0.0086  0.5257 -0.1001
20010TIP3    H181521   4.667   5.248   0.465 -0.1507 -0.0623 -0.3966
20010TIP3    H281522   4.715   5.139   0.559  0.3995 -0.9831 -1.7353
20011TIP3   OH281523   1.762   3.726   1.139 -0.2899  0.4327 -0.1448
20011TIP3    H181524   1.818   3.648   1.142  1.0403  1.3097 -1.3421
20011TIP3    H281525   1.766   3.761   1.228  0.0335 -0.2169  0.1044
20012TIP3   OH281526   3.410   2.300   1.585  0.2928 -0.2136  0.1163
20012TIP3    H181527   3.400   2.241   1.511 -0.0168 -0.1301  0.0917
20012TIP3    H281528   3.374   2.383   1.554  1.2697  0.1539 -0.0591
20013TIP3   OH281529   2.530   4.135  13.107  0.2297 -0.2456  0.0492
20013TIP3    H181530   2.451   4.180  13.136  1.5989  1.4551  1.2623
20013TIP3    H281531   2.585   4.131  13.185  1.0391 -2.1409 -0.5762
20014TIP3   OH281532   6.457   4.064   2.029 -0.0497  0.0319  0.4149
20014TIP3    H181533   6.546   4.059   1.994 -0.4314  0.2215 -0.6142
20014TIP3    H281534   6.468   4.061   2.124  0.9846 -1.1149  0.2777
20015TIP3   OH281535   3.710   6.619  14.059 -0.2137 -0.3334  0.4068
20015TIP3    H181536   3.731   6.709  14.084  0.5249 -0.9340  2.0374
20015TIP3    H281537   3.682   6.625  13.968 -1.0036  1.6650  0.7534
20016TIP3   OH281538   1.095   3.523   2.589 -1.2111 -0.8091  0.8066
20016TIP3    H181539   1.061   3.613   2.584  0.5110 -0.2044 -0.5392
20016TIP3    H281540   1.102   3.496   2.497 -2.8753 -2.7773  1.2411
20017TIP3   OH281541   0.468   3.368  16.968  0.2641 -0.2939 -0.1685
20017TIP3    H181542   0.432   3.326  17.046  1.5770  1.2988  1.3274
20017TIP3    H281543   0.398   3.361  16.903 -0.3419 -2.8389  0.6948
20018TIP3   OH281544   0.091   2.125  17.139  0.3334  0.1072 -0.6327
20018TIP3    H181545   0.159   2.063  17.165 -0.8465 -0.7598  0.4543
20018TIP3    H281546   0.095   2.195  17.205 -1.0662 -0.8908  0.5305
20019TIP3   OH281547   4.286   0.914   0.377 -0.4021 -0.3827 -0.6531
20019TIP3    H181548   4.369   0.871   0.397  0.2709  1.1896  0.0700
20019TIP3    H281549   4.248   0.862   0.307  1.5803 -0.6781 -1.5448
20020TIP3   OH281550   1.883   1.352  14.814 -0.2236 -0.5110 -0.6228
20020TIP3    H181551   1.908   1.438  14.850 -0.0249 -0.4161 -0.9854
20020TIP3    H281552   1.888   1.293  14.889  0.9188 -0.4547 -0.6351
20021TIP3   OH281553   3.958   0.375  13.880 -0.1681  0.0694  0.5793
20021TIP3    H181554   3.966   0.416  13.966  2.8390  1.2261 -0.1644
20021TIP3    H281555   3.897   0.431  13.832  1.4943  1.9357  0.5883
20022TIP3   OH281556   4.580   6.564  13.861 -0.6700 -0.1335 -0.1221
20022TIP3    H181557   4.602   6.596  13.948 -1.1617 -0.5475  0.1540
20022TIP3    H281558   4.553   6.643  13.813  1.3140  0.3808 -0.4506
20023TIP3   OH281559   4.868   2.150   0.175 -0.6483  0.0843 -0.3327
20023TIP3    H181560   4.835   2.227   0.130 -0.7367 -0.1330 -0.6456
20023TIP3    H281561   4.910   2.098   0.105 -1.6898 -0.7490 -0.3529
20024TIP3   OH281562   6.431   2.982  12.194  0.2292 -0.0706 -0.2886
20024TIP3    H181563   6.444   2.995  12.288  1.4745  1.0366 -0.5897
20024TIP3    H281564   6.369   3.051  12.169  0.2492 -0.0795 -0.3613
20025TIP3   OH281565   4.006   5.057  11.235 -0.2191  0.1325  0.0571
20025TIP3    H181566   3.927   5.092  11.277  0.7519 -0.3432  2.3511
20025TIP3    H281567   3.993   4.962  11.234  0.5342  0.0141  0.9123
20026TIP3   OH281568   4.544   1.983   2.387  0.3879 -0.2990 -0.5975
20026TIP3    H181569   4.498   1.972   2.304 -0.9242 -2.8716  0.4213
20026TIP3    H281570   4.584   1.898   2.405  0.0380 -0.0202  1.7610
20027TIP3   OH281571   2.974   0.597  13.999 -0.3153  0.0078  0.0904
20027TIP3    H181572   2.937   0.657  14.064  2.2054  2.5949 -0.7256
20027TIP3    H281573   2.899   0.545  13.969 -2.2633  1.4927  2.1594
20028TIP3   OH281574   1.085   3.808   2.622 -0.4904 -0.5859 -0.0606
20028TIP3    H181575   1.044   3.883   2.665  0.3779  0.1807 -0.5441
20028TIP3    H281576   1.132   3.846   2.548  1.0204 -1.4502  0.4363
20029TIP3   OH281577   5.499   3.507   3.769  0.2112  0.0465  0.3576
20029TIP3    H181578   5.518   3.601   3.762 -0.5606  0.3258  1.7904
20029TIP3    H281579   5.413   3.498   3.728 -0.6060  0.3101  1.9772
20030TIP3   OH281580   4.929   1.538  14.745 -0.4813 -0.6385  0.1428
20030TIP3    H181581   4.875   1.614  14.724 -0.6569 -1.2250 -1.6264
20030TIP3    H281582   5.019   1.570  14.739 -0.5679 -0.4476 -0.1842
20031TIP3   OH281583   2.533   0.526  15.598 -0.4002  0.6034 -0.3681
20031TIP3    H181584   2.541   0.484  15.512  0.9911 -2.0285  0.9633
20031TIP3    H281585   2.617   0.570  15.611 -0.6066  0.9935 -0.3738
20032TIP3   OH281586   2.218   4.428   1.769 -0.0656  0.1663  0.3503
20032TIP3    H181587   2.311   4.442   1.751  0.4359 -0.6447  2.1825
20032TIP3    H281588   2.210   4.333   1.780 -0.6458  0.4420  2.5158
20033TIP3   OH281589   0.565   6.556  12.843 -0.1202 -0.0671  0.0772
20033TIP3    H181590   0.633   6.602  12.794  0.3086  1.4970  2.1145
20033TIP3    H281591   0.613   6.500  12.904 -0.6351  0.6009  1.1103
20034TIP3   OH281592   5.985   3.186   6.541  0.6673  0.2309  0.1298
20034TIP3    H181593   6.054   3.154   6.599 -0.2397  0.4345  1.3383
20034TIP3    H281594   6.026   3.256   6.491  2.2138 -1.6807 -1.3566
20035TIP3   OH281595   5.631   0.054  11.803  0.3057 -0.4008 -0.0258
20035TIP3    H181596   5.657   0.078  11.714  1.5195  0.8224  0.6468
20035TIP3    H281597   5.707   0.008  11.838 -0.7235 -2.2170 -0.1138
20036TIP3   OH281598   0.700   3.139  14.885 -0.2377  0.6489 -0.3435
20036TIP3    H181599   0.701   3.146  14.790  1.9496  0.5978 -0.3557
20036TIP3    H281600   0.706   3.045  14.902  2.6726  0.8038 -0.2008
20037TIP3   OH281601   3.814   1.226   0.678  0.2821 -0.0469 -0.8277
20037TIP3    H181602   3.889   1.194   0.728  0.4159  0.1217 -0.9196
20037TIP3    H281603   3.836   1.317   0.658  0.2268 -0.1142 -1.1917
20038TIP3   OH281604   2.038   3.925   4.569  0.0322 -0.4422  0.0619
20038TIP3    H181605   2.121   3.888   4.599  1.3747  1.8249 -0.7545
20038TIP3    H281606   2.063   3.989   4.502 -2.3456  0.5270  0.0555
20039TIP3   OH281607   6.703   6.742  16.298  0.4547 -0.0910  0.2122
20039TIP3    H181608   6.740   6.721  16.384  1.2707  0.7005  0.0599
20039TIP3    H281609   6.609   6.744  16.311  0.6740  3.0902  1.8173
20040TIP3   OH281610   1.043   1.477  14.918  0.5956 -0.6561 -0.1973
20040TIP3    H181611   1.063   1.384  14.931  2.6520  0.0766  2.4143
20040TIP3    H281612   0.964   1.491  14.970  1.1322 -0.6459  0.6279
20041TIP3   OH281613   0.105   2.002   4.487  0.2566 -0.1068 -0.1260
20041TIP3    H181614   0.143   1.932   4.540 -0.6396  0.5166  1.3765
20041TIP3    H281615   0.170   2.018   4.418  1.0704 -1.4800  0.3054
20042TIP3   OH281616   0.906   3.667  14.974  0.2408 -0.0214 -0.1354
20042TIP3    H181617   0.915   3.729  14.902 -0.0665  0.2716  0.0784
20042TIP3    H281618   0.985   3.679  15.026  0.1902  0.1800 -0.1035
20043TIP3   OH281619   4.832   3.437  16.317 -0.1708  0.0121  0.2320
20043TIP3    H181620   4.911   3.444  16.371  0.4205  0.3382 -0.6542
20043TIP3    H281621   4.785   3.361  16.353  0.6063 -0.2614  0.6896
20044TIP3   OH281622   0.162   3.830  11.127  0.4341 -0.4618 -0.0182
20044TIP3    H181623   0.157   3.908  11.072  2.7185 -1.8746 -2.3257
20044TIP3    H281624   0.124   3.857  11.211 -0.1032  2.6915 -1.2274
20045TIP3   OH281625   5.683   1.029   2.823 -0.0155  0.0084  0.4366
20045TIP3    H181626   5.733   1.044   2.743 -1.7495 -1.9240 -1.0921
20045TIP3    H281627   5.741   0.977   2.878  0.0902 -1.2850 -0.8656
20046TIP3   OH281628   3.442   6.080  12.785  0.2855  0.1106 -0.0124
20046TIP3    H181629   3.409   6.117  12.867  2.9111  0.8352  0.8004
20046TIP3    H281630   3.486   5.999  12.812  1.6394  0.6303 -0.5858
20047TIP3   OH281631   3.100   4.759  12.558  0.5231  0.0580 -0.0673
20047TIP3    H181632   3.103   4.848  12.523  1.4155  0.7701  1.7736
20047TIP3    H281633   3.136   4.705  12.489  1.1817  1.2907 -0.7080
20048TIP3   OH281634   0.240   2.064   3.032 -0.6376 -0.1986  0.1435
20048TIP3    H181635   0.205   1.983   3.069  0.2285 -0.9976 -0.7336
20048TIP3    H281636   0.221   2.131   3.097 -0.7499 -1.2394  1.1942
20049TIP3   OH281637   1.852   0.062   3.348 -0.7165  0.2475 -0.2791
20049TIP3    H181638   1.842   0.027   3.437  0.4637  0.0751 -0.1984
20049TIP3    H281639   1.793   0.137   3.345 -0.7631  0.2634  0.6686
20050TIP3   OH281640   4.824   0.462   3.616 -0.3228  0.8688  0.6407
20050TIP3    H181641   4.740   0.496   3.647  0.1326  2.4444  0.2018
20050TIP3    H281642   4.831   0.494   3.526  0.8195  0.8660  0.7241
20051TIP3   OH281643   3.688   1.734   1.739  0.9394 -0.3806  0.3444
20051TIP3    H181644   3.764   1.783   1.710  1.1185  0.2635  1.8248
20051TIP3    H281645   3.663   1.681   1.664  2.8559 -0.6102 -0.1659
20052TIP3   OH281646   0.480   3.274  16.150  0.3393 -0.3268  0.4658
20052TIP3    H181647   0.473   3.200  16.090  2.5650  0.5495 -0.9021
20052TIP3    H281648   0.489   3.350  16.094 -1.6667  1.0225  1.8661
20053TIP3   OH281649   4.883   2.675  13.374 -0.2083 -0.0572  0.0282
20053TIP3    H181650   4.892   2.759  13.329 -1.3477 -0.0229 -0.1365
20053TIP3    H281651   4.959   2.671  13.433 -0.8487  1.6681  0.9887
20054TIP3   OH281652   0.891   0.149  13.265 -0.2499  0.3493 -0.1525
20054TIP3    H181653   0.861   0.146  13.356 -2.2769 -1.3447 -0.8421
20054TIP3    H281654   0.812   0.165  13.214  0.7428  0.4262 -1.6911
20055TIP3   OH281655   3.209   1.922  13.397 -0.0640 -0.2921  0.2172
20055TIP3    H181656   3.262   1.976  13.455 -0.6691  1.4814 -0.8338
20055TIP3    H281657   3.127   1.971  13.387 -0.3205 -1.0162 -1.3954
20056TIP3   OH281658   4.669   3.891  14.952 -0.1170 -0.0822 -0.1572
20056TIP3    H181659   4.714   3.971  14.924 -0.0422  0.5032  1.5154
20056TIP3    H281660   4.655   3.904  15.046  0.4613 -2.3310  0.2693
20057TIP3   OH281661   6.156   4.575   0.636 -0.2599 -0.0088 -0.0444
20057TIP3    H181662   6.112   4.648   0.594  0.3406  0.0917 -0.4994
20057TIP3    H281663   6.214   4.539   0.569 -1.6720 -1.8598 -0.3238
20058TIP3   OH281664   0.353   4.651   6.104 -0.9121 -0.0338 -0.0242
20058TIP3    H181665   0.296   4.575   6.094  0.5179 -0.9284 -1.5208
20058TIP3    H281666   0.308   4.720   6.055 -2.1429  0.0666  1.2242
20059TIP3   OH281667   4.295   4.285   5.143  0.4901 -0.3745 -0.0844
20059TIP3    H181668   4.211   4.314   5.177  0.9346  1.1267 -0.2185
20059TIP3    H281669   4.351   4.362   5.150  2.1997 -1.6737  1.1338
20060TIP3   OH281670   1.582   5.636   3.652 -0.0765  0.7602 -0.3209
20060TIP3    H181671   1.514   5.606   3.712  0.9828 -0.6075  0.2248
20060TIP3    H281672   1.581   5.572   3.581  0.4601  0.9027 -0.4568
20061TIP3   OH281673   6.295   3.851  14.759  0.5024 -0.1322 -0.0779
20061TIP3    H181674   6.337   3.822  14.841  0.1437 -2.9605 -0.8285
20061TIP3    H281675   6.320   3.784  14.695 -1.8511  0.3128 -1.5145
20062TIP3   OH281676   4.568   0.182   3.927 -0.9623 -0.3874  0.4760
20062TIP3    H181677   4.536   0.144   4.009 -2.7163 -1.3978 -0.6416
20062TIP3    H281678   4.617   0.260   3.954 -0.5446 -1.3210  2.5493
20063TIP3   OH281679   0.125   1.096  13.037  0.7566 -0.1539  0.3372
20063TIP3    H181680   0.184   1.154  13.086  0.5611  1.1804 -0.9622
20063TIP3    H281681   0.178   1.064  12.964 -0.1216  1.1160 -0.8813
20064TIP3   OH281682   0.971   4.803  14.760 -0.3490  0.0948  0.7460
20064TIP3    H181683   1.030   4.749  14.708 -0.5580  1.0634 -0.5251
20064TIP3    H281684   0.919   4.851  14.695 -1.3656  0.5030  1.8526
20065TIP3   OH281685   0.406   5.459  15.474 -0.2281  0.5013 -0.4011
20065TIP3    H181686   0.352   5.379  15.481  0.7886 -0.1876 -0.3465
20065TIP3    H281687   0.479   5.444  15.534  0.8173  0.7886 -1.5781
20066TIP3   OH281688   1.319   1.879   3.700 -0.3644  0.3065  0.2914
20066TIP3    H181689   1.289   1.968   3.679  1.9008  1.2695  0.9593
20066TIP3    H281690   1.345   1.885   3.792  0.1346 -0.9728  0.2314
20067TIP3   OH281691   0.707   1.664  14.171  0.5967  0.4848  1.1536
20067TIP3    H181692   0.654   1.589  14.144  2.9930 -1.0452  0.5287
20067TIP3    H281693   0.645   1.736  14.177 -1.9078 -1.6695  2.3843
20068TIP3   OH281694   2.918   2.434  12.364 -0.0872 -0.1807 -0.2623
20068TIP3    H181695   2.914   2.340  12.381 -0.9091  0.1779  1.6805
20068TIP3    H281696   2.864   2.447  12.286 -0.2893 -1.2680 -0.3069
20069TIP3   OH281697   5.489   3.800   5.591  0.3401 -0.6507  0.0118
20069TIP3    H181698   5.576   3.802   5.632  0.4673 -2.0023 -0.1664
20069TIP3    H281699   5.505   3.764   5.504 -0.4267 -1.1222  0.0623
20070TIP3   OH281700   5.023   5.738   0.893 -0.1364  0.2108 -0.0507
20070TIP3    H181701   5.118   5.746   0.893 -0.0306 -0.9301 -0.5780
20070TIP3    H281702   4.993   5.804   0.830  0.4016 -0.3507 -0.9082
20071TIP3   OH281703   1.540   2.170   3.731 -0.2719 -0.4573 -0.0895
20071TIP3    H181704   1.575   2.087   3.697  1.1042 -0.6203  1.6529
20071TIP3    H281705   1.499   2.211   3.655 -0.1415 -2.3065 -1.1933
20072TIP3   OH281706   0.867   5.543  11.387  0.1160  0.0659  0.3088
20072TIP3    H181707   0.899   5.466  11.434  1.1095  0.6458  0.5833
20072TIP3    H281708   0.918   5.544  11.306  0.8201  0.9976  0.7544
20073TIP3   OH281709   3.939   4.831  14.959  0.0175 -0.0083  0.1156
20073TIP3    H181710   4.026   4.871  14.960 -1.1897  2.7470 -0.0833
20073TIP3    H281711   3.919   4.819  14.867 -0.7287  1.4632  0.0822
20074TIP3   OH281712   4.091   6.712   3.695  0.3623 -0.4160 -0.5463
20074TIP3    H181713   4.112   6.781   3.633 -0.0556 -0.0704 -0.3070
20074TIP3    H281714   4.009   6.741   3.736  0.1790 -1.0587 -0.4592
20075TIP3   OH281715   0.865   0.704   3.840 -0.2091 -0.0502  0.4289
20075TIP3    H181716   0.870   0.615   3.807 -0.8219 -0.0281  0.2741
20075TIP3    H281717   0.933   0.751   3.792  0.6035 -0.5891  1.0301
20076TIP3   OH281718   1.256   3.907  13.189 -0.2284  0.5315 -0.0125
20076TIP3    H181719   1.273   3.990  13.146 -1.1990  1.4450  1.3401
20076TIP3    H281720   1.338   3.886  13.234  0.2137  0.4281 -0.8411
20077TIP3   OH281721   6.168   2.893   1.677  0.1588  0.6674  0.2748
20077TIP3    H181722   6.130   2.819   1.630 -0.0012  1.4828 -0.9235
20077TIP3    H281723   6.146   2.969   1.622  1.7423  1.3866  0.6244
20078TIP3   OH281724   2.007   1.619   0.457  0.0682 -0.4943  0.3207
20078TIP3    H181725   2.074   1.600   0.523 -0.2449  2.2366  1.4783
20078TIP3    H281726   1.924   1.613   0.505 -0.2850 -0.3364 -0.2618
20079TIP3   OH281727   1.926   5.876  11.814  0.4972 -0.1669 -0.1822
20079TIP3    H181728   1.977   5.809  11.768  1.0303 -0.3403  0.6418
20079TIP3    H281729   1.872   5.916  11.746  1.2684 -0.4140 -0.9602
20080TIP3   OH281730   2.487   5.747  11.550 -0.5489  0.3965  0.2947
20080TIP3    H181731   2.430   5.755  11.474 -2.2076 -1.2824  1.3181
20080TIP3    H281732   2.542   5.671  11.531  0.0725  0.8877  0.1207
20081TIP3   OH281733   6.371   4.722  11.506 -0.2953  0.0267  0.6169
20081TIP3    H181734   6.288   4.681  11.528 -0.2902 -0.1131  0.3844
20081TIP3    H281735   6.392   4.777  11.581 -0.7984  0.3752  0.4973
20082TIP3   OH281736   5.336   4.252   5.326  0.0240 -0.2696 -0.2434
20082TIP3    H181737   5.429   4.274   5.331 -0.5542  2.0032  1.0382
20082TIP3    H281738   5.325   4.180   5.388  1.0459 -1.0277 -0.9277
20083TIP3   OH281739   0.666   2.850  17.243 -0.0962  0.0770 -0.1515
20083TIP3    H181740   0.617   2.909  17.300  0.5058  0.9915 -0.5778
20083TIP3    H281741   0.663   2.891  17.157 -0.4155 -0.9526 -0.6382
20084TIP3   OH281742   3.539   6.671  12.877 -0.1710 -0.4108  0.2294
20084TIP3    H181743   3.548   6.600  12.813  0.9161 -1.1189  1.1684
20084TIP3    H281744   3.465   6.644  12.931 -0.7690 -0.0527 -0.3924
20085TIP3   OH281745   0.124   0.290   0.139  0.5217 -0.5484  0.1441
20085TIP3    H181746   0.177   0.212   0.157 -0.6105 -1.6718 -1.2420
20085TIP3    H281747   0.041   0.274   0.185  0.4663  0.0746  0.2688
20086TIP3   OH281748   5.944   6.434   1.317  0.1260 -0.4860 -0.1205
20086TIP3    H181749   5.870   6.436   1.256 -0.1933 -1.9171  0.2130
20086TIP3    H281750   6.010   6.490   1.275 -1.8829  2.5426  0.5839
20087TIP3   OH281751   6.513   2.691  11.266  0.1132 -0.4705 -0.1921
20087TIP3    H181752   6.585   2.634  11.293  0.0238 -1.0582 -1.2002
20087TIP3    H281753   6.435   2.636  11.268 -0.6965  0.6620  2.8880
20088TIP3   OH281754   4.926   4.247   2.351  0.3234  0.4346  0.4699
20088TIP3    H181755   4.952   4.155   2.350 -0.4377  0.2181 -0.2317
20088TIP3    H281756   4.835   4.247   2.382 -1.2788  0.4647 -3.8785
20089TIP3   OH281757   0.426   4.224   3.359  1.0344 -0.5106 -0.3104
20089TIP3    H181758   0.519   4.216   3.335  1.7143  1.9810  1.2717
20089TIP3    H281759   0.389   4.280   3.291  1.3822  0.9159  0.6647
20090TIP3   OH281760   3.923   1.046   5.573 -0.3654  0.0516  0.4111
20090TIP3    H181761   3.947   1.025   5.664 -0.7067 -0.3733  0.3997
20090TIP3    H281762   3.927   0.962   5.527  2.8990  0.7102 -0.6672
20091TIP3   OH281763   6.329   2.371  14.421 -0.5022  0.0347 -0.0373
20091TIP3    H181764   6.302   2.463  14.418 -2.2190 -0.3895  1.4725
20091TIP3    H281765   6.317   2.345  14.512  2.4250 -1.0064  0.1151
20092TIP3   OH281766   2.512   3.112   1.925 -0.7355 -0.6620 -0.8084
20092TIP3    H181767   2.479   3.160   2.001  0.6886  0.8712 -1.1300
20092TIP3    H281768   2.446   3.045   1.909 -1.8099 -0.0379  0.8461
20093TIP3   OH281769   5.722   1.673  11.267 -0.4735  0.2248 -0.0526
20093TIP3    H181770   5.634   1.640  11.246 -0.2269 -0.6529  0.3234
20093TIP3    H281771   5.746   1.630  11.348  1.2135 -1.2306 -1.2760
20094TIP3   OH281772   0.892   1.742   1.177  0.1811  0.3441 -0.3488
20094TIP3    H181773   0.962   1.687   1.145  0.6088  0.1790  0.8470
20094TIP3    H281774   0.913   1.757   1.269 -1.3020  0.3587  0.0020
20095TIP3   OH281775   4.004   5.634   1.141  0.4153 -0.0512 -0.2711
20095TIP3    H181776   3.993   5.728   1.156  1.8630 -0.0185  0.7761
20095TIP3    H281777   3.935   5.611   1.079 -0.9646  1.3858  0.6841
20096TIP3   OH281778   0.399   6.563  15.594 -0.3939  0.2938 -0.0415
20096TIP3    H181779   0.342   6.591  15.523 -1.2550  1.2559  1.0086
20096TIP3    H281780   0.485   6.553  15.553 -0.5400  2.3419 -0.9130
20097TIP3   OH281781   0.718   5.148  12.408  0.3077  0.1111 -0.0969
20097TIP3    H181782   0.770   5.228  12.405  1.4542 -0.5429  1.6775
20097TIP3    H281783   0.676   5.150  12.494  0.6176 -1.3440  0.1035
20098TIP3   OH281784   3.451   5.695  11.286 -0.0612  0.2264  0.4286
20098TIP3    H181785   3.419   5.747  11.213 -0.3624  0.5479  0.7889
20098TIP3    H281786   3.546   5.706  11.283  0.2350 -2.4039 -1.9121
20099TIP3   OH281787   1.250   0.229  11.182  0.1158  0.6003  0.2849
20099TIP3    H181788   1.220   0.308  11.138  0.3385  0.1124 -0.7460
20099TIP3    H281789   1.181   0.210  11.246 -1.7678 -0.4218 -1.9672
20100TIP3   OH281790   5.554   0.922  10.894  0.8644 -0.8855 -0.1368
20100TIP3    H181791   5.529   0.934  10.985 -1.0192 -1.4985 -0.5465
20100TIP3    H281792   5.519   0.999  10.849  1.3545 -0.8305 -0.4271
20101TIP3   OH281793   1.953   3.701  11.889  0.1192  0.3457 -0.8183
20101TIP3    H181794   2.019   3.656  11.835 -0.4098  0.4387 -1.5538
20101TIP3    H281795   1.973   3.675  11.978  0.9293  0.0748 -1.0750
20102TIP3   OH281796   3.939   5.908  13.318 -0.0096  0.0190  0.0845
20102TIP3    H181797   3.979   5.987  13.281  1.1022 -1.5420 -2.1802
20102TIP3    H281798   3.984   5.896  13.402 -0.1715  1.7510  0.4395
20103TIP3   OH281799   1.238   3.135   1.631 -0.2333  0.0150  0.1214
20103TIP3    H181800   1.184   3.076   1.578 -0.7725  0.4092  0.2244
20103TIP3    H281801   1.283   3.077   1.693  1.2486 -0.5704 -1.4673
20104TIP3   OH281802   5.381   5.520   2.233  0.2723 -0.2888  0.1054
20104TIP3    H181803   5.345   5.493   2.148 -0.5963  1.1138  0.0242
20104TIP3    H281804   5.415   5.608   2.217 -0.5397  0.2552  1.4050
20105TIP3   OH281805   2.402   3.102  11.216  0.5092 -0.0422 -0.5621
20105TIP3    H181806   2.337   3.130  11.152 -0.0094 -0.2779 -0.1530
20105TIP3    H281807   2.426   3.013  11.189  0.3219 -0.1258 -0.4578
20106TIP3   OH281808   0.576   4.766  11.819  0.4121  0.1201  0.3528
20106TIP3    H181809   0.645   4.706  11.847  0.5179  0.0993  0.0506
20106TIP3    H281810   0.554   4.739  11.730  1.0668  1.0618 -0.1072
20107TIP3   OH281811   1.140   3.958  12.268 -0.3788 -0.1678  0.3361
20107TIP3    H181812   1.087   3.993  12.197 -0.6784 -1.0721  0.1101
20107TIP3    H281813   1.227   3.945  12.229 -0.6558 -1.0707  0.0142
20108TIP3   OH281814   4.558   4.047  14.217  0.5333 -0.1068 -0.1721
20108TIP3    H181815   4.554   4.140  14.242  1.0536 -0.2991  0.6732
20108TIP3    H281816   4.634   4.041  14.160 -0.1121  0.1695 -1.0772
20109TIP3   OH281817   4.496   0.473   5.926 -0.0691 -0.5059 -0.2940
20109TIP3    H181818   4.454   0.502   5.845 -0.5704 -0.5088 -0.0381
20109TIP3    H281819   4.589   0.477   5.908 -0.2080 -1.4182 -1.1854
20110TIP3   OH281820   3.056   0.270  14.665 -0.0566  0.2860  0.2197
20110TIP3    H181821   3.089   0.208  14.600 -0.5799 -0.2071  0.4238
20110TIP3    H281822   3.073   0.356  14.627 -1.2069 -0.0052 -0.9969
20111TIP3   OH281823   6.571   0.317  12.502 -0.3702  0.1113 -0.2151
20111TIP3    H181824   6.528   0.247  12.551 -1.2063  0.5405 -0.3361
20111TIP3    H281825   6.599   0.379  12.568 -3.0519  1.5578 -0.3881
20112TIP3   OH281826   3.318   6.410   5.620 -0.1894  0.4150  0.3352
20112TIP3    H181827   3.330   6.317   5.603 -1.3837 -0.1918  2.5867
20112TIP3    H281828   3.278   6.444   5.540 -1.1865 -1.3241  0.0662
20113TIP3   OH281829   5.173   1.265   0.725  0.5427 -0.3390 -0.4647
20113TIP3    H181830   5.189   1.324   0.798 -1.1873  1.0626 -1.1789
20113TIP3    H281831   5.252   1.273   0.671  0.3986  1.2240 -0.4686
20114TIP3   OH281832   5.165   6.541   5.912 -0.2063 -0.4601  0.1640
20114TIP3    H181833   5.180   6.447   5.907  1.5497 -0.1282 -1.6659
20114TIP3    H281834   5.203   6.567   5.996  2.3227 -0.9069 -0.7928
20115TIP3   OH281835   6.050   1.694  15.060 -0.9511  0.2286  0.2709
20115TIP3    H181836   6.104   1.625  15.098 -2.2824 -0.0571  1.6752
20115TIP3    H281837   6.017   1.655  14.979 -0.4102 -0.1986  0.2477
20116TIP3   OH281838   5.949   3.163   5.155  0.4883  0.3614  0.2897
20116TIP3    H181839   5.969   3.156   5.061 -0.2643  0.7391  0.0942
20116TIP3    H281840   5.948   3.073   5.186  0.5682  0.2191 -0.1086
20117TIP3   OH281841   2.772   6.498  12.831  0.1949  0.1145 -0.2557
20117TIP3    H181842   2.711   6.560  12.790  1.9182  0.4493 -2.3864
20117TIP3    H281843   2.798   6.440  12.759  0.6828 -1.4088  1.1351
20118TIP3   OH281844   2.739   3.334   4.761 -0.7084 -0.6593  0.7000
20118TIP3    H181845   2.753   3.246   4.725  0.6049  0.1784 -0.8855
20118TIP3    H281846   2.825   3.361   4.794 -1.4226 -0.5362  2.5339
20119TIP3   OH281847   3.497   5.316   6.248  0.0416  0.2870  0.2866
20119TIP3    H181848   3.478   5.286   6.159  2.8204 -0.8667  0.0425
20119TIP3    H281849   3.439   5.392   6.260 -1.2828 -0.3017 -2.0169
20120TIP3   OH281850   0.404   0.566  11.974 -0.2334 -0.2662  0.0862
20120TIP3    H181851   0.426   0.596  12.062  0.7333  0.6311 -0.4512
20120TIP3    H281852   0.312   0.540  11.980 -0.5256  0.9493  1.0630
20121TIP3   OH281853   2.819   5.958  11.199 -0.4100  0.4580 -0.1924
20121TIP3    H181854   2.788   5.917  11.119 -0.4642 -0.6504  0.3780
20121TIP3    H281855   2.901   5.913  11.219 -0.5546  0.4995  0.5345
20122TIP3   OH281856   3.132   1.190   1.616 -0.4341 -0.5576 -0.0914
20122TIP3    H181857   3.129   1.279   1.651 -1.3737 -0.3050 -0.7905
20122TIP3    H281858   3.211   1.151   1.654 -0.5786  0.2371  1.0215
20123TIP3   OH281859   5.410   4.692  13.909  0.3605  0.2625  0.4115
20123TIP3    H181860   5.410   4.603  13.946  1.3726  0.4247  0.8095
20123TIP3    H281861   5.496   4.702  13.869 -0.3214  0.4963 -1.0457
20124TIP3   OH281862   3.047   3.323   1.997 -0.1672 -0.6419 -0.0046
20124TIP3    H181863   3.026   3.349   1.907  1.3327 -0.1270 -0.2067
20124TIP3    H281864   3.024   3.399   2.050  3.9875  1.1342 -0.5696
20125TIP3   OH281865   4.069   1.143  14.391  0.1392  0.3520 -0.4145
20125TIP3    H181866   4.019   1.195  14.328  0.5974  0.5012 -0.6561
20125TIP3    H281867   4.010   1.072  14.415 -1.3684  2.2490  1.6937
20126TIP3   OH281868   1.119   2.658   2.495 -0.3516  0.4846  0.6148
20126TIP3    H181869   1.060   2.596   2.538 -1.6875  1.0685 -0.3401
20126TIP3    H281870   1.095   2.744   2.530 -1.4382  0.9647 -1.2062
20127TIP3   OH281871   5.873   1.825   3.747  0.7574 -0.0068 -0.4479
20127TIP3    H181872   5.883   1.863   3.660 -2.1285  2.4891  0.2087
20127TIP3    H281873   5.778   1.815   3.757  0.8752  1.7941  3.2216
20128TIP3   OH281874   1.411   4.493   0.780 -0.3341  0.4415  0.4430
20128TIP3    H181875   1.459   4.570   0.812  0.6094 -0.5521  1.4935
20128TIP3    H281876   1.382   4.448   0.860 -0.8665 -0.2999 -0.1600
20129TIP3   OH281877   3.023   5.119   2.145 -0.0578  0.5961 -0.2660
20129TIP3    H181878   3.015   5.100   2.239 -1.9219  0.9257 -0.3324
20129TIP3    H281879   3.112   5.151   2.134  0.0742  0.8390  1.4455
20130TIP3   OH281880   4.037   3.792   6.633 -0.5285  0.3472 -0.0389
20130TIP3    H181881   4.010   3.833   6.715  0.2252  2.9724 -1.0213
20130TIP3    H281882   4.128   3.820   6.622 -0.0930 -1.3669 -0.9575
20131TIP3   OH281883   4.208   0.298   1.533  0.2609  0.7283 -0.5999
20131TIP3    H181884   4.161   0.217   1.516  0.7149  0.4497 -0.5273
20131TIP3    H281885   4.139   0.365   1.540 -0.1814  0.1755  0.3874
20132TIP3   OH281886   1.225   3.022   2.399  0.4203  0.0493 -0.4928
20132TIP3    H181887   1.137   2.985   2.402 -0.0723  1.2454  0.1834
20132TIP3    H281888   1.249   3.020   2.306  0.2010 -1.4742 -0.5203
20133TIP3   OH281889   4.923   1.671   1.733  0.3721 -0.0814 -0.0051
20133TIP3    H181890   4.855   1.636   1.675 -1.3275  2.0152  0.7207
20133TIP3    H281891   4.914   1.621   1.814  0.0111 -0.1102 -0.0642
20134TIP3   OH281892   5.174   1.465  14.419 -0.1701  0.9349  0.1214
20134TIP3    H181893   5.137   1.482  14.505 -0.2300 -0.8941  0.4772
20134TIP3    H281894   5.130   1.386  14.389  0.9833  0.6710 -0.9218
20135TIP3   OH281895   4.617   2.321  14.954 -0.3045  0.2892 -0.2510
20135TIP3    H181896   4.687   2.386  14.950 -0.2727  0.3350  0.8893
20135TIP3    H281897   4.579   2.332  15.042 -0.6804 -0.8298 -0.2660
20136TIP3   OH281898   4.342   3.814   5.621 -0.8466 -0.2958 -0.2405
20136TIP3    H181899   4.395   3.823   5.542 -1.5687  0.4204 -0.6401
20136TIP3    H281900   4.311   3.902   5.640 -0.8333 -0.4916  0.7424
20137TIP3   OH281901   3.338   4.346  12.544  0.4242  0.4429  0.2968
20137TIP3    H181902   3.397   4.323  12.615 -0.7782 -0.9103  0.8729
20137TIP3    H281903   3.390   4.336  12.464  0.4320 -2.6061  0.6534
20138TIP3   OH281904   4.130   6.563  14.667  0.2540 -0.0636 -0.2802
20138TIP3    H181905   4.092   6.589  14.751  1.3148 -0.2444  0.2529
20138TIP3    H281906   4.089   6.479  14.648  1.3615 -0.8914  0.9363
20139TIP3   OH281907   0.905   4.672   0.947 -0.2656 -0.0831  0.6661
20139TIP3    H181908   0.942   4.727   0.877  1.0660 -1.8566 -0.0551
20139TIP3    H281909   0.922   4.582   0.919 -0.0613 -0.8373  3.0789
20140TIP3   OH281910   6.482   5.188   2.166 -0.3754 -0.3371  0.3901
20140TIP3    H181911   6.552   5.149   2.113  0.1886  1.1378  0.0323
20140TIP3    H281912   6.451   5.262   2.114 -1.7344 -0.5571  0.8706
20141TIP3   OH281913   4.020   3.919  11.568 -0.6791  0.0726  0.5355
20141TIP3    H181914   3.941   3.926  11.514 -1.0344 -0.7697  0.9323
20141TIP3    H281915   4.091   3.905  11.505 -0.8068  1.0381  0.1655
20142TIP3   OH281916   2.516   4.778  13.131 -0.2103 -0.5097 -0.7893
20142TIP3    H181917   2.595   4.748  13.176  0.9253  1.5003 -1.3990
20142TIP3    H281918   2.449   4.715  13.157  1.2169 -1.3560  0.9836
20143TIP3   OH281919   1.206   2.438  14.619 -0.4431 -0.3592  0.4518
20143TIP3    H181920   1.271   2.506  14.598 -2.1759  1.4209  0.7064
20143TIP3    H281921   1.150   2.434  14.542 -2.3406  0.8888  1.7233
20144TIP3   OH281922   3.833   6.447   6.400 -0.2171  0.0128  0.4963
20144TIP3    H181923   3.789   6.363   6.387  0.5480 -0.3939  0.5326
20144TIP3    H281924   3.884   6.436   6.480 -0.3474  0.6134  0.6692
20145TIP3   OH281925   4.799   4.752  16.458 -0.5179  0.4336  0.0658
20145TIP3    H181926   4.840   4.671  16.427 -0.5580 -0.2380  1.7092
20145TIP3    H281927   4.803   4.746  16.554 -1.3025  1.9769  0.2144
20146TIP3   OH281928   0.568   6.289  11.283 -0.6002 -0.1602  0.0171
20146TIP3    H181929   0.629   6.291  11.210 -0.7816 -0.0559 -0.1298
20146TIP3    H281930   0.623   6.273  11.360 -0.4744 -0.8074 -0.2078
20147TIP3   OH281931   4.936   3.161   6.221  0.2718 -0.1917  0.0830
20147TIP3    H181932   4.940   3.220   6.296  1.1101 -1.4616  1.0529
20147TIP3    H281933   5.024   3.124   6.214 -0.2222 -1.2796 -0.5336
20148TIP3   OH281934   4.037   3.939  16.691  0.3303  0.5433  0.2581
20148TIP3    H181935   4.101   3.971  16.627 -1.2784  1.5534 -0.8915
20148TIP3    H281936   4.062   3.848  16.706  0.9219  0.3708 -1.6255
20149TIP3   OH281937   3.777   3.963   0.463 -0.0275 -0.2646 -0.1223
20149TIP3    H181938   3.781   3.997   0.374 -1.1967  0.9280  0.2543
20149TIP3    H281939   3.796   4.039   0.518 -1.2491 -0.5409  0.6962
20150TIP3   OH281940   4.283   4.873  15.419 -0.2888  0.4975  0.0237
20150TIP3    H181941   4.352   4.820  15.379  0.2038  0.2530  1.1826
20150TIP3    H281942   4.259   4.936  15.351 -0.0475 -0.4404 -0.9472
20151TIP3   OH281943   0.260   6.564   4.520 -0.2242  0.4837  0.1772
20151TIP3    H181944   0.232   6.534   4.434  1.1962  1.1028 -0.5159
20151TIP3    H281945   0.351   6.536   4.527 -0.2578  0.6575  1.3727
20152TIP3   OH281946   3.682   2.287  15.411 -0.5297  0.4745 -0.2569
20152TIP3    H181947   3.679   2.357  15.475 -1.2343  0.6451 -0.4687
20152TIP3    H281948   3.595   2.246  15.417  0.3059 -1.2098  0.7932
20153TIP3   OH281949   2.313   6.493   2.444  0.6715 -0.5755  0.2446
20153TIP3    H181950   2.338   6.578   2.480 -0.1330  0.1269 -0.8443
20153TIP3    H281951   2.340   6.430   2.511  1.1142  0.5446  1.1325
20154TIP3   OH281952   0.892   0.784   4.677  0.3864 -0.0498 -0.1173
20154TIP3    H181953   0.969   0.835   4.650  0.2342  0.4340  0.3602
20154TIP3    H281954   0.853   0.755   4.595  1.4376 -0.8353 -0.3587
20155TIP3   OH281955   1.302   4.056  14.273 -0.2981 -0.4156 -0.1326
20155TIP3    H181956   1.379   4.037  14.327 -0.5706  2.2535  1.2850
20155TIP3    H281957   1.328   4.130  14.218 -1.4492 -0.2479 -0.4776
20156TIP3   OH281958   6.804   2.392   2.394 -0.5151  0.0950  0.3630
20156TIP3    H181959   6.711   2.389   2.369 -0.2696 -0.0013 -0.5455
20156TIP3    H281960   6.844   2.317   2.350  0.1198  0.5010  0.2422
20157TIP3   OH281961   6.265   3.458  16.248 -0.0765  0.5530  0.7034
20157TIP3    H181962   6.205   3.530  16.229  0.4486  0.9452  0.5192
20157TIP3    H281963   6.221   3.407  16.316 -0.4643  1.0292  0.8116
20158TIP3   OH281964   2.110   3.701  15.859  0.3564 -0.3950  0.4436
20158TIP3    H181965   2.173   3.738  15.797  1.0942 -0.1491  1.3322
20158TIP3    H281966   2.077   3.623  15.816 -1.7393  1.6402 -1.7837
20159TIP3   OH281967   2.920   4.713   2.233  0.0846 -0.1248 -0.0629
20159TIP3    H181968   2.947   4.804   2.248 -0.4481 -0.0170  0.2380
20159TIP3    H281969   2.956   4.664   2.307  1.7569 -0.4349 -1.0621
20160TIP3   OH281970   3.158   4.071  13.005  0.2692 -0.2714 -0.0873
20160TIP3    H181971   3.165   4.073  12.910 -3.2034 -0.6944 -0.4120
20160TIP3    H281972   3.104   3.994  13.023  1.2019 -0.4229  2.2673
20161TIP3   OH281973   2.343   0.449  12.266  0.3839  0.1102 -0.6019
20161TIP3    H181974   2.278   0.516  12.288  0.0899 -0.1517 -0.6682
20161TIP3    H281975   2.306   0.405  12.190  1.4715  1.1336 -1.7467
20162TIP3   OH281976   0.814   1.822   4.759 -0.7260 -0.4907  0.0356
20162TIP3    H181977   0.889   1.766   4.740 -1.2899 -1.0452 -0.5507
20162TIP3    H281978   0.824   1.844   4.852 -0.5234 -1.5890  0.2795
20163TIP3   OH281979   1.479   6.407   1.660  0.4498 -0.0443  0.1520
20163TIP3    H181980   1.519   6.469   1.722 -0.4981  0.0935  0.6413
20163TIP3    H281981   1.395   6.448   1.638 -0.0341 -1.0001  0.2258
20164TIP3   OH281982   5.393   3.854   5.173  0.3967  0.3518  0.9382
20164TIP3    H181983   5.470   3.798   5.180  0.3301  0.3563  1.6948
20164TIP3    H281984   5.412   3.927   5.232  0.4085  1.0443  0.0970
20165TIP3   OH281985   4.558   5.599   1.511 -0.1093  1.1725  0.3015
20165TIP3    H181986   4.619   5.575   1.581  0.1875  0.2012 -0.2944
20165TIP3    H281987   4.612   5.607   1.433 -0.9726 -1.2836 -0.5784
20166TIP3   OH281988   4.930   0.475   1.414  0.5817  0.1090  0.0417
20166TIP3    H181989   4.959   0.404   1.357 -1.1598  0.4744 -1.3494
20166TIP3    H281990   4.915   0.549   1.355  0.3548  0.9885  1.1889
20167TIP3   OH281991   5.871   2.585   1.922 -0.0661  0.4348 -0.6485
20167TIP3    H181992   5.805   2.649   1.949 -0.1724  1.4063 -3.0602
20167TIP3    H281993   5.946   2.638   1.897  1.4415 -0.6342  1.4038
20168TIP3   OH281994   2.257   0.150   0.936  0.2508 -0.0791  0.2260
20168TIP3    H181995   2.308   0.150   0.855  0.1926  3.3647  0.1391
20168TIP3    H281996   2.170   0.123   0.909  0.7902 -1.1968 -0.4545
20169TIP3   OH281997   5.292   2.667  15.693  0.2348 -0.4389 -0.2360
20169TIP3    H181998   5.265   2.588  15.646 -1.5120 -0.0017  0.0027
20169TIP3    H281999   5.231   2.734  15.664  0.6101  0.4048  0.8915
20170TIP3   OH282000   3.655   4.608  11.717 -0.4313 -0.6321 -0.5757
20170TIP3    H182001   3.718   4.536  11.721  0.3146  0.0052 -0.7331
20170TIP3    H282002   3.594   4.583  11.648  0.6157 -0.4807 -1.5745
20171TIP3   OH282003   4.381   4.650   2.904  0.0289  0.0473 -0.3151
20171TIP3    H182004   4.469   4.657   2.940 -0.0991 -0.9008  0.2026
20171TIP3    H282005   4.395   4.633   2.810  0.3899  0.3088 -0.3082
20172TIP3   OH282006   0.617   1.654  11.639 -0.3432  0.3262  0.2089
20172TIP3    H182007   0.567   1.573  11.650 -0.6359  0.4674 -0.0644
20172TIP3    H282008   0.651   1.673  11.726 -1.2618  0.5423  0.5248
20173TIP3   OH282009   3.543   2.314   5.537 -0.3509 -0.4662  0.0634
20173TIP3    H182010   3.462   2.273   5.507 -0.1793  0.3692 -1.6034
20173TIP3    H282011   3.612   2.256   5.504 -0.1676  0.4034 -1.1351
20174TIP3   OH282012   5.319   5.676  16.563  0.2614 -0.0381 -0.0620
20174TIP3    H182013   5.285   5.729  16.491  1.2073 -1.7620 -1.8513
20174TIP3    H282014   5.270   5.594  16.557  1.0776 -0.5788  0.6054
20175TIP3   OH282015   2.409   2.865   5.208 -0.0309  0.2731 -0.2388
20175TIP3    H182016   2.340   2.799   5.204 -1.1404  1.4632 -1.4624
20175TIP3    H282017   2.368   2.941   5.248 -0.0733  1.7049 -2.8681
20176TIP3   OH282018   5.383   2.850   2.421 -0.2192  0.1246 -0.3799
20176TIP3    H182019   5.438   2.893   2.355  1.1385  1.1380  1.3765
20176TIP3    H282020   5.294   2.880   2.401  0.0726 -0.1777 -2.1978
20177TIP3   OH282021   1.953   2.216  12.604 -0.8246 -0.1880  0.6210
20177TIP3    H182022   1.996   2.227  12.519 -2.2134  2.1774  0.1829
20177TIP3    H282023   2.022   2.236  12.667  0.1510 -1.7180  0.0854
20178TIP3   OH282024   2.919   5.997   1.220 -0.2566 -0.8667 -0.0118
20178TIP3    H182025   2.908   6.091   1.202 -2.0475 -1.0438  0.0391
20178TIP3    H282026   2.890   5.986   1.310  2.1628 -1.1142  0.7647
20179TIP3   OH282027   3.287   6.431  15.753 -0.1815  0.3267  0.2834
20179TIP3    H182028   3.312   6.385  15.673 -2.5144 -0.1398 -0.2137
20179TIP3    H282029   3.320   6.520  15.741  0.2505  0.0295 -0.8083
20180TIP3   OH282030   1.350   2.560   3.819 -0.0233 -0.2303  0.1888
20180TIP3    H182031   1.352   2.494   3.888  2.0052 -0.4844 -0.0876
20180TIP3    H282032   1.409   2.629   3.849 -2.3118  1.6437  0.5973
20181TIP3   OH282033   5.098   5.154   3.536 -0.1384  0.3833 -0.1235
20181TIP3    H182034   5.122   5.168   3.628  1.5009  0.4448 -0.5335
20181TIP3    H282035   5.081   5.242   3.502  1.8192  0.6480 -0.5188
20182TIP3   OH282036   2.904   6.733  15.372 -0.2581  0.1468  0.1181
20182TIP3    H182037   2.855   6.811  15.397 -0.6525 -0.0065 -0.1735
20182TIP3    H282038   2.939   6.753  15.285 -2.1226 -0.8042 -0.8763
20183TIP3   OH282039   1.011   0.358  14.238  0.0555 -0.8021  0.0747
20183TIP3    H182040   1.083   0.334  14.297  0.3544  0.2042  0.1219
20183TIP3    H282041   1.017   0.294  14.167  1.8031  0.0361 -0.5690
20184TIP3   OH282042   5.934   2.732   1.180  0.3794  0.2401 -0.4357
20184TIP3    H182043   5.992   2.795   1.137 -0.1152  1.2168  0.3269
20184TIP3    H282044   5.883   2.694   1.108  0.2167  1.1851 -0.8240
20185TIP3   OH282045   6.460   4.556  10.209  0.4524 -0.3393  0.0861
20185TIP3    H182046   6.465   4.612  10.287  0.1166 -0.4661  0.2023
20185TIP3    H282047   6.550   4.550  10.177  0.2624  1.7816 -0.9789
20186TIP3   OH282048   2.376   4.063  13.697  0.8060 -0.6487  0.3939
20186TIP3    H182049   2.289   4.098  13.680  1.2698  0.1886 -0.3347
20186TIP3    H282050   2.407   4.112  13.773  1.2707  0.2223 -0.3413
20187TIP3   OH282051   3.851   5.162  10.958  0.3738 -0.3754  0.4833
20187TIP3    H182052   3.761   5.171  10.928 -0.0382 -0.5002  1.6413
20187TIP3    H282053   3.848   5.188  11.050  1.5977  0.0126  0.4262
20188TIP3   OH282054   5.197   3.196   0.903  0.0453  0.1378 -0.0029
20188TIP3    H182055   5.193   3.282   0.944 -0.4911  0.2311 -0.2515
20188TIP3    H282056   5.106   3.177   0.878  0.2642 -0.2137 -0.5351
20189TIP3   OH282057   6.619   4.791   1.834 -0.0939  0.0847  0.3848
20189TIP3    H182058   6.635   4.880   1.805  0.8959 -0.6247 -1.2900
20189TIP3    H282059   6.692   4.772   1.894  1.0471 -0.4240 -1.1413
20190TIP3   OH282060   4.047   0.947   0.931  0.3313  0.0289 -0.6996
20190TIP3    H182061   3.996   0.868   0.914 -0.6453  0.5139 -0.0705
20190TIP3    H282062   3.996   0.995   0.995  1.2450  0.8654 -0.5869
20191TIP3   OH282063   6.528   5.100  16.398 -0.0117 -0.0883 -1.0107
20191TIP3    H182064   6.469   5.076  16.469  2.3545  2.1043  1.8390
20191TIP3    H282065   6.605   5.044  16.411 -0.0974 -0.6370 -2.7157
20192TIP3   OH282066   1.733   6.758   6.283  0.3484 -0.3865  0.0575
20192TIP3    H182067   1.726   6.847   6.249 -0.6038 -0.6003 -0.3148
20192TIP3    H282068   1.812   6.759   6.337 -0.6776  1.2112  1.6029
20193TIP3   OH282069   2.481   5.542  10.656  0.3380 -0.4284  0.0204
20193TIP3    H182070   2.517   5.488  10.585 -0.2126 -0.1187 -0.5016
20193TIP3    H282071   2.551   5.604  10.676 -0.1804  0.7122 -1.5660
20194TIP3   OH282072   1.689   3.384   2.093 -0.3093  0.0347 -0.2546
20194TIP3    H182073   1.673   3.465   2.142  0.1107 -0.4488  0.6905
20194TIP3    H282074   1.606   3.336   2.099 -0.3209  0.0621 -0.1951
20195TIP3   OH282075   1.660   4.784  12.884 -0.1511  0.3738  0.3072
20195TIP3    H182076   1.649   4.879  12.890  1.6562  0.6324 -0.1024
20195TIP3    H282077   1.687   4.769  12.793 -4.0242 -0.9489 -0.7083
20196TIP3   OH282078   5.011   5.066  16.160 -0.1265  0.4595  0.8552
20196TIP3    H182079   5.095   5.112  16.168 -1.0115  1.9223  2.1285
20196TIP3    H282080   5.005   5.012  16.239 -1.3755  2.0999  1.9161
20197TIP3   OH282081   1.932   6.638   1.582  0.1164 -0.1865 -0.3176
20197TIP3    H182082   1.917   6.628   1.676  2.0713 -0.2241 -0.0068
20197TIP3    H282083   1.968   6.726   1.573  1.6726 -0.8706 -0.8291
20198TIP3   OH282084   2.150   2.917   0.284 -0.1979 -0.4392  0.2713
20198TIP3    H182085   2.121   2.983   0.348  0.3086  0.1389 -0.0839
20198TIP3    H282086   2.119   2.834   0.320  1.4402 -0.3134  2.0806
20199TIP3   OH282087   1.872   2.096  13.499  0.1431  0.8054  0.4590
20199TIP3    H182088   1.861   2.144  13.417  1.2480 -0.6962 -0.5959
20199TIP3    H282089   1.812   2.022  13.492  2.2347 -0.8805 -0.2424
20200TIP3   OH282090   2.440   1.758  12.481 -0.8557  0.2845  0.3702
20200TIP3    H182091   2.473   1.842  12.514 -0.0359 -0.3658  1.2662
20200TIP3    H282092   2.346   1.760  12.498 -0.9391  1.2939 -0.2204
20201TIP3   OH282093   1.582   5.492  14.884  0.0333 -0.1022 -0.0162
20201TIP3    H182094   1.560   5.571  14.932  0.5797  0.3301 -0.4734
20201TIP3    H282095   1.613   5.523  14.799  1.7489 -0.7292  0.3684
20202TIP3   OH282096   1.219   4.380  16.648  0.2399 -0.0148  0.7176
20202TIP3    H182097   1.223   4.338  16.562 -0.1015  2.6261 -0.6549
20202TIP3    H282098   1.208   4.308  16.710 -0.7347 -1.8743 -1.5474
20203TIP3   OH282099   3.364   0.272   2.916 -0.1688 -0.2647  0.8314
20203TIP3    H182100   3.389   0.285   3.008 -0.3371 -0.5577  0.9198
20203TIP3    H282101   3.438   0.305   2.866  0.6356 -1.6067  1.0978
20204TIP3   OH282102   4.548   1.656  11.358 -0.5717  0.6297  0.0710
20204TIP3    H182103   4.466   1.657  11.308  0.0632 -2.3085 -1.1332
20204TIP3    H282104   4.521   1.641  11.448 -1.3884  0.1300 -0.2526
20205TIP3   OH282105   0.125   0.368   0.461 -0.6394  0.7689 -0.2285
20205TIP3    H182106   0.121   0.422   0.539 -0.4054 -1.4693  1.3803
20205TIP3    H282107   0.079   0.287   0.485  0.9969 -0.6657 -1.8043
20206TIP3   OH282108   1.372   5.208   0.603  0.4010  0.4717 -0.4801
20206TIP3    H182109   1.295   5.203   0.547 -0.1216  1.0332  0.1857
20206TIP3    H282110   1.444   5.176   0.548 -0.7955 -3.0734 -0.1542
20207TIP3   OH282111   3.148   0.482   4.855  0.3697 -0.2700  0.4414
20207TIP3    H182112   3.132   0.467   4.762 -0.2684 -1.0013  0.6671
20207TIP3    H282113   3.131   0.576   4.868 -3.6275 -0.9548  0.6340
20208TIP3   OH282114   0.207   4.082   1.630 -0.4196 -0.1147  0.2959
20208TIP3    H182115   0.281   4.126   1.672 -0.1482 -0.4831  0.2045
20208TIP3    H282116   0.229   4.081   1.537 -0.7505  0.1778  0.2102
20209TIP3   OH282117   2.566   4.959   5.200 -0.0337  0.2421  0.4238
20209TIP3    H182118   2.632   5.026   5.181 -0.3860  0.9540  1.6257
20209TIP3    H282119   2.489   4.985   5.148 -0.4058  1.1764  1.4314
20210TIP3   OH282120   0.126   0.514   0.688  0.4953 -0.2975 -0.4808
20210TIP3    H182121   0.108   0.511   0.782 -0.0342 -1.5731 -0.6202
20210TIP3    H282122   0.068   0.583   0.656  1.4594  0.8965  0.2877
20211TIP3   OH282123   4.648   2.581   1.175 -0.3795 -0.0625  0.4360
20211TIP3    H182124   4.738   2.608   1.192  0.0138 -1.3195  0.4378
20211TIP3    H282125   4.602   2.661   1.151  1.3594  0.1662 -2.2601
20212TIP3   OH282126   2.886   4.027   0.377  0.3519  0.3489 -0.0336
20212TIP3    H182127   2.862   4.034   0.469  0.4892 -2.5438  0.2726
20212TIP3    H282128   2.851   4.106   0.337 -2.7988 -0.0024  1.8458
20213TIP3   OH282129   1.979   1.431  15.878 -0.3603  0.3958  0.2025
20213TIP3    H182130   1.943   1.481  15.805 -0.3882  2.0118  1.2907
20213TIP3    H282131   1.915   1.361  15.893  0.8497 -1.4519 -2.8649
20214TIP3   OH282132   2.873   5.626   4.069  0.1948  0.1648 -0.0716
20214TIP3    H182133   2.890   5.534   4.088  3.1709  0.7971  0.5558
20214TIP3    H282134   2.779   5.630   4.051 -0.5146 -2.5284  2.6573
20215TIP3   OH282135   0.617   4.277   2.402 -0.3331 -0.0447 -0.1222
20215TIP3    H182136   0.574   4.361   2.421 -0.6213 -0.3706  0.7288
20215TIP3    H282137   0.661   4.291   2.319 -0.0311  1.0908  0.2105
20216TIP3   OH282138   3.161   2.035   4.851 -0.3283 -0.9332  0.4734
20216TIP3    H182139   3.158   2.003   4.942 -0.4175  0.4550  0.9751
20216TIP3    H282140   3.251   2.018   4.823  0.0824 -0.1525  1.2890
20217TIP3   OH282141   2.071   6.624  12.720 -0.2329  0.8602  0.2637
20217TIP3    H182142   1.993   6.668  12.686 -1.9872 -1.4519  1.1739
20217TIP3    H282143   2.068   6.537  12.680  0.4130 -0.1613  2.4122
20218TIP3   OH282144   6.203   1.485  13.283 -0.1309 -0.8209  0.6439
20218TIP3    H182145   6.207   1.390  13.275  0.0570 -0.8442  1.0265
20218TIP3    H282146   6.110   1.507  13.274  0.1151 -0.7741 -2.6136
20219TIP3   OH282147   6.200   2.423  16.642 -0.1548  0.3335 -0.6718
20219TIP3    H182148   6.271   2.428  16.579  0.0243  1.3804 -0.4126
20219TIP3    H282149   6.122   2.402  16.590  0.0188  1.0221 -1.2268
20220TIP3   OH282150   0.100   3.118  16.788 -0.1098 -0.1347 -0.2335
20220TIP3    H182151   0.083   3.199  16.738 -0.4120 -0.2519 -0.3213
20220TIP3    H282152   0.046   3.127  16.867  0.4148  0.0767  0.1013
20221TIP3   OH282153   4.900   5.181  10.418 -0.7304  0.4996 -0.0513
20221TIP3    H182154   4.846   5.150  10.345  1.6071  1.3388 -2.1816
20221TIP3    H282155   4.843   5.242  10.466 -2.0533  0.4631 -1.5555
20222TIP3   OH282156   6.085   5.258  12.075 -0.0561  0.3733 -0.1944
20222TIP3    H182157   5.989   5.251  12.072 -0.0230 -0.2547  0.1465
20222TIP3    H282158   6.107   5.317  12.003 -0.5464 -1.1079 -1.5910
20223TIP3   OH282159   5.825   1.659   4.628 -0.0065 -0.7308 -0.0194
20223TIP3    H182160   5.787   1.650   4.716 -1.8468 -1.0749 -0.8279
20223TIP3    H282161   5.789   1.585   4.579 -1.6199  1.2699 -1.9707
20224TIP3   OH282162   1.099   1.494   1.982  0.3808  0.1071  0.0148
20224TIP3    H182163   1.097   1.524   1.892 -1.5822 -0.5500 -0.1879
20224TIP3    H282164   1.122   1.571   2.033  0.4053  0.7345 -0.9437
20225TIP3   OH282165   5.669   0.372  13.261  0.4926 -0.3404  0.1291
20225TIP3    H182166   5.761   0.351  13.273  0.8367  1.5405  1.0213
20225TIP3    H282167   5.625   0.288  13.250  2.5421 -1.1706 -1.9481
20226TIP3   OH282168   6.733   0.923  16.594 -0.5074 -0.1334 -0.4225
20226TIP3    H182169   6.642   0.911  16.567 -0.0082 -0.9866 -1.7589
20226TIP3    H282170   6.762   0.835  16.619 -0.6016  0.4429  1.8328
20227TIP3   OH282171   0.262   0.094  12.048 -0.0945  0.3554  0.2970
20227TIP3    H182172   0.329   0.050  11.996  1.1902 -0.2217  2.3812
20227TIP3    H282173   0.305   0.173  12.081 -1.0333  0.9518  0.1101
20228TIP3   OH282174   6.317   6.265  11.553  0.8998 -0.1554  0.6407
20228TIP3    H182175   6.412   6.268  11.565  1.2308 -1.9629 -1.1447
20228TIP3    H282176   6.287   6.202  11.619  0.8564  0.8608  1.5985
20229TIP3   OH282177   3.309   5.388   4.119  0.4123  0.5572  0.1844
20229TIP3    H182178   3.354   5.443   4.183  1.7407 -0.2902  0.0010
20229TIP3    H282179   3.306   5.441   4.040  1.7274  0.3773 -0.0068
20230TIP3   OH282180   0.249   5.444  13.665  0.1907 -0.0834  0.3444
20230TIP3    H182181   0.192   5.491  13.604  1.0444  1.4039  0.6755
20230TIP3    H282182   0.239   5.352  13.640  2.5635  0.6330 -3.8463
20231TIP3   OH282183   1.317   6.069   0.032  0.2572  0.0885  0.2342
20231TIP3    H182184   1.233   6.104   0.062  0.6913  1.1979  0.1715
20231TIP3    H282185   1.295   5.983  -0.003 -0.7811  0.1599  0.6674
20232TIP3   OH282186   2.083   4.666   2.587 -0.6842  0.3292 -0.2523
20232TIP3    H182187   2.068   4.576   2.558  3.1393 -0.3373 -0.4273
20232TIP3    H282188   2.092   4.715   2.506 -0.9300  0.5262 -0.1596
20233TIP3   OH282189   6.314   1.984  13.700 -0.1734 -0.0506  0.2432
20233TIP3    H182190   6.259   2.062  13.699  1.2460  0.9677 -1.3281
20233TIP3    H282191   6.260   1.916  13.659 -0.9182  0.4429  0.3920
20234TIP3   OH282192   5.531   0.965  12.398  0.3651  0.6380  0.0469
20234TIP3    H182193   5.537   0.954  12.304  0.3374  0.4409  0.0667
20234TIP3    H282194   5.438   0.952  12.419  0.4688  0.0685  0.1734
20235TIP3   OH282195   4.483   3.881  10.704  0.1332 -0.0983  0.7029
20235TIP3    H182196   4.389   3.864  10.696  0.4386 -2.2296  1.1437
20235TIP3    H282197   4.492   3.976  10.697 -1.9040  0.0100 -0.8174
20236TIP3   OH282198   5.632   2.776  16.586  0.8498 -0.1900  0.1414
20236TIP3    H182199   5.551   2.791  16.636  1.7664  0.1783  1.5197
20236TIP3    H282200   5.602   2.729  16.508 -0.5652 -0.9957  1.1389
20237TIP3   OH282201   3.761   5.493   0.034  0.1672  0.4107 -0.1821
20237TIP3    H182202   3.828   5.527  -0.025  0.4072  0.1939 -0.0388
20237TIP3    H282203   3.679   5.503  -0.014  0.3769  0.1163 -0.6069
20238TIP3   OH282204   0.114   4.724  11.068 -0.1330  0.1029 -0.6523
20238TIP3    H182205   0.104   4.644  11.121 -0.9627 -1.0308 -2.4691
20238TIP3    H282206   0.053   4.786  11.108  0.1920 -0.3168  0.5197
20239TIP3   OH282207   5.695   3.437  11.993  0.1289 -0.2868  0.3272
20239TIP3    H182208   5.635   3.366  12.016  0.5584 -1.1443 -1.0921
20239TIP3    H282209   5.777   3.414  12.036  1.0955 -2.1829 -2.3543
20240TIP3   OH282210   4.239   2.142   0.130 -0.2791  0.2207 -0.6605
20240TIP3    H182211   4.185   2.102   0.063  0.1776 -0.5332 -0.5865
20240TIP3    H282212   4.199   2.228   0.146 -0.4933  0.3269 -1.7584
20241TIP3   OH282213   5.686   2.634   5.160 -0.5216  0.5249 -0.6281
20241TIP3    H182214   5.615   2.698   5.158  0.6989  1.9133 -0.4059
20241TIP3    H282215   5.725   2.638   5.073 -0.3115  0.2174 -0.5508
20242TIP3   OH282216   3.564   2.949   4.876 -0.1950 -0.1811  0.5894
20242TIP3    H182217   3.614   3.014   4.925  1.5175  1.2172 -2.8771
20242TIP3    H282218   3.616   2.870   4.879 -0.6710 -0.4477  1.9985
20243TIP3   OH282219   1.717   5.978  12.480  0.2290 -0.3047  0.2920
20243TIP3    H182220   1.808   6.004  12.466  0.2754 -0.8472 -0.4233
20243TIP3    H282221   1.685   5.953  12.393 -0.5390 -0.3383  0.5763
20244TIP3   OH282222   3.059   2.015  15.104 -0.3917 -0.0477 -0.1447
20244TIP3    H182223   3.024   1.992  15.190  1.5404  2.0367  1.2898
20244TIP3    H282224   3.010   2.093  15.078 -0.8451 -0.5656 -0.8342
20245TIP3   OH282225   6.033   2.759  13.668  0.1820 -0.3518 -0.1096
20245TIP3    H182226   6.011   2.806  13.587 -0.5070 -1.3776 -0.5234
20245TIP3    H282227   6.128   2.752  13.667  0.2176  0.1447 -0.5422
20246TIP3   OH282228   5.330   1.936   4.421  0.4454 -0.3368  0.3670
20246TIP3    H182229   5.296   1.858   4.376  0.8113 -0.5498  0.4580
20246TIP3    H282230   5.281   1.939   4.503 -0.8194  0.5239 -0.3992
20247TIP3   OH282231   5.394   2.087   1.496  0.5237 -0.3933  0.3415
20247TIP3    H182232   5.440   2.060   1.575  0.2362 -1.0534  0.2846
20247TIP3    H282233   5.308   2.117   1.527  0.5142 -0.3885  0.3114
20248TIP3   OH282234   4.665   1.272   4.138 -0.5460  0.0445  0.0674
20248TIP3    H182235   4.628   1.344   4.086 -0.1289 -0.3295 -0.7563
20248TIP3    H282236   4.675   1.309   4.226  2.9327  2.1738 -1.0888
20249LIG      S82237   3.403   3.462  16.879 -0.4092  0.0378  0.0742
20249LIG     N182238   3.565   3.799  16.465  0.2867  0.1707 -1.1929
20249LIG     N282239   3.444   3.591  16.608 -0.1921 -1.0141 -0.0007
20249LIG     C182240   3.683   3.741  16.529 -0.6101  0.5439  0.2438
20249LIG     C282241   3.657   3.686  16.667  0.2558 -0.1042  0.9500
20249LIG     C382242   3.545   3.617  16.706 -0.1350  0.3406  0.0366
20249LIG     C482243   3.579   3.845  16.323  0.6385 -0.0259  0.3324
20249LIG     C582244   3.500   3.910  16.552 -0.8449  1.0834 -0.0001
20249LIG     C682245   3.745   3.628  16.437 -0.0271  0.0693  0.0615
20249LIG     C782246   3.539   3.569  16.838 -0.5990 -0.1878  0.3787
20249LIG     C882247   3.770   3.695  16.759 -0.1023 -0.4855 -0.0937
20249LIG     C982248   3.402   3.452  16.607 -0.6072  0.4095 -0.2515
20249LIG    C1082249   3.695   3.941  16.298  0.0817 -0.2154  0.8821
20249LIG    C1182250   3.354   3.946  16.517 -0.6464  0.3683  0.2432
20249LIG    C1282251   3.642   3.581  16.932 -0.3383 -0.1622  0.6615
20249LIG    C1382252   3.756   3.649  16.890  0.1979 -0.2263  0.0489
20249LIG    C1482253   3.376   3.378  16.729  0.1816 -0.1152 -0.0036
20249LIG    C1582254   3.382   3.389  16.490  0.5734  0.5190  0.4294
20249LIG    C1682255   3.341   3.244  16.728 -0.5446  0.4543  0.3545
20249LIG    C1782256   3.339   3.257  16.485  0.0631 -0.2295 -0.6671
20249LIG    C1882257   3.325   3.180  16.603 -0.6414  0.4247 -0.4395
20249LIG     H182258   3.765   3.816  16.541  0.7033 -0.6607 -1.0039
20249LIG     H282259   3.488   3.905  16.303  0.8320  1.3499  3.2465
20249LIG     H382260   3.593   3.762  16.250 -2.6871 -1.3144  1.0679
20249LIG     H482261   3.569   3.997  16.556  0.5679 -0.0092 -0.0294
20249LIG     H582262   3.498   3.877  16.658 -3.2777  1.0478 -0.0255
20249LIG     H682263   3.661   3.557  16.423  0.8690 -1.3957  1.9017
20249LIG     H782264   3.831   3.581  16.489 -0.7746 -2.0184 -0.5149
20249LIG     H882265   3.780   3.677  16.343 -0.2006  0.6508  0.3007
20249LIG     H982266   3.860   3.750  16.739  0.5347 -1.0138  1.2744
20249LIG    H1082267   3.465   3.625  16.514 -2.8492 -0.3398 -0.3944
20249LIG    H1182268   3.681   4.032  16.362  1.6168 -0.0552  1.0026
20249LIG    H1282269   3.692   3.971  16.191 -2.0085 -1.0760  0.6654
20249LIG    H1382270   3.797   3.904  16.319  0.1124 -1.6844 -1.8005
20249LIG    H1482271   3.350   3.999  16.420 -1.2561 -2.4425 -1.3063
20249LIG    H1582272   3.314   4.017  16.593 -0.3449  0.8916 -0.0858
20249LIG    H1682273   3.292   3.855  16.510  0.9655 -0.7180 -0.2292
20249LIG    H1782274   3.636   3.530  17.027  0.7592 -1.5513  0.0062
20249LIG    H1882275   3.841   3.657  16.956  0.5148  1.5076 -0.5612
20249LIG    H1982276   3.398   3.442  16.397 -0.3768 -1.1608 -0.7066
20249LIG    H2082277   3.327   3.192  16.822  0.8465 -0.3527  0.1345
20249LIG    H2182278   3.348   3.203  16.392 -0.5826  0.7576 -1.3176
20249LIG    H2282279   3.315   3.073  16.589  1.1865  0.1228  0.4854
   6.82013   6.82013  17.29240
